<event>
 7    1  0.1736465E-010  0.4778727E+02  0.7816164E-02  0.1312668E+00
        -11   -1    0    0    0    0  0.00000000000E+00  0.00000000000E+00  0.45593999997E+02  0.45594000000E+02  0.51100000000E-03 0.  1.
         11   -1    0    0    0    0 -0.00000000000E+00 -0.00000000000E+00 -0.45593999997E+02  0.45594000000E+02  0.51100000000E-03 0. -1.
    9900012    2    1    2    0    0  0.39674527898E+02 -0.88452767620E+01  0.15209080744E+02  0.47787271642E+02  0.20000002723E+02 0.  0.
         12    1    1    2    0    0 -0.39674527898E+02  0.88452767620E+01 -0.15209080744E+02  0.43400728358E+02  0.00000000000E+00 0. -1.
         11    1    3    3    0    0  0.15052130291E+02 -0.66684636937E+01  0.12374369558E+02  0.20595146432E+02  0.51100000000E-03 0.  1.
        -11    1    3    3    0    0  0.12706277354E+01 -0.33966096204E+01  0.84767546302E+00  0.37242456561E+01  0.51100000000E-03 0. -1.
         12    1    3    3    0    0  0.23351769872E+02  0.12197965520E+01  0.19870357232E+01  0.23467879554E+02  0.00000000000E+00 0. -1.
</event>
<event>
 7    1  0.1736465E-010  0.4778728E+02  0.7816164E-02  0.1312668E+00
        -11   -1    0    0    0    0  0.00000000000E+00  0.00000000000E+00  0.45593999997E+02  0.45594000000E+02  0.51100000000E-03 0.  1.
         11   -1    0    0    0    0 -0.00000000000E+00 -0.00000000000E+00 -0.45593999997E+02  0.45594000000E+02  0.51100000000E-03 0. -1.
    9900012    2    1    2    0    0 -0.23898668307E+02 -0.35372729527E+02  0.78260012862E+01  0.47787278380E+02  0.20000033444E+02 0.  0.
         12    1    1    2    0    0  0.23898668307E+02  0.35372729527E+02 -0.78260012862E+01  0.43400721620E+02  0.00000000000E+00 0. -1.
         11    1    3    3    0    0  0.51144716364E+00 -0.24572716601E+01  0.49262806964E+01  0.55288338710E+01  0.51100000000E-03 0. -1.
        -11    1    3    3    0    0 -0.65576509106E+01 -0.16966880652E+02  0.46328476465E+00  0.18195946185E+02  0.51100000000E-03 0.  1.
        -12    1    3    3    0    0 -0.17852464560E+02 -0.15948577215E+02  0.24364358252E+01  0.24062498324E+02  0.00000000000E+00 0.  1.
</event>
<event>
 7    1  0.1736465E-010  0.4778727E+02  0.7816164E-02  0.1312668E+00
        -11   -1    0    0    0    0  0.00000000000E+00  0.00000000000E+00  0.45593999997E+02  0.45594000000E+02  0.51100000000E-03 0. -1.
         11   -1    0    0    0    0 -0.00000000000E+00 -0.00000000000E+00 -0.45593999997E+02  0.45594000000E+02  0.51100000000E-03 0.  1.
    9900012    2    1    2    0    0  0.22943954861E+02  0.99582961722E+01 -0.35468726086E+02  0.47787271233E+02  0.20000000861E+02 0.  0.
         12    1    1    2    0    0 -0.22943954861E+02 -0.99582961722E+01  0.35468726086E+02  0.43400728767E+02  0.00000000000E+00 0. -1.
         11    1    3    3    0    0  0.41828641536E+01  0.76409780355E+01 -0.19302198115E+02  0.21176773838E+02  0.51100000000E-03 0. -1.
        -11    1    3    3    0    0 -0.72988164480E+00 -0.10275482270E+01 -0.41114287608E+00  0.13257531067E+01  0.51100000000E-03 0.  1.
        -12    1    3    3    0    0  0.19490972353E+02  0.33448663637E+01 -0.15755385094E+02  0.25284744288E+02  0.00000000000E+00 0.  1.
</event>
<event>
 7    1  0.1736465E-010  0.4778727E+02  0.7816164E-02  0.1312668E+00
        -11   -1    0    0    0    0  0.00000000000E+00  0.00000000000E+00  0.45593999997E+02  0.45594000000E+02  0.51100000000E-03 0.  1.
         11   -1    0    0    0    0 -0.00000000000E+00 -0.00000000000E+00 -0.45593999997E+02  0.45594000000E+02  0.51100000000E-03 0. -1.
    9900012    2    1    2    0    0 -0.54446074542E+01 -0.12978233940E+02  0.41055386016E+02  0.47787273883E+02  0.20000012943E+02 0.  0.
         12    1    1    2    0    0  0.54446074542E+01  0.12978233940E+02 -0.41055386016E+02  0.43400726117E+02  0.00000000000E+00 0. -1.
         11    1    3    3    0    0 -0.47887498421E+01 -0.11093429676E+02  0.15636386696E+02  0.19760893102E+02  0.51100000000E-03 0. -1.
        -11    1    3    3    0    0  0.11581107482E+01 -0.45964616434E+01  0.24008702852E+02  0.24472157507E+02  0.51100000000E-03 0.  1.
         12    1    3    3    0    0 -0.18139683602E+01  0.27116573791E+01  0.14102964674E+01  0.35542232737E+01  0.00000000000E+00 0. -1.
</event>
<event>
 7    1  0.1736465E-010  0.4778727E+02  0.7816164E-02  0.1312668E+00
        -11   -1    0    0    0    0  0.00000000000E+00  0.00000000000E+00  0.45593999997E+02  0.45594000000E+02  0.51100000000E-03 0.  1.
         11   -1    0    0    0    0 -0.00000000000E+00 -0.00000000000E+00 -0.45593999997E+02  0.45594000000E+02  0.51100000000E-03 0. -1.
    9900012    2    1    2    0    0 -0.23331156613E+02  0.18851710719E+02  0.31367073208E+02  0.47787272500E+02  0.20000006638E+02 0.  0.
         12    1    1    2    0    0  0.23331156613E+02 -0.18851710719E+02 -0.31367073208E+02  0.43400727500E+02  0.00000000000E+00 0. -1.
         11    1    3    3    0    0 -0.95643993677E+01  0.25974446864E+01  0.38635995537E+01  0.10637286117E+02  0.51100000000E-03 0. -1.
        -11    1    3    3    0    0 -0.14918554105E+02  0.17122203444E+02  0.27554460542E+02  0.35706881737E+02  0.51100000000E-03 0.  1.
        -12    1    3    3    0    0  0.11517968602E+01 -0.86793741146E+00 -0.50986888139E-01  0.14431046463E+01  0.00000000000E+00 0.  1.
</event>
<event>
 7    1  0.1736465E-010  0.4778727E+02  0.7816164E-02  0.1312668E+00
        -11   -1    0    0    0    0  0.00000000000E+00  0.00000000000E+00  0.45593999997E+02  0.45594000000E+02  0.51100000000E-03 0.  1.
         11   -1    0    0    0    0 -0.00000000000E+00 -0.00000000000E+00 -0.45593999997E+02  0.45594000000E+02  0.51100000000E-03 0. -1.
    9900012    2    1    2    0    0  0.39802184039E+01  0.15508534092E+02  0.40339394031E+02  0.47787268681E+02  0.19999989226E+02 0.  0.
         12    1    1    2    0    0 -0.39802184039E+01 -0.15508534092E+02 -0.40339394031E+02  0.43400731319E+02  0.00000000000E+00 0. -1.
         11    1    3    3    0    0 -0.31583815696E+01  0.36448786283E+01  0.29667185260E+02  0.30056653104E+02  0.51100000000E-03 0. -1.
        -11    1    3    3    0    0  0.32413303520E+01  0.57224202093E+01  0.69187562270E+01  0.95457584032E+01  0.51100000000E-03 0.  1.
        -12    1    3    3    0    0  0.38972696215E+01  0.61412352543E+01  0.37534525443E+01  0.81848571737E+01  0.00000000000E+00 0.  1.
</event>
<event>
 7    1  0.1736465E-010  0.4778727E+02  0.7816164E-02  0.1312668E+00
        -11   -1    0    0    0    0  0.00000000000E+00  0.00000000000E+00  0.45593999997E+02  0.45594000000E+02  0.51100000000E-03 0.  1.
         11   -1    0    0    0    0 -0.00000000000E+00 -0.00000000000E+00 -0.45593999997E+02  0.45594000000E+02  0.51100000000E-03 0. -1.
    9900012    2    1    2    0    0 -0.20400119708E+02 -0.26450290119E+02  0.27709940183E+02  0.47787268250E+02  0.19999987259E+02 0.  0.
         12    1    1    2    0    0  0.20400119708E+02  0.26450290119E+02 -0.27709940183E+02  0.43400731750E+02  0.00000000000E+00 0. -1.
         11    1    3    3    0    0 -0.28617101519E+01 -0.25469216454E+01  0.96860038009E+00  0.39515037415E+01  0.51100000000E-03 0. -1.
        -11    1    3    3    0    0 -0.14298942782E+02 -0.93939848309E+01  0.56222326946E+01  0.18008781647E+02  0.51100000000E-03 0.  1.
         12    1    3    3    0    0 -0.32394667742E+01 -0.14509383643E+02  0.21119107108E+02  0.25826982861E+02  0.00000000000E+00 0. -1.
</event>
<event>
 7    1  0.1736465E-010  0.4778726E+02  0.7816164E-02  0.1312668E+00
        -11   -1    0    0    0    0  0.00000000000E+00  0.00000000000E+00  0.45593999997E+02  0.45594000000E+02  0.51100000000E-03 0. -1.
         11   -1    0    0    0    0 -0.00000000000E+00 -0.00000000000E+00 -0.45593999997E+02  0.45594000000E+02  0.51100000000E-03 0.  1.
    9900012    2    1    2    0    0 -0.23225361557E+01 -0.17799808887E+02 -0.39514510508E+02  0.47787263701E+02  0.19999966520E+02 0.  0.
         12    1    1    2    0    0  0.23225361557E+01  0.17799808887E+02  0.39514510508E+02  0.43400736299E+02  0.00000000000E+00 0. -1.
         11    1    3    3    0    0  0.21652127902E+01 -0.21839273562E+00 -0.21750319853E+02  0.21858917077E+02  0.51100000000E-03 0. -1.
        -11    1    3    3    0    0  0.76007040304E+00 -0.67501402197E+01 -0.54452758776E+01  0.87059249737E+01  0.51100000000E-03 0.  1.
         12    1    3    3    0    0 -0.52478193489E+01 -0.10831275931E+02 -0.12318914777E+02  0.17222421650E+02  0.00000000000E+00 0. -1.
</event>
<event>
 7    1  0.1736465E-010  0.4778727E+02  0.7816164E-02  0.1312668E+00
        -11   -1    0    0    0    0  0.00000000000E+00  0.00000000000E+00  0.45593999997E+02  0.45594000000E+02  0.51100000000E-03 0.  1.
         11   -1    0    0    0    0 -0.00000000000E+00 -0.00000000000E+00 -0.45593999997E+02  0.45594000000E+02  0.51100000000E-03 0. -1.
    9900012    2    1    2    0    0 -0.15811748260E+02  0.72437477143E+01  0.39763550582E+02  0.47787271678E+02  0.20000002889E+02 0.  0.
         12    1    1    2    0    0  0.15811748260E+02 -0.72437477143E+01 -0.39763550582E+02  0.43400728322E+02  0.00000000000E+00 0. -1.
         11    1    3    3    0    0 -0.78694960143E+01  0.10907539879E+02  0.28379414761E+02  0.31405327195E+02  0.51100000000E-03 0. -1.
        -11    1    3    3    0    0 -0.18880749082E+00  0.38900921054E+00 -0.10745446641E+01  0.11582844775E+01  0.51100000000E-03 0.  1.
        -12    1    3    3    0    0 -0.77534447552E+01 -0.40528013755E+01  0.12458680485E+02  0.15223660006E+02  0.00000000000E+00 0.  1.
</event>
<event>
 7    1  0.1736465E-010  0.4778727E+02  0.7816164E-02  0.1312668E+00
        -11   -1    0    0    0    0  0.00000000000E+00  0.00000000000E+00  0.45593999997E+02  0.45594000000E+02  0.51100000000E-03 0. -1.
         11   -1    0    0    0    0 -0.00000000000E+00 -0.00000000000E+00 -0.45593999997E+02  0.45594000000E+02  0.51100000000E-03 0.  1.
    9900012    2    1    2    0    0 -0.24978282527E+02 -0.41434926489E+01 -0.35249683636E+02  0.47787270446E+02  0.19999997273E+02 0.  0.
         12    1    1    2    0    0  0.24978282527E+02  0.41434926489E+01  0.35249683636E+02  0.43400729554E+02  0.00000000000E+00 0. -1.
         11    1    3    3    0    0 -0.94793066581E+01 -0.27489112189E+01 -0.90163158931E+01  0.13368160687E+02  0.51100000000E-03 0. -1.
        -11    1    3    3    0    0 -0.45584403074E+01  0.58921438100E+01 -0.16369018696E+02  0.17984479699E+02  0.51100000000E-03 0.  1.
        -12    1    3    3    0    0 -0.10940535562E+02 -0.72867252400E+01 -0.98643490470E+01  0.16434630060E+02  0.00000000000E+00 0.  1.
</event>
<event>
 7    1  0.1736465E-010  0.4778727E+02  0.7816164E-02  0.1312668E+00
        -11   -1    0    0    0    0  0.00000000000E+00  0.00000000000E+00  0.45593999997E+02  0.45594000000E+02  0.51100000000E-03 0.  1.
         11   -1    0    0    0    0 -0.00000000000E+00 -0.00000000000E+00 -0.45593999997E+02  0.45594000000E+02  0.51100000000E-03 0. -1.
    9900012    2    1    2    0    0  0.26700750710E+01  0.13790833741E+02  0.41064669175E+02  0.47787269008E+02  0.19999990715E+02 0.  0.
         12    1    1    2    0    0 -0.26700750710E+01 -0.13790833741E+02 -0.41064669175E+02  0.43400730992E+02  0.00000000000E+00 0. -1.
         11    1    3    3    0    0 -0.94899577623E+00 -0.25813254224E+01  0.86069183671E+01  0.90356448557E+01  0.51100000000E-03 0. -1.
        -11    1    3    3    0    0  0.75250725874E+01  0.14513405857E+02  0.28662296298E+02  0.32996861917E+02  0.51100000000E-03 0.  1.
         12    1    3    3    0    0 -0.39060017402E+01  0.18587533062E+01  0.37954545101E+01  0.57547622354E+01  0.00000000000E+00 0. -1.
</event>
<event>
 7    1  0.1736465E-010  0.4778727E+02  0.7816164E-02  0.1312668E+00
        -11   -1    0    0    0    0  0.00000000000E+00  0.00000000000E+00  0.45593999997E+02  0.45594000000E+02  0.51100000000E-03 0. -1.
         11   -1    0    0    0    0 -0.00000000000E+00 -0.00000000000E+00 -0.45593999997E+02  0.45594000000E+02  0.51100000000E-03 0.  1.
    9900012    2    1    2    0    0  0.20020114450E+02 -0.51509221761E+01 -0.38161321045E+02  0.47787269525E+02  0.19999993074E+02 0.  0.
         12    1    1    2    0    0 -0.20020114450E+02  0.51509221761E+01  0.38161321045E+02  0.43400730475E+02  0.00000000000E+00 0. -1.
         11    1    3    3    0    0 -0.11359022261E+01  0.24357753219E+01 -0.43862961318E+01  0.51442073542E+01  0.51100000000E-03 0. -1.
        -11    1    3    3    0    0  0.15401894336E+02 -0.11368937428E+02 -0.24555150620E+02  0.31135614810E+02  0.51100000000E-03 0.  1.
        -12    1    3    3    0    0  0.57541223404E+01  0.37822399296E+01 -0.92198742927E+01  0.11507447361E+02  0.00000000000E+00 0.  1.
</event>
<event>
 7    1  0.1736465E-010  0.4778727E+02  0.7816164E-02  0.1312668E+00
        -11   -1    0    0    0    0  0.00000000000E+00  0.00000000000E+00  0.45593999997E+02  0.45594000000E+02  0.51100000000E-03 0. -1.
         11   -1    0    0    0    0 -0.00000000000E+00 -0.00000000000E+00 -0.45593999997E+02  0.45594000000E+02  0.51100000000E-03 0.  1.
    9900012    2    1    2    0    0  0.53865038253E+01 -0.43004510051E+02  0.22850179022E+01  0.47787267115E+02  0.19999982083E+02 0.  0.
         12    1    1    2    0    0 -0.53865038253E+01  0.43004510051E+02 -0.22850179022E+01  0.43400732885E+02  0.00000000000E+00 0. -1.
         11    1    3    3    0    0  0.85025509042E+01 -0.22409737181E+02  0.40237641501E+01  0.24303916775E+02  0.51100000000E-03 0. -1.
        -11    1    3    3    0    0  0.29064740803E+01 -0.54905904986E+01  0.24723631722E+01  0.66863110546E+01  0.51100000000E-03 0.  1.
        -12    1    3    3    0    0 -0.60225211591E+01 -0.15104182371E+02 -0.42111094201E+01  0.16797039285E+02  0.00000000000E+00 0.  1.
</event>
<event>
 7    1  0.1736465E-010  0.4778724E+02  0.7816164E-02  0.1312668E+00
        -11   -1    0    0    0    0  0.00000000000E+00  0.00000000000E+00  0.45593999997E+02  0.45594000000E+02  0.51100000000E-03 0.  1.
         11   -1    0    0    0    0 -0.00000000000E+00 -0.00000000000E+00 -0.45593999997E+02  0.45594000000E+02  0.51100000000E-03 0. -1.
    9900012    2    1    2    0    0 -0.22998885848E+02 -0.23778675648E+02  0.28093618741E+02  0.47787244479E+02  0.19999878877E+02 0.  0.
         12    1    1    2    0    0  0.22998885848E+02  0.23778675648E+02 -0.28093618741E+02  0.43400755521E+02  0.00000000000E+00 0. -1.
         11    1    3    3    0    0 -0.49761091377E+01 -0.21059877058E+00  0.13596036120E+02  0.14479579153E+02  0.51100000000E-03 0. -1.
        -11    1    3    3    0    0 -0.35817749095E+01 -0.77049861820E+01  0.33615267200E+01  0.91376028431E+01  0.51100000000E-03 0.  1.
        -12    1    3    3    0    0 -0.14441001801E+02 -0.15863090695E+02  0.11136055901E+02  0.24170062483E+02  0.00000000000E+00 0.  1.
</event>
<event>
 7    1  0.1736465E-010  0.4778727E+02  0.7816164E-02  0.1312668E+00
        -11   -1    0    0    0    0  0.00000000000E+00  0.00000000000E+00  0.45593999997E+02  0.45594000000E+02  0.51100000000E-03 0.  1.
         11   -1    0    0    0    0 -0.00000000000E+00 -0.00000000000E+00 -0.45593999997E+02  0.45594000000E+02  0.51100000000E-03 0. -1.
    9900012    2    1    2    0    0  0.11437745361E+02  0.78832931663E+01  0.41117571071E+02  0.47787274420E+02  0.20000015392E+02 0.  0.
         12    1    1    2    0    0 -0.11437745361E+02 -0.78832931663E+01 -0.41117571071E+02  0.43400725580E+02  0.00000000000E+00 0. -1.
         11    1    3    3    0    0  0.30677925236E+01  0.40814073429E+01  0.37178072704E+01  0.63159582035E+01  0.51100000000E-03 0. -1.
        -11    1    3    3    0    0  0.11107446339E+02 -0.13946625158E+01  0.30020968190E+02  0.32040271207E+02  0.51100000000E-03 0.  1.
        -12    1    3    3    0    0 -0.27374935014E+01  0.51965483392E+01  0.73787956101E+01  0.94310450093E+01  0.00000000000E+00 0.  1.
</event>
<event>
 7    1  0.1736465E-010  0.4778728E+02  0.7816164E-02  0.1312668E+00
        -11   -1    0    0    0    0  0.00000000000E+00  0.00000000000E+00  0.45593999997E+02  0.45594000000E+02  0.51100000000E-03 0. -1.
         11   -1    0    0    0    0 -0.00000000000E+00 -0.00000000000E+00 -0.45593999997E+02  0.45594000000E+02  0.51100000000E-03 0.  1.
    9900012    2    1    2    0    0 -0.22085752330E+02  0.37360010923E+02  0.26830006133E+00  0.47787275847E+02  0.20000021895E+02 0.  0.
         12    1    1    2    0    0  0.22085752330E+02 -0.37360010923E+02 -0.26830006133E+00  0.43400724153E+02  0.00000000000E+00 0. -1.
         11    1    3    3    0    0 -0.85413254647E+00  0.33387669387E+01  0.22462560469E+01  0.41137055762E+01  0.51100000000E-03 0. -1.
        -11    1    3    3    0    0 -0.35284631596E+01  0.19490855265E+02  0.35253744020E+01  0.20118940234E+02  0.51100000000E-03 0.  1.
         12    1    3    3    0    0 -0.17703156624E+02  0.14530388719E+02 -0.55033303877E+01  0.23554630036E+02  0.00000000000E+00 0. -1.
</event>
<event>
 7    1  0.1736465E-010  0.4778728E+02  0.7816164E-02  0.1312668E+00
        -11   -1    0    0    0    0  0.00000000000E+00  0.00000000000E+00  0.45593999997E+02  0.45594000000E+02  0.51100000000E-03 0. -1.
         11   -1    0    0    0    0 -0.00000000000E+00 -0.00000000000E+00 -0.45593999997E+02  0.45594000000E+02  0.51100000000E-03 0.  1.
    9900012    2    1    2    0    0  0.21304444014E+02 -0.37807746333E+02  0.56354459128E+00  0.47787278808E+02  0.20000035397E+02 0.  0.
         12    1    1    2    0    0 -0.21304444014E+02  0.37807746333E+02 -0.56354459128E+00  0.43400721192E+02  0.00000000000E+00 0. -1.
         11    1    3    3    0    0  0.78921159446E+01 -0.18364719302E+02 -0.12357141734E+01  0.20026866927E+02  0.51100000000E-03 0. -1.
        -11    1    3    3    0    0  0.92099804371E+01 -0.20559685010E+02  0.40101496359E+01  0.22882431858E+02  0.51100000000E-03 0.  1.
         12    1    3    3    0    0  0.42023476319E+01  0.11166579795E+01 -0.22108908712E+01  0.48779800232E+01  0.00000000000E+00 0. -1.
</event>
<event>
 7    1  0.1736465E-010  0.4778727E+02  0.7816164E-02  0.1312668E+00
        -11   -1    0    0    0    0  0.00000000000E+00  0.00000000000E+00  0.45593999997E+02  0.45594000000E+02  0.51100000000E-03 0. -1.
         11   -1    0    0    0    0 -0.00000000000E+00 -0.00000000000E+00 -0.45593999997E+02  0.45594000000E+02  0.51100000000E-03 0.  1.
    9900012    2    1    2    0    0  0.52828976544E+01  0.43039589422E+02  0.18188276125E+01  0.47787269601E+02  0.19999993420E+02 0.  0.
         12    1    1    2    0    0 -0.52828976544E+01 -0.43039589422E+02 -0.18188276125E+01  0.43400730399E+02  0.00000000000E+00 0. -1.
         11    1    3    3    0    0 -0.64950252188E-02 -0.94602208612E+00  0.31635536078E+00  0.99753744200E+00  0.51100000000E-03 0. -1.
        -11    1    3    3    0    0 -0.50241791690E+01  0.19954088630E+02  0.15923907185E+01  0.20638404441E+02  0.51100000000E-03 0.  1.
        -12    1    3    3    0    0  0.10313571849E+02  0.24031522878E+02 -0.89918466754E-01  0.26151327719E+02  0.00000000000E+00 0.  1.
</event>
<event>
 7    1  0.1736465E-010  0.4778729E+02  0.7816164E-02  0.1312668E+00
        -11   -1    0    0    0    0  0.00000000000E+00  0.00000000000E+00  0.45593999997E+02  0.45594000000E+02  0.51100000000E-03 0. -1.
         11   -1    0    0    0    0 -0.00000000000E+00 -0.00000000000E+00 -0.45593999997E+02  0.45594000000E+02  0.51100000000E-03 0.  1.
    9900012    2    1    2    0    0 -0.18064002906E+02 -0.18399013314E+02 -0.34911174609E+02  0.47787285669E+02  0.20000066678E+02 0.  0.
         12    1    1    2    0    0  0.18064002906E+02  0.18399013314E+02  0.34911174609E+02  0.43400714331E+02  0.00000000000E+00 0. -1.
         11    1    3    3    0    0 -0.91901614325E+01  0.11938518742E+00 -0.42085125978E+01  0.10108654635E+02  0.51100000000E-03 0. -1.
        -11    1    3    3    0    0 -0.15894520613E+01 -0.97639364342E+01 -0.10098803524E+02  0.14136712681E+02  0.51100000000E-03 0.  1.
        -12    1    3    3    0    0 -0.72843894117E+01 -0.87544620671E+01 -0.20603858487E+02  0.23541918353E+02  0.00000000000E+00 0.  1.
</event>
<event>
 7    1  0.1736465E-010  0.4778728E+02  0.7816164E-02  0.1312668E+00
        -11   -1    0    0    0    0  0.00000000000E+00  0.00000000000E+00  0.45593999997E+02  0.45594000000E+02  0.51100000000E-03 0. -1.
         11   -1    0    0    0    0 -0.00000000000E+00 -0.00000000000E+00 -0.45593999997E+02  0.45594000000E+02  0.51100000000E-03 0.  1.
    9900012    2    1    2    0    0  0.10006448135E+02  0.24636841729E+02 -0.34300432049E+02  0.47787278654E+02  0.20000034693E+02 0.  0.
         12    1    1    2    0    0 -0.10006448135E+02 -0.24636841729E+02  0.34300432049E+02  0.43400721346E+02  0.00000000000E+00 0. -1.
         11    1    3    3    0    0  0.54313651339E+01  0.39424588135E+01 -0.12129468370E+02  0.13862420853E+02  0.51100000000E-03 0. -1.
        -11    1    3    3    0    0 -0.85523127457E-01  0.25926594365E+01  0.20667210822E+01  0.33167052103E+01  0.51100000000E-03 0.  1.
        -12    1    3    3    0    0  0.46606061283E+01  0.18101723479E+02 -0.24237684762E+02  0.30608152590E+02  0.00000000000E+00 0.  1.
</event>
<event>
 7    1  0.1894361E-010  0.4778727E+02  0.7816164E-02  0.1312668E+00
        -11   -1    0    0    0    0  0.00000000000E+00  0.00000000000E+00  0.45593999997E+02  0.45594000000E+02  0.51100000000E-03 0.  1.
         11   -1    0    0    0    0 -0.00000000000E+00 -0.00000000000E+00 -0.45593999997E+02  0.45594000000E+02  0.51100000000E-03 0. -1.
    9900012    2    1    2    0    0 -0.37928907058E+02 -0.52713473373E+01  0.20426310205E+02  0.47787271412E+02  0.20000001676E+02 0.  0.
         12    1    1    2    0    0  0.37928907058E+02  0.52713473373E+01 -0.20426310205E+02  0.43400728588E+02  0.00000000000E+00 0. -1.
         11    1    3    3    0    0 -0.18321028546E+02  0.22216457842E+01  0.85354294574E+01  0.20333454041E+02  0.51100000000E-03 0. -1.
        -11    1    3    3    0    0 -0.20048206218E+02 -0.93311254332E+01  0.12580875277E+02  0.25441676388E+02  0.51100000000E-03 0.  1.
         12    1    3    3    0    0  0.44032770591E+00  0.18381323118E+01 -0.68999452960E+00  0.20121409829E+01  0.00000000000E+00 0. -1.
</event>
<event>
 7    1  0.2257508E-010  0.4778727E+02  0.7816164E-02  0.1312668E+00
        -11   -1    0    0    0    0  0.00000000000E+00  0.00000000000E+00  0.45593999997E+02  0.45594000000E+02  0.51100000000E-03 0.  1.
         11   -1    0    0    0    0 -0.00000000000E+00 -0.00000000000E+00 -0.45593999997E+02  0.45594000000E+02  0.51100000000E-03 0. -1.
    9900012    2    1    2    0    0  0.19217497868E+01 -0.34741318106E+02  0.25941691138E+02  0.47787266768E+02  0.19999980500E+02 0.  0.
         12    1    1    2    0    0 -0.19217497868E+01  0.34741318106E+02 -0.25941691138E+02  0.43400733232E+02  0.00000000000E+00 0. -1.
         11    1    3    3    0    0  0.61343618281E+01 -0.64827262595E+01  0.28727556965E+01  0.93759725014E+01  0.51100000000E-03 0. -1.
        -11    1    3    3    0    0 -0.49163672989E+01 -0.10059668036E+02  0.36226996839E+01  0.11768242931E+02  0.51100000000E-03 0.  1.
        -12    1    3    3    0    0  0.70375525763E+00 -0.18198923811E+02  0.19446235757E+02  0.26643051336E+02  0.00000000000E+00 0.  1.
</event>
<event>
 7    1  0.1736465E-010  0.4778727E+02  0.7816164E-02  0.1312668E+00
        -11   -1    0    0    0    0  0.00000000000E+00  0.00000000000E+00  0.45593999997E+02  0.45594000000E+02  0.51100000000E-03 0.  1.
         11   -1    0    0    0    0 -0.00000000000E+00 -0.00000000000E+00 -0.45593999997E+02  0.45594000000E+02  0.51100000000E-03 0. -1.
    9900012    2    1    2    0    0  0.12211760880E+02 -0.60604059606E+01  0.41203976457E+02  0.47787270743E+02  0.19999998624E+02 0.  0.
         12    1    1    2    0    0 -0.12211760880E+02  0.60604059606E+01 -0.41203976457E+02  0.43400729257E+02  0.00000000000E+00 0. -1.
         11    1    3    3    0    0 -0.24759512555E+01 -0.46802202667E+00  0.19970651846E+01  0.32152214309E+01  0.51100000000E-03 0. -1.
        -11    1    3    3    0    0  0.10890881638E+02 -0.75828805765E+01  0.37797288005E+02  0.40059285584E+02  0.51100000000E-03 0.  1.
         12    1    3    3    0    0  0.37968304974E+01  0.19904966426E+01  0.14096232678E+01  0.45127637283E+01  0.00000000000E+00 0. -1.
</event>
<event>
 7    1  0.1736465E-010  0.4778727E+02  0.7816164E-02  0.1312668E+00
        -11   -1    0    0    0    0  0.00000000000E+00  0.00000000000E+00  0.45593999997E+02  0.45594000000E+02  0.51100000000E-03 0. -1.
         11   -1    0    0    0    0 -0.00000000000E+00 -0.00000000000E+00 -0.45593999997E+02  0.45594000000E+02  0.51100000000E-03 0.  1.
    9900012    2    1    2    0    0  0.41354322878E+02  0.10452952231E+02  0.80111849107E+01  0.47787270574E+02  0.19999997854E+02 0.  0.
         12    1    1    2    0    0 -0.41354322878E+02 -0.10452952231E+02 -0.80111849107E+01  0.43400729426E+02  0.00000000000E+00 0. -1.
         11    1    3    3    0    0  0.90820168597E+00  0.32628815831E+00 -0.20745708861E+01  0.22880425886E+01  0.51100000000E-03 0. -1.
        -11    1    3    3    0    0  0.35420574740E+02  0.13905577893E+02  0.80955593764E+01  0.38903988141E+02  0.51100000000E-03 0.  1.
         12    1    3    3    0    0  0.50255464525E+01 -0.37789138200E+01  0.19901964205E+01  0.65952398438E+01  0.00000000000E+00 0. -1.
</event>
<event>
 7    1  0.1840746E-010  0.4778727E+02  0.7816164E-02  0.1312668E+00
        -11   -1    0    0    0    0  0.00000000000E+00  0.00000000000E+00  0.45593999997E+02  0.45594000000E+02  0.51100000000E-03 0.  1.
         11   -1    0    0    0    0 -0.00000000000E+00 -0.00000000000E+00 -0.45593999997E+02  0.45594000000E+02  0.51100000000E-03 0. -1.
    9900012    2    1    2    0    0  0.30474710647E+02 -0.27183937002E+02  0.14695194162E+02  0.47787272455E+02  0.20000006432E+02 0.  0.
         12    1    1    2    0    0 -0.30474710647E+02  0.27183937002E+02 -0.14695194162E+02  0.43400727545E+02  0.00000000000E+00 0. -1.
         11    1    3    3    0    0  0.13735786383E+02 -0.41420117751E+01  0.41856141848E+01  0.14944813664E+02  0.51100000000E-03 0. -1.
        -11    1    3    3    0    0  0.17994629056E+02 -0.20426035239E+02  0.11796832476E+02  0.29668077915E+02  0.51100000000E-03 0.  1.
         12    1    3    3    0    0 -0.12557047910E+01 -0.26158899878E+01 -0.12872524988E+01  0.31743808761E+01  0.00000000000E+00 0. -1.
</event>
<event>
 7    1  0.1736465E-010  0.4778727E+02  0.7816164E-02  0.1312668E+00
        -11   -1    0    0    0    0  0.00000000000E+00  0.00000000000E+00  0.45593999997E+02  0.45594000000E+02  0.51100000000E-03 0.  1.
         11   -1    0    0    0    0 -0.00000000000E+00 -0.00000000000E+00 -0.45593999997E+02  0.45594000000E+02  0.51100000000E-03 0. -1.
    9900012    2    1    2    0    0 -0.39232325047E+02 -0.11261199062E+02  0.14752407100E+02  0.47787269036E+02  0.19999990844E+02 0.  0.
         12    1    1    2    0    0  0.39232325047E+02  0.11261199062E+02 -0.14752407100E+02  0.43400730964E+02  0.00000000000E+00 0. -1.
         11    1    3    3    0    0 -0.68054653347E+01  0.23083108781E+01 -0.26952769989E+01  0.76751010348E+01  0.51100000000E-03 0. -1.
        -11    1    3    3    0    0 -0.20236538978E+02 -0.82353329336E+01  0.62588030767E+01  0.22726874720E+02  0.51100000000E-03 0.  1.
        -12    1    3    3    0    0 -0.12190320734E+02 -0.53341770066E+01  0.11188881022E+02  0.17385293281E+02  0.00000000000E+00 0.  1.
</event>
<event>
 7    1  0.1736465E-010  0.4778728E+02  0.7816164E-02  0.1312668E+00
        -11   -1    0    0    0    0  0.00000000000E+00  0.00000000000E+00  0.45593999997E+02  0.45594000000E+02  0.51100000000E-03 0.  1.
         11   -1    0    0    0    0 -0.00000000000E+00 -0.00000000000E+00 -0.45593999997E+02  0.45594000000E+02  0.51100000000E-03 0. -1.
    9900012    2    1    2    0    0 -0.31173991105E+02 -0.21287474222E+02  0.21416076297E+02  0.47787278761E+02  0.20000035182E+02 0.  0.
         12    1    1    2    0    0  0.31173991105E+02  0.21287474222E+02 -0.21416076297E+02  0.43400721239E+02  0.00000000000E+00 0. -1.
         11    1    3    3    0    0 -0.14993503913E+01 -0.75160856852E+00  0.25535376492E+01  0.30550813121E+01  0.51100000000E-03 0. -1.
        -11    1    3    3    0    0 -0.15617516574E+02 -0.16822857721E+02  0.19586063792E+02  0.30174977398E+02  0.51100000000E-03 0.  1.
         12    1    3    3    0    0 -0.14057124139E+02 -0.37130079321E+01 -0.72352514451E+00  0.14557220051E+02  0.00000000000E+00 0. -1.
</event>
<event>
 7    1  0.1736465E-010  0.4778728E+02  0.7816164E-02  0.1312668E+00
        -11   -1    0    0    0    0  0.00000000000E+00  0.00000000000E+00  0.45593999997E+02  0.45594000000E+02  0.51100000000E-03 0.  1.
         11   -1    0    0    0    0 -0.00000000000E+00 -0.00000000000E+00 -0.45593999997E+02  0.45594000000E+02  0.51100000000E-03 0. -1.
    9900012    2    1    2    0    0 -0.14179525196E+02 -0.29775276879E+02  0.28213415994E+02  0.47787275466E+02  0.20000020161E+02 0.  0.
         12    1    1    2    0    0  0.14179525196E+02  0.29775276879E+02 -0.28213415994E+02  0.43400724534E+02  0.00000000000E+00 0. -1.
         11    1    3    3    0    0 -0.52377754466E+01 -0.33851967586E+01 -0.81594761040E+00  0.62896438283E+01  0.51100000000E-03 0. -1.
        -11    1    3    3    0    0 -0.72380886239E+01 -0.87552994970E+01  0.15442586079E+02  0.19170776230E+02  0.51100000000E-03 0.  1.
         12    1    3    3    0    0 -0.17036611257E+01 -0.17634780623E+02  0.13586777526E+02  0.22326855407E+02  0.00000000000E+00 0. -1.
</event>
<event>
 7    1  0.1736465E-010  0.4778727E+02  0.7816164E-02  0.1312668E+00
        -11   -1    0    0    0    0  0.00000000000E+00  0.00000000000E+00  0.45593999997E+02  0.45594000000E+02  0.51100000000E-03 0.  1.
         11   -1    0    0    0    0 -0.00000000000E+00 -0.00000000000E+00 -0.45593999997E+02  0.45594000000E+02  0.51100000000E-03 0. -1.
    9900012    2    1    2    0    0  0.30588133416E+02 -0.74733936071E+01  0.29868670531E+02  0.47787274233E+02  0.20000014536E+02 0.  0.
         12    1    1    2    0    0 -0.30588133416E+02  0.74733936071E+01 -0.29868670531E+02  0.43400725767E+02  0.00000000000E+00 0. -1.
         11    1    3    3    0    0  0.22872700281E+02 -0.12935869836E+02  0.17829214108E+02  0.31754968470E+02  0.51100000000E-03 0. -1.
        -11    1    3    3    0    0  0.74148441355E+01  0.34548827059E+01  0.76667885557E+01  0.11211412716E+02  0.51100000000E-03 0.  1.
        -12    1    3    3    0    0  0.30058899963E+00  0.20075935227E+01  0.43726678668E+01  0.48208930472E+01  0.00000000000E+00 0.  1.
</event>
<event>
 7    1  0.1736465E-010  0.4778728E+02  0.7816164E-02  0.1312668E+00
        -11   -1    0    0    0    0  0.00000000000E+00  0.00000000000E+00  0.45593999997E+02  0.45594000000E+02  0.51100000000E-03 0.  1.
         11   -1    0    0    0    0 -0.00000000000E+00 -0.00000000000E+00 -0.45593999997E+02  0.45594000000E+02  0.51100000000E-03 0. -1.
    9900012    2    1    2    0    0 -0.31807328509E+02  0.29133930610E+02  0.48094517914E+01  0.47787275511E+02  0.20000020363E+02 0.  0.
         12    1    1    2    0    0  0.31807328509E+02 -0.29133930610E+02 -0.48094517914E+01  0.43400724489E+02  0.00000000000E+00 0. -1.
         11    1    3    3    0    0  0.61032536148E+00  0.28975139176E+01  0.45278985245E+01  0.54101709085E+01  0.51100000000E-03 0. -1.
        -11    1    3    3    0    0 -0.94486598900E+01  0.64903961749E+01 -0.31642611746E+01  0.11891802440E+02  0.51100000000E-03 0.  1.
        -12    1    3    3    0    0 -0.22968993981E+02  0.19746020517E+02  0.34458144414E+01  0.30485302162E+02  0.00000000000E+00 0.  1.
</event>
<event>
 7    1  0.1736465E-010  0.4778727E+02  0.7816164E-02  0.1312668E+00
        -11   -1    0    0    0    0  0.00000000000E+00  0.00000000000E+00  0.45593999997E+02  0.45594000000E+02  0.51100000000E-03 0.  1.
         11   -1    0    0    0    0 -0.00000000000E+00 -0.00000000000E+00 -0.45593999997E+02  0.45594000000E+02  0.51100000000E-03 0. -1.
    9900012    2    1    2    0    0  0.23842133568E+02 -0.34272074233E+02  0.11857531004E+02  0.47787269052E+02  0.19999990915E+02 0.  0.
         12    1    1    2    0    0 -0.23842133568E+02  0.34272074233E+02 -0.11857531004E+02  0.43400730948E+02  0.00000000000E+00 0. -1.
         11    1    3    3    0    0  0.49312104588E+01 -0.16817673894E+02  0.15133729869E+01  0.17590943405E+02  0.51100000000E-03 0.  1.
        -11    1    3    3    0    0  0.57527369974E+01 -0.13090799609E+02  0.34290442720E+01  0.14704467425E+02  0.51100000000E-03 0. -1.
         12    1    3    3    0    0  0.13158186111E+02 -0.43636007302E+01  0.69151137455E+01  0.15491858223E+02  0.00000000000E+00 0. -1.
</event>
<event>
 7    1  0.1736465E-010  0.4778727E+02  0.7816164E-02  0.1312668E+00
        -11   -1    0    0    0    0  0.00000000000E+00  0.00000000000E+00  0.45593999997E+02  0.45594000000E+02  0.51100000000E-03 0.  1.
         11   -1    0    0    0    0 -0.00000000000E+00 -0.00000000000E+00 -0.45593999997E+02  0.45594000000E+02  0.51100000000E-03 0. -1.
    9900012    2    1    2    0    0  0.27463221413E+02  0.45781980776E+01  0.33293168052E+02  0.47787268820E+02  0.19999989857E+02 0.  0.
         12    1    1    2    0    0 -0.27463221413E+02 -0.45781980776E+01 -0.33293168052E+02  0.43400731180E+02  0.00000000000E+00 0. -1.
         11    1    3    3    0    0  0.38386985600E+01  0.45167907732E+01  0.28880320561E+01  0.65937648534E+01  0.51100000000E-03 0. -1.
        -11    1    3    3    0    0  0.96364149765E+01 -0.54544474222E+00  0.24961932265E+01  0.99694024120E+01  0.51100000000E-03 0.  1.
        -12    1    3    3    0    0  0.13988107876E+02  0.60685204660E+00  0.27908942770E+02  0.31224101555E+02  0.00000000000E+00 0.  1.
</event>
<event>
 7    1  0.1736465E-010  0.4778728E+02  0.7816164E-02  0.1312668E+00
        -11   -1    0    0    0    0  0.00000000000E+00  0.00000000000E+00  0.45593999997E+02  0.45594000000E+02  0.51100000000E-03 0.  1.
         11   -1    0    0    0    0 -0.00000000000E+00 -0.00000000000E+00 -0.45593999997E+02  0.45594000000E+02  0.51100000000E-03 0. -1.
    9900012    2    1    2    0    0  0.29072928453E+02 -0.46039795131E+01  0.31893429272E+02  0.47787278498E+02  0.20000033983E+02 0.  0.
         12    1    1    2    0    0 -0.29072928453E+02  0.46039795131E+01 -0.31893429272E+02  0.43400721502E+02  0.00000000000E+00 0. -1.
         11    1    3    3    0    0  0.21038411023E+00  0.65168301768E+00 -0.56851024554E-01  0.68715684490E+00  0.51100000000E-03 0. -1.
        -11    1    3    3    0    0  0.10251740196E+01  0.43416665321E+01  0.14142228250E+01  0.46798585990E+01  0.51100000000E-03 0.  1.
         12    1    3    3    0    0  0.27837370323E+02 -0.95973290630E+01  0.30536057472E+02  0.42420263054E+02  0.00000000000E+00 0. -1.
</event>
<event>
 7    1  0.1736465E-010  0.4778727E+02  0.7816164E-02  0.1312668E+00
        -11   -1    0    0    0    0  0.00000000000E+00  0.00000000000E+00  0.45593999997E+02  0.45594000000E+02  0.51100000000E-03 0.  1.
         11   -1    0    0    0    0 -0.00000000000E+00 -0.00000000000E+00 -0.45593999997E+02  0.45594000000E+02  0.51100000000E-03 0. -1.
    9900012    2    1    2    0    0 -0.16903101008E+02 -0.29028715055E+01  0.39868309263E+02  0.47787267631E+02  0.19999984437E+02 0.  0.
         12    1    1    2    0    0  0.16903101008E+02  0.29028715055E+01 -0.39868309263E+02  0.43400732369E+02  0.00000000000E+00 0. -1.
         11    1    3    3    0    0 -0.20221625941E+01 -0.36676291034E+01  0.15592574725E+01  0.44689964112E+01  0.51100000000E-03 0. -1.
        -11    1    3    3    0    0  0.44024331720E+00  0.16821553324E+01  0.16825892423E+02  0.16915499307E+02  0.51100000000E-03 0.  1.
         12    1    3    3    0    0 -0.15321181731E+02 -0.91739773454E+00  0.21483159368E+02  0.26402771912E+02  0.00000000000E+00 0. -1.
</event>
<event>
 7    1  0.1736465E-010  0.4778724E+02  0.7816164E-02  0.1312668E+00
        -11   -1    0    0    0    0  0.00000000000E+00  0.00000000000E+00  0.45593999997E+02  0.45594000000E+02  0.51100000000E-03 0.  1.
         11   -1    0    0    0    0 -0.00000000000E+00 -0.00000000000E+00 -0.45593999997E+02  0.45594000000E+02  0.51100000000E-03 0. -1.
    9900012    2    1    2    0    0 -0.27605884079E+02 -0.19374101033E+02  0.27316387817E+02  0.47787243440E+02  0.19999874138E+02 0.  0.
         12    1    1    2    0    0  0.27605884079E+02  0.19374101033E+02 -0.27316387817E+02  0.43400756560E+02  0.00000000000E+00 0. -1.
         11    1    3    3    0    0 -0.58919100185E+01 -0.10398817035E+02  0.17448645062E+02  0.21149591347E+02  0.51100000000E-03 0. -1.
        -11    1    3    3    0    0 -0.94412304379E+01 -0.34110630615E-01  0.50517146477E+01  0.10707839038E+02  0.51100000000E-03 0.  1.
        -12    1    3    3    0    0 -0.12272743622E+02 -0.89411733681E+01  0.48160281074E+01  0.15929813054E+02  0.00000000000E+00 0.  1.
</event>
<event>
 7    1  0.1736465E-010  0.4778727E+02  0.7816164E-02  0.1312668E+00
        -11   -1    0    0    0    0  0.00000000000E+00  0.00000000000E+00  0.45593999997E+02  0.45594000000E+02  0.51100000000E-03 0.  1.
         11   -1    0    0    0    0 -0.00000000000E+00 -0.00000000000E+00 -0.45593999997E+02  0.45594000000E+02  0.51100000000E-03 0. -1.
    9900012    2    1    2    0    0 -0.25864041133E+02 -0.32261909895E+02 -0.13184999850E+02  0.47787266425E+02  0.19999978938E+02 0.  0.
         12    1    1    2    0    0  0.25864041133E+02  0.32261909895E+02  0.13184999850E+02  0.43400733575E+02  0.00000000000E+00 0. -1.
         11    1    3    3    0    0 -0.17832724422E+02 -0.28419903080E+02 -0.13505680720E+02  0.36167670140E+02  0.51100000000E-03 0. -1.
        -11    1    3    3    0    0 -0.75778880043E+01 -0.28627505078E+01 -0.25986349170E+01  0.85072105164E+01  0.51100000000E-03 0.  1.
         12    1    3    3    0    0 -0.45342870634E+00 -0.97925630713E+00  0.29193157869E+01  0.31123857682E+01  0.00000000000E+00 0. -1.
</event>
<event>
 7    1  0.1736465E-010  0.4778727E+02  0.7816164E-02  0.1312668E+00
        -11   -1    0    0    0    0  0.00000000000E+00  0.00000000000E+00  0.45593999997E+02  0.45594000000E+02  0.51100000000E-03 0. -1.
         11   -1    0    0    0    0 -0.00000000000E+00 -0.00000000000E+00 -0.45593999997E+02  0.45594000000E+02  0.51100000000E-03 0.  1.
    9900012    2    1    2    0    0  0.89549480068E+01  0.37405960779E+02 -0.20105376512E+02  0.47787272353E+02  0.20000005965E+02 0.  0.
         12    1    1    2    0    0 -0.89549480068E+01 -0.37405960779E+02  0.20105376512E+02  0.43400727647E+02  0.00000000000E+00 0. -1.
         11    1    3    3    0    0 -0.16623692741E+01  0.10940421998E+02 -0.12216129341E+02  0.16483025251E+02  0.51100000000E-03 0. -1.
        -11    1    3    3    0    0  0.91991628290E+01  0.14021283054E+02 -0.84269459640E+01  0.18767908615E+02  0.51100000000E-03 0.  1.
        -12    1    3    3    0    0  0.14181544519E+01  0.12444255728E+02  0.53769879332E+00  0.12536338487E+02  0.00000000000E+00 0.  1.
</event>
<event>
 7    1  0.1736465E-010  0.4778727E+02  0.7816164E-02  0.1312668E+00
        -11   -1    0    0    0    0  0.00000000000E+00  0.00000000000E+00  0.45593999997E+02  0.45594000000E+02  0.51100000000E-03 0.  1.
         11   -1    0    0    0    0 -0.00000000000E+00 -0.00000000000E+00 -0.45593999997E+02  0.45594000000E+02  0.51100000000E-03 0. -1.
    9900012    2    1    2    0    0 -0.11758106476E+02 -0.34614994294E+02  0.23391717940E+02  0.47787269982E+02  0.19999995157E+02 0.  0.
         12    1    1    2    0    0  0.11758106476E+02  0.34614994294E+02 -0.23391717940E+02  0.43400730018E+02  0.00000000000E+00 0. -1.
         11    1    3    3    0    0 -0.10167980097E+02 -0.91626836124E+01  0.19036788090E+01  0.13819065941E+02  0.51100000000E-03 0. -1.
        -11    1    3    3    0    0 -0.36185000176E+01 -0.11027335874E+02  0.11249176401E+02  0.16162909664E+02  0.51100000000E-03 0.  1.
        -12    1    3    3    0    0  0.20283736380E+01 -0.14424974808E+02  0.10238862730E+02  0.17805294376E+02  0.00000000000E+00 0.  1.
</event>
<event>
 7    1  0.1736465E-010  0.4778727E+02  0.7816164E-02  0.1312668E+00
        -11   -1    0    0    0    0  0.00000000000E+00  0.00000000000E+00  0.45593999997E+02  0.45594000000E+02  0.51100000000E-03 0.  1.
         11   -1    0    0    0    0 -0.00000000000E+00 -0.00000000000E+00 -0.45593999997E+02  0.45594000000E+02  0.51100000000E-03 0. -1.
    9900012    2    1    2    0    0  0.18488101779E+02  0.11686127455E+02  0.37486638681E+02  0.47787267726E+02  0.19999984871E+02 0.  0.
         12    1    1    2    0    0 -0.18488101779E+02 -0.11686127455E+02 -0.37486638681E+02  0.43400732274E+02  0.00000000000E+00 0. -1.
         11    1    3    3    0    0  0.19520781202E+00 -0.28691647394E+00  0.41103685515E+01  0.41249917628E+01  0.51100000000E-03 0. -1.
        -11    1    3    3    0    0  0.20634182649E+02  0.12049360699E+02  0.33685151283E+02  0.41299467358E+02  0.51100000000E-03 0.  1.
         12    1    3    3    0    0 -0.23412886816E+01 -0.76316770299E-01 -0.30888115333E+00  0.23628086056E+01  0.00000000000E+00 0. -1.
</event>
<event>
 7    1  0.1736465E-010  0.4778727E+02  0.7816164E-02  0.1312668E+00
        -11   -1    0    0    0    0  0.00000000000E+00  0.00000000000E+00  0.45593999997E+02  0.45594000000E+02  0.51100000000E-03 0.  1.
         11   -1    0    0    0    0 -0.00000000000E+00 -0.00000000000E+00 -0.45593999997E+02  0.45594000000E+02  0.51100000000E-03 0. -1.
    9900012    2    1    2    0    0 -0.34527825571E+02  0.23420222053E+02  0.11955978526E+02  0.47787274635E+02  0.20000016371E+02 0.  0.
         12    1    1    2    0    0  0.34527825571E+02 -0.23420222053E+02 -0.11955978526E+02  0.43400725365E+02  0.00000000000E+00 0. -1.
         11    1    3    3    0    0 -0.46849018312E+01 -0.20479931092E+01  0.54745478583E+01  0.74908781499E+01  0.51100000000E-03 0. -1.
        -11    1    3    3    0    0 -0.89421790593E+01  0.10044500339E+02  0.47526783793E+01  0.14263327291E+02  0.51100000000E-03 0.  1.
         12    1    3    3    0    0 -0.20900744681E+02  0.15423714823E+02  0.17287522887E+01  0.26033069194E+02  0.00000000000E+00 0. -1.
</event>
<event>
 7    1  0.1736465E-010  0.4778727E+02  0.7816164E-02  0.1312668E+00
        -11   -1    0    0    0    0  0.00000000000E+00  0.00000000000E+00  0.45593999997E+02  0.45594000000E+02  0.51100000000E-03 0. -1.
         11   -1    0    0    0    0 -0.00000000000E+00 -0.00000000000E+00 -0.45593999997E+02  0.45594000000E+02  0.51100000000E-03 0.  1.
    9900012    2    1    2    0    0  0.24210086938E+01  0.60349448247E+01 -0.42910852832E+02  0.47787272669E+02  0.20000007407E+02 0.  0.
         12    1    1    2    0    0 -0.24210086938E+01 -0.60349448247E+01  0.42910852832E+02  0.43400727331E+02  0.00000000000E+00 0. -1.
         11    1    3    3    0    0  0.33562374189E+00  0.72691325495E+01 -0.50721487697E+01  0.88701535907E+01  0.51100000000E-03 0. -1.
        -11    1    3    3    0    0 -0.26695440698E+01 -0.29878327751E+01 -0.15334018833E+02  0.15848840465E+02  0.51100000000E-03 0.  1.
        -12    1    3    3    0    0  0.47549290217E+01  0.17536450503E+01 -0.22504685229E+02  0.23068278614E+02  0.00000000000E+00 0.  1.
</event>
<event>
 7    1  0.1736465E-010  0.4778727E+02  0.7816164E-02  0.1312668E+00
        -11   -1    0    0    0    0  0.00000000000E+00  0.00000000000E+00  0.45593999997E+02  0.45594000000E+02  0.51100000000E-03 0.  1.
         11   -1    0    0    0    0 -0.00000000000E+00 -0.00000000000E+00 -0.45593999997E+02  0.45594000000E+02  0.51100000000E-03 0. -1.
    9900012    2    1    2    0    0  0.14917336861E+02  0.39727200469E+02  0.91019847131E+01  0.47787268187E+02  0.19999986974E+02 0.  0.
         12    1    1    2    0    0 -0.14917336861E+02 -0.39727200469E+02 -0.91019847131E+01  0.43400731813E+02  0.00000000000E+00 0. -1.
         11    1    3    3    0    0  0.32268405317E+00 -0.20310052238E+01  0.69334543504E+00  0.21702155125E+01  0.51100000000E-03 0. -1.
        -11    1    3    3    0    0  0.90627528818E+01  0.17489077219E+02  0.13499799874E+01  0.19743954973E+02  0.51100000000E-03 0.  1.
         12    1    3    3    0    0  0.55318999263E+01  0.24269128474E+02  0.70586592906E+01  0.25873097702E+02  0.00000000000E+00 0. -1.
</event>
<event>
 7    1  0.1736465E-010  0.4778727E+02  0.7816164E-02  0.1312668E+00
        -11   -1    0    0    0    0  0.00000000000E+00  0.00000000000E+00  0.45593999997E+02  0.45594000000E+02  0.51100000000E-03 0. -1.
         11   -1    0    0    0    0 -0.00000000000E+00 -0.00000000000E+00 -0.45593999997E+02  0.45594000000E+02  0.51100000000E-03 0.  1.
    9900012    2    1    2    0    0  0.32459886924E+02 -0.98779598282E+01 -0.27062981288E+02  0.47787270678E+02  0.19999998329E+02 0.  0.
         12    1    1    2    0    0 -0.32459886924E+02  0.98779598282E+01  0.27062981288E+02  0.43400729322E+02  0.00000000000E+00 0. -1.
         11    1    3    3    0    0  0.38134722081E+01  0.16812205921E+01 -0.60839409311E+01  0.73745108635E+01  0.51100000000E-03 0. -1.
        -11    1    3    3    0    0  0.82849108849E+01 -0.82963296029E+01 -0.11104907009E+01  0.11777182308E+02  0.51100000000E-03 0.  1.
        -12    1    3    3    0    0  0.20361503831E+02 -0.32628508175E+01 -0.19868549656E+02  0.28635577507E+02  0.00000000000E+00 0.  1.
</event>
<event>
 7    1  0.1906560E-010  0.4778727E+02  0.7816164E-02  0.1312668E+00
        -11   -1    0    0    0    0  0.00000000000E+00  0.00000000000E+00  0.45593999997E+02  0.45594000000E+02  0.51100000000E-03 0.  1.
         11   -1    0    0    0    0 -0.00000000000E+00 -0.00000000000E+00 -0.45593999997E+02  0.45594000000E+02  0.51100000000E-03 0. -1.
    9900012    2    1    2    0    0 -0.49138897427E+01  0.35664919616E+02  0.24238212238E+02  0.47787265720E+02  0.19999975722E+02 0.  0.
         12    1    1    2    0    0  0.49138897427E+01 -0.35664919616E+02 -0.24238212238E+02  0.43400734280E+02  0.00000000000E+00 0. -1.
         11    1    3    3    0    0 -0.48087520948E+01  0.29635592396E+01  0.49003759235E+01  0.74779986981E+01  0.51100000000E-03 0. -1.
        -11    1    3    3    0    0 -0.30795704566E+00  0.14745187271E+02  0.12180069756E+01  0.14798612315E+02  0.51100000000E-03 0.  1.
        -12    1    3    3    0    0  0.20281939775E+00  0.17956173105E+02  0.18119829339E+02  0.25510654706E+02  0.00000000000E+00 0.  1.
</event>
<event>
 7    1  0.1736465E-010  0.4778728E+02  0.7816164E-02  0.1312668E+00
        -11   -1    0    0    0    0  0.00000000000E+00  0.00000000000E+00  0.45593999997E+02  0.45594000000E+02  0.51100000000E-03 0.  1.
         11   -1    0    0    0    0 -0.00000000000E+00 -0.00000000000E+00 -0.45593999997E+02  0.45594000000E+02  0.51100000000E-03 0. -1.
    9900012    2    1    2    0    0  0.20732331391E+02  0.21942412664E+02  0.31182103339E+02  0.47787278726E+02  0.20000035025E+02 0.  0.
         12    1    1    2    0    0 -0.20732331391E+02 -0.21942412664E+02 -0.31182103339E+02  0.43400721274E+02  0.00000000000E+00 0. -1.
         11    1    3    3    0    0  0.42320043335E+01  0.36579993195E+01  0.13976440445E+02  0.15054291995E+02  0.51100000000E-03 0. -1.
        -11    1    3    3    0    0  0.21453708647E+01  0.11341723763E+02  0.46781512373E+01  0.12454814865E+02  0.51100000000E-03 0.  1.
        -12    1    3    3    0    0  0.14354956193E+02  0.69426895811E+01  0.12527511657E+02  0.20278171866E+02  0.00000000000E+00 0.  1.
</event>
<event>
 7    1  0.1736465E-010  0.4778726E+02  0.7816164E-02  0.1312668E+00
        -11   -1    0    0    0    0  0.00000000000E+00  0.00000000000E+00  0.45593999997E+02  0.45594000000E+02  0.51100000000E-03 0.  1.
         11   -1    0    0    0    0 -0.00000000000E+00 -0.00000000000E+00 -0.45593999997E+02  0.45594000000E+02  0.51100000000E-03 0. -1.
    9900012    2    1    2    0    0 -0.37975617838E+02 -0.20785458919E+02 -0.30726789826E+01  0.47787260273E+02  0.19999950890E+02 0.  0.
         12    1    1    2    0    0  0.37975617838E+02  0.20785458919E+02  0.30726789826E+01  0.43400739727E+02  0.00000000000E+00 0. -1.
         11    1    3    3    0    0 -0.50189604477E+01  0.23094488282E+01 -0.47171238541E+01  0.72646249444E+01  0.51100000000E-03 0. -1.
        -11    1    3    3    0    0 -0.19168409575E+02 -0.12232903681E+02 -0.10542577426E+01  0.22763640257E+02  0.51100000000E-03 0.  1.
        -12    1    3    3    0    0 -0.13788247816E+02 -0.10862004066E+02  0.26987026142E+01  0.17758995072E+02  0.00000000000E+00 0.  1.
</event>
<event>
 7    1  0.1736465E-010  0.4778733E+02  0.7816164E-02  0.1312668E+00
        -11   -1    0    0    0    0  0.00000000000E+00  0.00000000000E+00  0.45593999997E+02  0.45594000000E+02  0.51100000000E-03 0.  1.
         11   -1    0    0    0    0 -0.00000000000E+00 -0.00000000000E+00 -0.45593999997E+02  0.45594000000E+02  0.51100000000E-03 0. -1.
    9900012    2    1    2    0    0  0.11486284605E+02 -0.17815416312E+02  0.37872081336E+02  0.47787327919E+02  0.20000259310E+02 0.  0.
         12    1    1    2    0    0 -0.11486284605E+02  0.17815416312E+02 -0.37872081336E+02  0.43400672081E+02  0.00000000000E+00 0. -1.
         11    1    3    3    0    0 -0.32854394607E+00 -0.14657207064E+02  0.14092341235E+02  0.20335578226E+02  0.51100000000E-03 0. -1.
        -11    1    3    3    0    0  0.56673858240E+01 -0.41797297871E+01  0.16020253451E+02  0.17499654970E+02  0.51100000000E-03 0.  1.
         12    1    3    3    0    0  0.61474427269E+01  0.10215205397E+01  0.77594866502E+01  0.99520947226E+01  0.00000000000E+00 0. -1.
</event>
<event>
 7    1  0.1736465E-010  0.4778722E+02  0.7816164E-02  0.1312668E+00
        -11   -1    0    0    0    0  0.00000000000E+00  0.00000000000E+00  0.45593999997E+02  0.45594000000E+02  0.51100000000E-03 0.  1.
         11   -1    0    0    0    0 -0.00000000000E+00 -0.00000000000E+00 -0.45593999997E+02  0.45594000000E+02  0.51100000000E-03 0. -1.
    9900012    2    1    2    0    0  0.37359614117E+02  0.20307589962E+02  0.86884094550E+01  0.47787223095E+02  0.19999781380E+02 0.  0.
         12    1    1    2    0    0 -0.37359614117E+02 -0.20307589962E+02 -0.86884094550E+01  0.43400776905E+02  0.00000000000E+00 0. -1.
         11    1    3    3    0    0 -0.98451037933E-01  0.34895830237E+01  0.17589912457E+01  0.39090833644E+01  0.51100000000E-03 0. -1.
        -11    1    3    3    0    0  0.16520100536E+02  0.76319896866E+00 -0.22990667219E+00  0.16539318357E+02  0.51100000000E-03 0.  1.
         12    1    3    3    0    0  0.20937964620E+02  0.16054807970E+02  0.71593248815E+01  0.27338821374E+02  0.00000000000E+00 0. -1.
</event>
<event>
 7    1  0.1736465E-010  0.4778727E+02  0.7816164E-02  0.1312668E+00
        -11   -1    0    0    0    0  0.00000000000E+00  0.00000000000E+00  0.45593999997E+02  0.45594000000E+02  0.51100000000E-03 0.  1.
         11   -1    0    0    0    0 -0.00000000000E+00 -0.00000000000E+00 -0.45593999997E+02  0.45594000000E+02  0.51100000000E-03 0. -1.
    9900012    2    1    2    0    0 -0.70058914392E+01 -0.39533529319E+02 -0.16481526242E+02  0.47787272327E+02  0.20000005846E+02 0.  0.
         12    1    1    2    0    0  0.70058914392E+01  0.39533529319E+02  0.16481526242E+02  0.43400727673E+02  0.00000000000E+00 0. -1.
         11    1    3    3    0    0 -0.10216827654E+01 -0.22760063243E+01  0.17574709595E+01  0.30516790290E+01  0.51100000000E-03 0. -1.
        -11    1    3    3    0    0 -0.22929713471E+00 -0.17597724276E+02 -0.45012887717E+00  0.17604973534E+02  0.51100000000E-03 0.  1.
        -12    1    3    3    0    0 -0.57549115391E+01 -0.19659798719E+02 -0.17788868324E+02  0.27130619764E+02  0.00000000000E+00 0.  1.
</event>
<event>
 7    1  0.1736465E-010  0.4778727E+02  0.7816164E-02  0.1312668E+00
        -11   -1    0    0    0    0  0.00000000000E+00  0.00000000000E+00  0.45593999997E+02  0.45594000000E+02  0.51100000000E-03 0.  1.
         11   -1    0    0    0    0 -0.00000000000E+00 -0.00000000000E+00 -0.45593999997E+02  0.45594000000E+02  0.51100000000E-03 0. -1.
    9900012    2    1    2    0    0  0.28193979855E+02  0.14688226096E+02  0.29546212417E+02  0.47787272424E+02  0.20000006292E+02 0.  0.
         12    1    1    2    0    0 -0.28193979855E+02 -0.14688226096E+02 -0.29546212417E+02  0.43400727576E+02  0.00000000000E+00 0. -1.
         11    1    3    3    0    0  0.34583074715E+00 -0.22563294057E+01  0.38614331147E+01  0.44856757855E+01  0.51100000000E-03 0. -1.
        -11    1    3    3    0    0  0.16031108702E+02  0.12103849916E+02  0.22456826134E+02  0.30129863413E+02  0.51100000000E-03 0.  1.
        -12    1    3    3    0    0  0.11817040406E+02  0.48407055859E+01  0.32279531679E+01  0.13171733226E+02  0.00000000000E+00 0.  1.
</event>
<event>
 7    1  0.1736465E-010  0.4778727E+02  0.7816164E-02  0.1312668E+00
        -11   -1    0    0    0    0  0.00000000000E+00  0.00000000000E+00  0.45593999997E+02  0.45594000000E+02  0.51100000000E-03 0.  1.
         11   -1    0    0    0    0 -0.00000000000E+00 -0.00000000000E+00 -0.45593999997E+02  0.45594000000E+02  0.51100000000E-03 0. -1.
    9900012    2    1    2    0    0 -0.39530709105E+02  0.35316650659E+01  0.17563422986E+02  0.47787269045E+02  0.19999990883E+02 0.  0.
         12    1    1    2    0    0  0.39530709105E+02 -0.35316650659E+01 -0.17563422986E+02  0.43400730955E+02  0.00000000000E+00 0. -1.
         11    1    3    3    0    0 -0.92130476378E+01  0.44864853284E+01  0.98447696466E+01  0.14210147326E+02  0.51100000000E-03 0. -1.
        -11    1    3    3    0    0 -0.16827304066E+02 -0.50961632101E+01  0.83228546257E+01  0.19452479302E+02  0.51100000000E-03 0.  1.
        -12    1    3    3    0    0 -0.13490357401E+02  0.41413429476E+01 -0.60420128642E+00  0.14124642417E+02  0.00000000000E+00 0.  1.
</event>
<event>
 7    1  0.1736465E-010  0.4778727E+02  0.7816164E-02  0.1312668E+00
        -11   -1    0    0    0    0  0.00000000000E+00  0.00000000000E+00  0.45593999997E+02  0.45594000000E+02  0.51100000000E-03 0. -1.
         11   -1    0    0    0    0 -0.00000000000E+00 -0.00000000000E+00 -0.45593999997E+02  0.45594000000E+02  0.51100000000E-03 0.  1.
    9900012    2    1    2    0    0 -0.24349068371E+02 -0.11521461106E+02 -0.34029431560E+02  0.47787269490E+02  0.19999992912E+02 0.  0.
         12    1    1    2    0    0  0.24349068371E+02  0.11521461106E+02  0.34029431560E+02  0.43400730510E+02  0.00000000000E+00 0. -1.
         11    1    3    3    0    0  0.78714238273E-01 -0.53621206833E+01 -0.12729838748E+02  0.13813302609E+02  0.51100000000E-03 0. -1.
        -11    1    3    3    0    0 -0.58200063593E+01 -0.19084185897E+01 -0.11735675012E+01  0.62363287660E+01  0.51100000000E-03 0.  1.
        -12    1    3    3    0    0 -0.18607776250E+02 -0.42509218328E+01 -0.20126025310E+02  0.27737638115E+02  0.00000000000E+00 0.  1.
</event>
<event>
 7    1  0.1736465E-010  0.4778727E+02  0.7816164E-02  0.1312668E+00
        -11   -1    0    0    0    0  0.00000000000E+00  0.00000000000E+00  0.45593999997E+02  0.45594000000E+02  0.51100000000E-03 0. -1.
         11   -1    0    0    0    0 -0.00000000000E+00 -0.00000000000E+00 -0.45593999997E+02  0.45594000000E+02  0.51100000000E-03 0.  1.
    9900012    2    1    2    0    0  0.22711027210E+02 -0.29382264446E+02 -0.22461407547E+02  0.47787273625E+02  0.20000011765E+02 0.  0.
         12    1    1    2    0    0 -0.22711027210E+02  0.29382264446E+02  0.22461407547E+02  0.43400726375E+02  0.00000000000E+00 0. -1.
         11    1    3    3    0    0  0.36570216012E+01  0.22993150775E+01 -0.52681628557E+00  0.43518033592E+01  0.51100000000E-03 0. -1.
        -11    1    3    3    0    0  0.97420411837E+01 -0.10610718314E+02 -0.95223637453E+01  0.17267603225E+02  0.51100000000E-03 0.  1.
         12    1    3    3    0    0  0.93119644247E+01 -0.21070861210E+02 -0.12412227516E+02  0.26167867041E+02  0.00000000000E+00 0. -1.
</event>
<event>
 7    1  0.1736465E-010  0.4778727E+02  0.7816164E-02  0.1312668E+00
        -11   -1    0    0    0    0  0.00000000000E+00  0.00000000000E+00  0.45593999997E+02  0.45594000000E+02  0.51100000000E-03 0. -1.
         11   -1    0    0    0    0 -0.00000000000E+00 -0.00000000000E+00 -0.45593999997E+02  0.45594000000E+02  0.51100000000E-03 0.  1.
    9900012    2    1    2    0    0  0.29792256119E+02 -0.31526651153E+02 -0.14544506233E+01  0.47787266318E+02  0.19999978449E+02 0.  0.
         12    1    1    2    0    0 -0.29792256119E+02  0.31526651153E+02  0.14544506233E+01  0.43400733682E+02  0.00000000000E+00 0. -1.
         11    1    3    3    0    0  0.17479274683E+02 -0.10947726641E+02 -0.43435177712E+01  0.21077094414E+02  0.51100000000E-03 0. -1.
        -11    1    3    3    0    0 -0.15590927761E+01 -0.52030073955E+01 -0.12929580302E+01  0.55833499775E+01  0.51100000000E-03 0.  1.
         12    1    3    3    0    0  0.13872074212E+02 -0.15375917117E+02  0.41820251781E+01  0.21126821926E+02  0.00000000000E+00 0. -1.
</event>
<event>
 7    1  0.1736465E-010  0.4778727E+02  0.7816164E-02  0.1312668E+00
        -11   -1    0    0    0    0  0.00000000000E+00  0.00000000000E+00  0.45593999997E+02  0.45594000000E+02  0.51100000000E-03 0.  1.
         11   -1    0    0    0    0 -0.00000000000E+00 -0.00000000000E+00 -0.45593999997E+02  0.45594000000E+02  0.51100000000E-03 0. -1.
    9900012    2    1    2    0    0 -0.32451883677E+02  0.15055045101E+02  0.24573239792E+02  0.47787271308E+02  0.20000001200E+02 0.  0.
         12    1    1    2    0    0  0.32451883677E+02 -0.15055045101E+02 -0.24573239792E+02  0.43400728692E+02  0.00000000000E+00 0. -1.
         11    1    3    3    0    0  0.66846203446E+00  0.27030384656E+01  0.28289024898E+01  0.39693762729E+01  0.51100000000E-03 0. -1.
        -11    1    3    3    0    0 -0.16501901301E+02 -0.12062666968E+01  0.10569189316E+02  0.19633532259E+02  0.51100000000E-03 0.  1.
        -12    1    3    3    0    0 -0.16618444410E+02  0.13558273333E+02  0.11175147985E+02  0.24184362776E+02  0.00000000000E+00 0.  1.
</event>
<event>
 7    1  0.1736465E-010  0.4778727E+02  0.7816164E-02  0.1312668E+00
        -11   -1    0    0    0    0  0.00000000000E+00  0.00000000000E+00  0.45593999997E+02  0.45594000000E+02  0.51100000000E-03 0.  1.
         11   -1    0    0    0    0 -0.00000000000E+00 -0.00000000000E+00 -0.45593999997E+02  0.45594000000E+02  0.51100000000E-03 0. -1.
    9900012    2    1    2    0    0  0.63325970713E+01  0.33285265176E+02  0.27122173829E+02  0.47787274468E+02  0.20000015609E+02 0.  0.
         12    1    1    2    0    0 -0.63325970713E+01 -0.33285265176E+02 -0.27122173829E+02  0.43400725532E+02  0.00000000000E+00 0. -1.
         11    1    3    3    0    0 -0.15153620256E+01  0.13144872079E+02  0.32500609941E+01  0.13625229567E+02  0.51100000000E-03 0. -1.
        -11    1    3    3    0    0  0.39249152296E+01  0.13844283792E+00  0.26562555558E+01  0.47412888351E+01  0.51100000000E-03 0.  1.
        -12    1    3    3    0    0  0.39230438673E+01  0.20001950259E+02  0.21215857279E+02  0.29420756065E+02  0.00000000000E+00 0.  1.
</event>
<event>
 7    1  0.1736465E-010  0.4778727E+02  0.7816164E-02  0.1312668E+00
        -11   -1    0    0    0    0  0.00000000000E+00  0.00000000000E+00  0.45593999997E+02  0.45594000000E+02  0.51100000000E-03 0. -1.
         11   -1    0    0    0    0 -0.00000000000E+00 -0.00000000000E+00 -0.45593999997E+02  0.45594000000E+02  0.51100000000E-03 0.  1.
    9900012    2    1    2    0    0  0.27264402522E+02  0.60105712727E+01 -0.33228739459E+02  0.47787265698E+02  0.19999975624E+02 0.  0.
         12    1    1    2    0    0 -0.27264402522E+02 -0.60105712727E+01  0.33228739459E+02  0.43400734302E+02  0.00000000000E+00 0. -1.
         11    1    3    3    0    0  0.10047979758E+02  0.57851155177E+01 -0.68416337974E+01  0.13462444505E+02  0.51100000000E-03 0. -1.
        -11    1    3    3    0    0  0.97468422837E+01  0.20849400706E+01 -0.24425995862E+02  0.26381379488E+02  0.51100000000E-03 0.  1.
         12    1    3    3    0    0  0.74695804799E+01 -0.18594843156E+01 -0.19611097999E+01  0.79434417045E+01  0.00000000000E+00 0. -1.
</event>
<event>
 7    1  0.1736465E-010  0.4778729E+02  0.7816164E-02  0.1312668E+00
        -11   -1    0    0    0    0  0.00000000000E+00  0.00000000000E+00  0.45593999997E+02  0.45594000000E+02  0.51100000000E-03 0.  1.
         11   -1    0    0    0    0 -0.00000000000E+00 -0.00000000000E+00 -0.45593999997E+02  0.45594000000E+02  0.51100000000E-03 0. -1.
    9900012    2    1    2    0    0  0.23178681712E+02  0.22964809169E+02  0.28617971720E+02  0.47787285127E+02  0.20000064209E+02 0.  0.
         12    1    1    2    0    0 -0.23178681712E+02 -0.22964809169E+02 -0.28617971720E+02  0.43400714873E+02  0.00000000000E+00 0. -1.
         11    1    3    3    0    0  0.35570382186E+00  0.27117459202E+01  0.36251844964E-01  0.27352158237E+01  0.51100000000E-03 0. -1.
        -11    1    3    3    0    0  0.87723816571E+01  0.58584028750E+00  0.17967602868E+01  0.89736412102E+01  0.51100000000E-03 0.  1.
         12    1    3    3    0    0  0.14050596233E+02  0.19667222962E+02  0.26784959589E+02  0.36078428093E+02  0.00000000000E+00 0. -1.
</event>
<event>
 7    1  0.1736465E-010  0.4778727E+02  0.7816164E-02  0.1312668E+00
        -11   -1    0    0    0    0  0.00000000000E+00  0.00000000000E+00  0.45593999997E+02  0.45594000000E+02  0.51100000000E-03 0.  1.
         11   -1    0    0    0    0 -0.00000000000E+00 -0.00000000000E+00 -0.45593999997E+02  0.45594000000E+02  0.51100000000E-03 0. -1.
    9900012    2    1    2    0    0 -0.23322812250E+02 -0.80609804481E+01  0.35702806159E+02  0.47787270229E+02  0.19999996282E+02 0.  0.
         12    1    1    2    0    0  0.23322812250E+02  0.80609804481E+01 -0.35702806159E+02  0.43400729771E+02  0.00000000000E+00 0. -1.
         11    1    3    3    0    0 -0.81593073961E+00 -0.64198092131E+01  0.63433089961E+01  0.90618575681E+01  0.51100000000E-03 0. -1.
        -11    1    3    3    0    0 -0.15158266894E+02 -0.17368813293E+01  0.10601388835E+02  0.18579000444E+02  0.51100000000E-03 0.  1.
         12    1    3    3    0    0 -0.73486146169E+01  0.95710094198E-01  0.18758108327E+02  0.20146412217E+02  0.00000000000E+00 0. -1.
</event>
<event>
 7    1  0.1736465E-010  0.4778727E+02  0.7816164E-02  0.1312668E+00
        -11   -1    0    0    0    0  0.00000000000E+00  0.00000000000E+00  0.45593999997E+02  0.45594000000E+02  0.51100000000E-03 0. -1.
         11   -1    0    0    0    0 -0.00000000000E+00 -0.00000000000E+00 -0.45593999997E+02  0.45594000000E+02  0.51100000000E-03 0.  1.
    9900012    2    1    2    0    0 -0.14816150003E+02  0.29867671794E+02 -0.27785376673E+02  0.47787271018E+02  0.19999999878E+02 0.  0.
         12    1    1    2    0    0  0.14816150003E+02 -0.29867671794E+02  0.27785376673E+02  0.43400728982E+02  0.00000000000E+00 0. -1.
         11    1    3    3    0    0 -0.71511877821E+01  0.55326893368E+01 -0.99438537092E+01  0.13439879644E+02  0.51100000000E-03 0. -1.
        -11    1    3    3    0    0 -0.72802895275E+01  0.10986175371E+02 -0.16213142709E+02  0.20894129837E+02  0.51100000000E-03 0.  1.
         12    1    3    3    0    0 -0.38467269347E+00  0.13348807087E+02 -0.16283802553E+01  0.13453261537E+02  0.00000000000E+00 0. -1.
</event>
<event>
 7    1  0.1736465E-010  0.4778727E+02  0.7816164E-02  0.1312668E+00
        -11   -1    0    0    0    0  0.00000000000E+00  0.00000000000E+00  0.45593999997E+02  0.45594000000E+02  0.51100000000E-03 0.  1.
         11   -1    0    0    0    0 -0.00000000000E+00 -0.00000000000E+00 -0.45593999997E+02  0.45594000000E+02  0.51100000000E-03 0. -1.
    9900012    2    1    2    0    0  0.11765073801E+02 -0.39796587604E+02  0.12705819668E+02  0.47787271897E+02  0.20000003885E+02 0.  0.
         12    1    1    2    0    0 -0.11765073801E+02  0.39796587604E+02 -0.12705819668E+02  0.43400728103E+02  0.00000000000E+00 0. -1.
         11    1    3    3    0    0 -0.75167595026E+00 -0.80282071884E+01  0.12378617124E+01  0.81577833554E+01  0.51100000000E-03 0. -1.
        -11    1    3    3    0    0  0.40167477466E+01 -0.28521791661E+02  0.94025912526E+01  0.30299102041E+02  0.51100000000E-03 0.  1.
         12    1    3    3    0    0  0.85000020042E+01 -0.32465887552E+01  0.20653667029E+01  0.93303864998E+01  0.00000000000E+00 0. -1.
</event>
<event>
 7    1  0.1736465E-010  0.4778727E+02  0.7816164E-02  0.1312668E+00
        -11   -1    0    0    0    0  0.00000000000E+00  0.00000000000E+00  0.45593999997E+02  0.45594000000E+02  0.51100000000E-03 0. -1.
         11   -1    0    0    0    0 -0.00000000000E+00 -0.00000000000E+00 -0.45593999997E+02  0.45594000000E+02  0.51100000000E-03 0.  1.
    9900012    2    1    2    0    0 -0.37318582193E+02  0.18729597685E+02 -0.11838453448E+02  0.47787269748E+02  0.19999994091E+02 0.  0.
         12    1    1    2    0    0  0.37318582193E+02 -0.18729597685E+02  0.11838453448E+02  0.43400730252E+02  0.00000000000E+00 0. -1.
         11    1    3    3    0    0 -0.79003936586E+01  0.92358331682E+01  0.26152747538E+01  0.12432075312E+02  0.51100000000E-03 0. -1.
        -11    1    3    3    0    0 -0.19199636413E+02  0.10515456974E+02 -0.84880820370E+01  0.23478679918E+02  0.51100000000E-03 0.  1.
         12    1    3    3    0    0 -0.10218552122E+02 -0.10216924574E+01 -0.59656461648E+01  0.11876514518E+02  0.00000000000E+00 0. -1.
</event>
<event>
 7    1  0.1736465E-010  0.4778727E+02  0.7816164E-02  0.1312668E+00
        -11   -1    0    0    0    0  0.00000000000E+00  0.00000000000E+00  0.45593999997E+02  0.45594000000E+02  0.51100000000E-03 0.  1.
         11   -1    0    0    0    0 -0.00000000000E+00 -0.00000000000E+00 -0.45593999997E+02  0.45594000000E+02  0.51100000000E-03 0. -1.
    9900012    2    1    2    0    0 -0.26086246842E+02 -0.29442847671E+02  0.18337111624E+02  0.47787271711E+02  0.20000003041E+02 0.  0.
         12    1    1    2    0    0  0.26086246842E+02  0.29442847671E+02 -0.18337111624E+02  0.43400728289E+02  0.00000000000E+00 0. -1.
         11    1    3    3    0    0 -0.17958212540E+01 -0.85059858249E+00 -0.34776818716E+01  0.40053418563E+01  0.51100000000E-03 0. -1.
        -11    1    3    3    0    0 -0.11940304123E+02 -0.10228516930E+02  0.74493584200E+01  0.17397883845E+02  0.51100000000E-03 0.  1.
         12    1    3    3    0    0 -0.12350121465E+02 -0.18363732158E+02  0.14365435075E+02  0.26384046010E+02  0.00000000000E+00 0. -1.
</event>
<event>
 7    1  0.1736465E-010  0.4778727E+02  0.7816164E-02  0.1312668E+00
        -11   -1    0    0    0    0  0.00000000000E+00  0.00000000000E+00  0.45593999997E+02  0.45594000000E+02  0.51100000000E-03 0.  1.
         11   -1    0    0    0    0 -0.00000000000E+00 -0.00000000000E+00 -0.45593999997E+02  0.45594000000E+02  0.51100000000E-03 0. -1.
    9900012    2    1    2    0    0  0.65227055064E+01  0.40446794955E+02  0.14322518797E+02  0.47787268970E+02  0.19999990543E+02 0.  0.
         12    1    1    2    0    0 -0.65227055064E+01 -0.40446794955E+02 -0.14322518797E+02  0.43400731030E+02  0.00000000000E+00 0. -1.
         11    1    3    3    0    0  0.25617548826E+01  0.26679456467E+01 -0.27192171397E+01  0.45907149951E+01  0.51100000000E-03 0. -1.
        -11    1    3    3    0    0  0.86770306935E+00  0.21760456065E+01  0.49380582590E+01  0.54655743275E+01  0.51100000000E-03 0.  1.
        -12    1    3    3    0    0  0.30932475544E+01  0.35602803702E+02  0.12103677677E+02  0.37730979648E+02  0.00000000000E+00 0.  1.
</event>
<event>
 7    1  0.1736465E-010  0.4778727E+02  0.7816164E-02  0.1312668E+00
        -11   -1    0    0    0    0  0.00000000000E+00  0.00000000000E+00  0.45593999997E+02  0.45594000000E+02  0.51100000000E-03 0.  1.
         11   -1    0    0    0    0 -0.00000000000E+00 -0.00000000000E+00 -0.45593999997E+02  0.45594000000E+02  0.51100000000E-03 0. -1.
    9900012    2    1    2    0    0 -0.20384916160E+02 -0.64178789991E+01  0.37774190263E+02  0.47787269273E+02  0.19999991922E+02 0.  0.
         12    1    1    2    0    0  0.20384916160E+02  0.64178789991E+01 -0.37774190263E+02  0.43400730727E+02  0.00000000000E+00 0. -1.
         11    1    3    3    0    0 -0.21267509212E+01 -0.84578058095E+01  0.54157515841E+01  0.10265861585E+02  0.51100000000E-03 0. -1.
        -11    1    3    3    0    0 -0.58003421212E+01  0.15623636401E+01  0.67262448498E+01  0.90181660501E+01  0.51100000000E-03 0.  1.
         12    1    3    3    0    0 -0.12457823117E+02  0.47756317030E+00  0.25632193829E+02  0.28503241638E+02  0.00000000000E+00 0. -1.
</event>
<event>
 7    1  0.1736465E-010  0.4778726E+02  0.7816164E-02  0.1312668E+00
        -11   -1    0    0    0    0  0.00000000000E+00  0.00000000000E+00  0.45593999997E+02  0.45594000000E+02  0.51100000000E-03 0.  1.
         11   -1    0    0    0    0 -0.00000000000E+00 -0.00000000000E+00 -0.45593999997E+02  0.45594000000E+02  0.51100000000E-03 0. -1.
    9900012    2    1    2    0    0 -0.10743295364E+02 -0.16161173491E+02  0.38820382464E+02  0.47787262466E+02  0.19999960887E+02 0.  0.
         12    1    1    2    0    0  0.10743295364E+02  0.16161173491E+02 -0.38820382464E+02  0.43400737534E+02  0.00000000000E+00 0. -1.
         11    1    3    3    0    0 -0.99419464231E+01 -0.10255504486E+02  0.10570102585E+02  0.17769207632E+02  0.51100000000E-03 0. -1.
        -11    1    3    3    0    0 -0.34813364204E+00 -0.72250883333E+01  0.14569507569E+02  0.16266334852E+02  0.51100000000E-03 0.  1.
        -12    1    3    3    0    0 -0.45321529870E+00  0.13194193283E+01  0.13680772310E+02  0.13751719982E+02  0.00000000000E+00 0.  1.
</event>
<event>
 7    1  0.1736465E-010  0.4778727E+02  0.7816164E-02  0.1312668E+00
        -11   -1    0    0    0    0  0.00000000000E+00  0.00000000000E+00  0.45593999997E+02  0.45594000000E+02  0.51100000000E-03 0. -1.
         11   -1    0    0    0    0 -0.00000000000E+00 -0.00000000000E+00 -0.45593999997E+02  0.45594000000E+02  0.51100000000E-03 0.  1.
    9900012    2    1    2    0    0  0.18034154945E+02  0.27795329883E+02 -0.28032341665E+02  0.47787270892E+02  0.19999999307E+02 0.  0.
         12    1    1    2    0    0 -0.18034154945E+02 -0.27795329883E+02  0.28032341665E+02  0.43400729108E+02  0.00000000000E+00 0. -1.
         11    1    3    3    0    0  0.86692043742E+01  0.15330697309E+02 -0.19028043676E+02  0.25927819632E+02  0.51100000000E-03 0. -1.
        -11    1    3    3    0    0  0.81735281960E+01  0.13161238521E+02 -0.31049366355E+01  0.15800803598E+02  0.51100000000E-03 0.  1.
         12    1    3    3    0    0  0.11914223746E+01 -0.69660594719E+00 -0.58993613532E+01  0.60586476623E+01  0.00000000000E+00 0. -1.
</event>
<event>
 7    1  0.1736465E-010  0.4778727E+02  0.7816164E-02  0.1312668E+00
        -11   -1    0    0    0    0  0.00000000000E+00  0.00000000000E+00  0.45593999997E+02  0.45594000000E+02  0.51100000000E-03 0.  1.
         11   -1    0    0    0    0 -0.00000000000E+00 -0.00000000000E+00 -0.45593999997E+02  0.45594000000E+02  0.51100000000E-03 0. -1.
    9900012    2    1    2    0    0  0.38726591398E+01  0.14121850856E+02  0.40855834081E+02  0.47787270295E+02  0.19999996585E+02 0.  0.
         12    1    1    2    0    0 -0.38726591398E+01 -0.14121850856E+02 -0.40855834081E+02  0.43400729705E+02  0.00000000000E+00 0. -1.
         11    1    3    3    0    0  0.63585034868E+01  0.44717098378E-01  0.17616462967E+02  0.18728917052E+02  0.51100000000E-03 0. -1.
        -11    1    3    3    0    0  0.38908372781E+00  0.61885260777E+01  0.25033734944E+01  0.66870113111E+01  0.51100000000E-03 0.  1.
        -12    1    3    3    0    0 -0.28749280748E+01  0.78886076801E+01  0.20735997620E+02  0.22371341932E+02  0.00000000000E+00 0.  1.
</event>
<event>
 7    1  0.1736465E-010  0.4778727E+02  0.7816164E-02  0.1312668E+00
        -11   -1    0    0    0    0  0.00000000000E+00  0.00000000000E+00  0.45593999997E+02  0.45594000000E+02  0.51100000000E-03 0.  1.
         11   -1    0    0    0    0 -0.00000000000E+00 -0.00000000000E+00 -0.45593999997E+02  0.45594000000E+02  0.51100000000E-03 0. -1.
    9900012    2    1    2    0    0 -0.22334801589E+02 -0.36579267664E+02  0.68364416879E+01  0.47787272820E+02  0.20000008093E+02 0.  0.
         12    1    1    2    0    0  0.22334801589E+02  0.36579267664E+02 -0.68364416879E+01  0.43400727180E+02  0.00000000000E+00 0. -1.
         11    1    3    3    0    0 -0.30402534932E+01 -0.11031715202E+02 -0.38049353866E+01  0.12058997270E+02  0.51100000000E-03 0. -1.
        -11    1    3    3    0    0 -0.40426410356E+01 -0.13513957772E+02  0.77268869469E+01  0.16083369776E+02  0.51100000000E-03 0.  1.
         12    1    3    3    0    0 -0.15251907060E+02 -0.12033594690E+02  0.29144901276E+01  0.19644905773E+02  0.00000000000E+00 0. -1.
</event>
<event>
 7    1  0.1736465E-010  0.4778727E+02  0.7816164E-02  0.1312668E+00
        -11   -1    0    0    0    0  0.00000000000E+00  0.00000000000E+00  0.45593999997E+02  0.45594000000E+02  0.51100000000E-03 0.  1.
         11   -1    0    0    0    0 -0.00000000000E+00 -0.00000000000E+00 -0.45593999997E+02  0.45594000000E+02  0.51100000000E-03 0. -1.
    9900012    2    1    2    0    0  0.43181341744E+02 -0.17039353837E+01  0.40114258148E+01  0.47787271807E+02  0.20000003476E+02 0.  0.
         12    1    1    2    0    0 -0.43181341744E+02  0.17039353837E+01 -0.40114258148E+01  0.43400728193E+02  0.00000000000E+00 0. -1.
         11    1    3    3    0    0  0.26560565786E+01  0.88897927619E+00  0.28471068552E+01  0.39938625925E+01  0.51100000000E-03 0. -1.
        -11    1    3    3    0    0  0.34095004942E+02  0.26993667365E+01  0.51040932125E+01  0.34580452724E+02  0.51100000000E-03 0.  1.
         12    1    3    3    0    0  0.64302802234E+01 -0.52922813964E+01 -0.39397742528E+01  0.92129564904E+01  0.00000000000E+00 0. -1.
</event>
<event>
 7    1  0.1736465E-010  0.4778727E+02  0.7816164E-02  0.1312668E+00
        -11   -1    0    0    0    0  0.00000000000E+00  0.00000000000E+00  0.45593999997E+02  0.45594000000E+02  0.51100000000E-03 0. -1.
         11   -1    0    0    0    0 -0.00000000000E+00 -0.00000000000E+00 -0.45593999997E+02  0.45594000000E+02  0.51100000000E-03 0.  1.
    9900012    2    1    2    0    0 -0.15091701172E+02 -0.40293316197E+02 -0.56843919870E+01  0.47787273201E+02  0.20000009832E+02 0.  0.
         12    1    1    2    0    0  0.15091701172E+02  0.40293316197E+02  0.56843919870E+01  0.43400726799E+02  0.00000000000E+00 0. -1.
         11    1    3    3    0    0 -0.57972354610E+01 -0.13586306472E+02  0.40391383940E+01  0.15313729192E+02  0.51100000000E-03 0. -1.
        -11    1    3    3    0    0 -0.84194407471E+01 -0.74983251437E+01 -0.63862848427E+01  0.12957488059E+02  0.51100000000E-03 0.  1.
         12    1    3    3    0    0 -0.87502496336E+00 -0.19208684582E+02 -0.33372455383E+01  0.19516055950E+02  0.00000000000E+00 0. -1.
</event>
<event>
 7    1  0.1736465E-010  0.4778725E+02  0.7816164E-02  0.1312668E+00
        -11   -1    0    0    0    0  0.00000000000E+00  0.00000000000E+00  0.45593999997E+02  0.45594000000E+02  0.51100000000E-03 0.  1.
         11   -1    0    0    0    0 -0.00000000000E+00 -0.00000000000E+00 -0.45593999997E+02  0.45594000000E+02  0.51100000000E-03 0. -1.
    9900012    2    1    2    0    0 -0.42418772377E+02 -0.42970842934E+01  0.81121907073E+01  0.47787253215E+02  0.19999918709E+02 0.  0.
         12    1    1    2    0    0  0.42418772377E+02  0.42970842934E+01 -0.81121907073E+01  0.43400746785E+02  0.00000000000E+00 0. -1.
         11    1    3    3    0    0 -0.18897156221E+02  0.24650495427E+01  0.50520537689E+01  0.19715532710E+02  0.51100000000E-03 0.  1.
        -11    1    3    3    0    0 -0.11910195762E+02 -0.60162552716E+01  0.78587000078E+01  0.15485711370E+02  0.51100000000E-03 0. -1.
         12    1    3    3    0    0 -0.11611420395E+02 -0.74587856451E+00 -0.47985630695E+01  0.12586009135E+02  0.00000000000E+00 0. -1.
</event>
<event>
 7    1  0.1736465E-010  0.4778728E+02  0.7816164E-02  0.1312668E+00
        -11   -1    0    0    0    0  0.00000000000E+00  0.00000000000E+00  0.45593999997E+02  0.45594000000E+02  0.51100000000E-03 0. -1.
         11   -1    0    0    0    0 -0.00000000000E+00 -0.00000000000E+00 -0.45593999997E+02  0.45594000000E+02  0.51100000000E-03 0.  1.
    9900012    2    1    2    0    0 -0.28301741914E+02 -0.72636184634E+01 -0.32091643082E+02  0.47787282215E+02  0.20000050930E+02 0.  0.
         12    1    1    2    0    0  0.28301741914E+02  0.72636184634E+01  0.32091643082E+02  0.43400717785E+02  0.00000000000E+00 0. -1.
         11    1    3    3    0    0 -0.22909136173E+02 -0.79688262432E+01 -0.15882652798E+02  0.28992919343E+02  0.51100000000E-03 0. -1.
        -11    1    3    3    0    0 -0.30638593754E+01  0.33638502256E+01 -0.39152222822E+01  0.60026401185E+01  0.51100000000E-03 0.  1.
        -12    1    3    3    0    0 -0.23287463654E+01 -0.26586424457E+01 -0.12293768003E+02  0.12791722753E+02  0.00000000000E+00 0.  1.
</event>
<event>
 7    1  0.1736465E-010  0.4778728E+02  0.7816164E-02  0.1312668E+00
        -11   -1    0    0    0    0  0.00000000000E+00  0.00000000000E+00  0.45593999997E+02  0.45594000000E+02  0.51100000000E-03 0. -1.
         11   -1    0    0    0    0 -0.00000000000E+00 -0.00000000000E+00 -0.45593999997E+02  0.45594000000E+02  0.51100000000E-03 0.  1.
    9900012    2    1    2    0    0 -0.33618232879E+02 -0.24085992163E+02 -0.13164424508E+02  0.47787277967E+02  0.20000031562E+02 0.  0.
         12    1    1    2    0    0  0.33618232879E+02  0.24085992163E+02  0.13164424508E+02  0.43400722033E+02  0.00000000000E+00 0. -1.
         11    1    3    3    0    0 -0.25658624630E+02 -0.16013681381E+02 -0.29712824121E+01  0.30391306795E+02  0.51100000000E-03 0. -1.
        -11    1    3    3    0    0 -0.91210200776E+01 -0.87196787108E+01 -0.98895016186E+01  0.16032094267E+02  0.51100000000E-03 0.  1.
        -12    1    3    3    0    0  0.11614118287E+01  0.64736792869E+00 -0.30364047689E+00  0.13638769043E+01  0.00000000000E+00 0.  1.
</event>
<event>
 7    1  0.1736465E-010  0.4778727E+02  0.7816164E-02  0.1312668E+00
        -11   -1    0    0    0    0  0.00000000000E+00  0.00000000000E+00  0.45593999997E+02  0.45594000000E+02  0.51100000000E-03 0.  1.
         11   -1    0    0    0    0 -0.00000000000E+00 -0.00000000000E+00 -0.45593999997E+02  0.45594000000E+02  0.51100000000E-03 0. -1.
    9900012    2    1    2    0    0 -0.28669820917E+02  0.23419922740E+02  0.22653301305E+02  0.47787268755E+02  0.19999989559E+02 0.  0.
         12    1    1    2    0    0  0.28669820917E+02 -0.23419922740E+02 -0.22653301305E+02  0.43400731245E+02  0.00000000000E+00 0. -1.
         11    1    3    3    0    0 -0.20186495703E+02  0.18469799030E+02  0.15423523912E+02  0.31408807286E+02  0.51100000000E-03 0. -1.
        -11    1    3    3    0    0 -0.84063914448E+01  0.75316448608E+00  0.85142965246E+01  0.11988657950E+02  0.51100000000E-03 0.  1.
         12    1    3    3    0    0 -0.76933769689E-01  0.41969592246E+01 -0.12845191315E+01  0.43898035192E+01  0.00000000000E+00 0. -1.
</event>
<event>
 7    1  0.1736465E-010  0.4778727E+02  0.7816164E-02  0.1312668E+00
        -11   -1    0    0    0    0  0.00000000000E+00  0.00000000000E+00  0.45593999997E+02  0.45594000000E+02  0.51100000000E-03 0. -1.
         11   -1    0    0    0    0 -0.00000000000E+00 -0.00000000000E+00 -0.45593999997E+02  0.45594000000E+02  0.51100000000E-03 0.  1.
    9900012    2    1    2    0    0 -0.10320656547E+02  0.41578595973E+02  0.69518180851E+01  0.47787269945E+02  0.19999994986E+02 0.  0.
         12    1    1    2    0    0  0.10320656547E+02 -0.41578595973E+02 -0.69518180851E+01  0.43400730055E+02  0.00000000000E+00 0. -1.
         11    1    3    3    0    0 -0.26715042276E+01  0.11427662099E+02  0.75201037210E+01  0.13938448842E+02  0.51100000000E-03 0. -1.
        -11    1    3    3    0    0 -0.19231210178E+01  0.27427673422E+02 -0.75618392963E+00  0.27505408162E+02  0.51100000000E-03 0.  1.
         12    1    3    3    0    0 -0.57260313020E+01  0.27232604521E+01  0.18789829372E+00  0.63434129402E+01  0.00000000000E+00 0. -1.
</event>
<event>
 7    1  0.1736465E-010  0.4778727E+02  0.7816164E-02  0.1312668E+00
        -11   -1    0    0    0    0  0.00000000000E+00  0.00000000000E+00  0.45593999997E+02  0.45594000000E+02  0.51100000000E-03 0.  1.
         11   -1    0    0    0    0 -0.00000000000E+00 -0.00000000000E+00 -0.45593999997E+02  0.45594000000E+02  0.51100000000E-03 0. -1.
    9900012    2    1    2    0    0  0.95360434242E+01 -0.26051725044E+02  0.33376561004E+02  0.47787270440E+02  0.19999997242E+02 0.  0.
         12    1    1    2    0    0 -0.95360434242E+01  0.26051725044E+02 -0.33376561004E+02  0.43400729560E+02  0.00000000000E+00 0. -1.
         11    1    3    3    0    0  0.21331315152E+01 -0.23297289170E+02  0.16198172852E+02  0.28455135507E+02  0.51100000000E-03 0. -1.
        -11    1    3    3    0    0  0.57586692860E+01 -0.28739800389E+01  0.94739216264E+01  0.11453262612E+02  0.51100000000E-03 0.  1.
         12    1    3    3    0    0  0.16442426230E+01  0.11954416462E+00  0.77044665252E+01  0.78788723209E+01  0.00000000000E+00 0. -1.
</event>
<event>
 7    1  0.1736465E-010  0.4778727E+02  0.7816164E-02  0.1312668E+00
        -11   -1    0    0    0    0  0.00000000000E+00  0.00000000000E+00  0.45593999997E+02  0.45594000000E+02  0.51100000000E-03 0.  1.
         11   -1    0    0    0    0 -0.00000000000E+00 -0.00000000000E+00 -0.45593999997E+02  0.45594000000E+02  0.51100000000E-03 0. -1.
    9900012    2    1    2    0    0 -0.37763237316E+02 -0.71696249430E+01  0.20153358858E+02  0.47787268582E+02  0.19999988771E+02 0.  0.
         12    1    1    2    0    0  0.37763237316E+02  0.71696249430E+01 -0.20153358858E+02  0.43400731418E+02  0.00000000000E+00 0. -1.
         11    1    3    3    0    0 -0.96327859493E+01 -0.58110717906E+01  0.26440612581E+01  0.11556391336E+02  0.51100000000E-03 0. -1.
        -11    1    3    3    0    0 -0.24953837729E+02 -0.56163621466E+01  0.11037125177E+02  0.27857775819E+02  0.51100000000E-03 0.  1.
        -12    1    3    3    0    0 -0.31766136378E+01  0.42578089943E+01  0.64721724227E+01  0.83731014269E+01  0.00000000000E+00 0.  1.
</event>
<event>
 7    1  0.1736465E-010  0.4778727E+02  0.7816164E-02  0.1312668E+00
        -11   -1    0    0    0    0  0.00000000000E+00  0.00000000000E+00  0.45593999997E+02  0.45594000000E+02  0.51100000000E-03 0.  1.
         11   -1    0    0    0    0 -0.00000000000E+00 -0.00000000000E+00 -0.45593999997E+02  0.45594000000E+02  0.51100000000E-03 0. -1.
    9900012    2    1    2    0    0 -0.19013255132E+02  0.26612430179E+02  0.28528892093E+02  0.47787274260E+02  0.20000014660E+02 0.  0.
         12    1    1    2    0    0  0.19013255132E+02 -0.26612430179E+02 -0.28528892093E+02  0.43400725740E+02  0.00000000000E+00 0. -1.
         11    1    3    3    0    0 -0.54949650899E+01  0.55022910433E+00  0.54451972839E+01  0.77554862599E+01  0.51100000000E-03 0. -1.
        -11    1    3    3    0    0 -0.11533607952E+02  0.17995033068E+02  0.80199458377E+01  0.22829035438E+02  0.51100000000E-03 0.  1.
         12    1    3    3    0    0 -0.19846820900E+01  0.80671680065E+01  0.15063748971E+02  0.17202752562E+02  0.00000000000E+00 0. -1.
</event>
<event>
 7    1  0.1736465E-010  0.4778728E+02  0.7816164E-02  0.1312668E+00
        -11   -1    0    0    0    0  0.00000000000E+00  0.00000000000E+00  0.45593999997E+02  0.45594000000E+02  0.51100000000E-03 0.  1.
         11   -1    0    0    0    0 -0.00000000000E+00 -0.00000000000E+00 -0.45593999997E+02  0.45594000000E+02  0.51100000000E-03 0. -1.
    9900012    2    1    2    0    0  0.18907043540E+02  0.16208959040E+02  0.35544564909E+02  0.47787277159E+02  0.20000027880E+02 0.  0.
         12    1    1    2    0    0 -0.18907043540E+02 -0.16208959040E+02 -0.35544564909E+02  0.43400722841E+02  0.00000000000E+00 0. -1.
         11    1    3    3    0    0  0.40192870233E+01 -0.11720203624E+01  0.20327139841E+01  0.46540548244E+01  0.51100000000E-03 0. -1.
        -11    1    3    3    0    0  0.10537945922E+02  0.81775087884E+01  0.29153088430E+02  0.32059671232E+02  0.51100000000E-03 0.  1.
         12    1    3    3    0    0  0.43498105943E+01  0.92034706137E+01  0.43587624941E+01  0.11073551103E+02  0.00000000000E+00 0. -1.
</event>
<event>
 7    1  0.1736465E-010  0.4778727E+02  0.7816164E-02  0.1312668E+00
        -11   -1    0    0    0    0  0.00000000000E+00  0.00000000000E+00  0.45593999997E+02  0.45594000000E+02  0.51100000000E-03 0.  1.
         11   -1    0    0    0    0 -0.00000000000E+00 -0.00000000000E+00 -0.45593999997E+02  0.45594000000E+02  0.51100000000E-03 0. -1.
    9900012    2    1    2    0    0 -0.98128474785E+01  0.26194740906E+02  0.33183829987E+02  0.47787274207E+02  0.20000014417E+02 0.  0.
         12    1    1    2    0    0  0.98128474785E+01 -0.26194740906E+02 -0.33183829987E+02  0.43400725793E+02  0.00000000000E+00 0. -1.
         11    1    3    3    0    0  0.14972377676E+00  0.47749324664E+01  0.13192187018E+02  0.14030545101E+02  0.51100000000E-03 0. -1.
        -11    1    3    3    0    0 -0.32844124885E+01  0.18234140734E+02  0.92365617612E+01  0.20702302460E+02  0.51100000000E-03 0.  1.
         12    1    3    3    0    0 -0.66781587668E+01  0.31856677055E+01  0.10755081208E+02  0.13054426646E+02  0.00000000000E+00 0. -1.
</event>
<event>
 7    1  0.1736465E-010  0.4778727E+02  0.7816164E-02  0.1312668E+00
        -11   -1    0    0    0    0  0.00000000000E+00  0.00000000000E+00  0.45593999997E+02  0.45594000000E+02  0.51100000000E-03 0.  1.
         11   -1    0    0    0    0 -0.00000000000E+00 -0.00000000000E+00 -0.45593999997E+02  0.45594000000E+02  0.51100000000E-03 0. -1.
    9900012    2    1    2    0    0 -0.37352181849E+02 -0.43519026625E+01  0.21667924061E+02  0.47787268684E+02  0.19999989238E+02 0.  0.
         12    1    1    2    0    0  0.37352181849E+02  0.43519026625E+01 -0.21667924061E+02  0.43400731316E+02  0.00000000000E+00 0. -1.
         11    1    3    3    0    0 -0.83726989868E+01 -0.64161993227E+01  0.29396716583E+01  0.10950405097E+02  0.51100000000E-03 0. -1.
        -11    1    3    3    0    0 -0.32984352281E+01 -0.39297260626E+01  0.47415072804E+01  0.69860084048E+01  0.51100000000E-03 0.  1.
        -12    1    3    3    0    0 -0.25681047634E+02  0.59940227227E+01  0.13986745122E+02  0.29850855182E+02  0.00000000000E+00 0.  1.
</event>
<event>
 7    1  0.1736465E-010  0.4778728E+02  0.7816164E-02  0.1312668E+00
        -11   -1    0    0    0    0  0.00000000000E+00  0.00000000000E+00  0.45593999997E+02  0.45594000000E+02  0.51100000000E-03 0. -1.
         11   -1    0    0    0    0 -0.00000000000E+00 -0.00000000000E+00 -0.45593999997E+02  0.45594000000E+02  0.51100000000E-03 0.  1.
    9900012    2    1    2    0    0 -0.41971151835E+02  0.11039229673E+02  0.42482381527E+00  0.47787278193E+02  0.20000032593E+02 0.  0.
         12    1    1    2    0    0  0.41971151835E+02 -0.11039229673E+02 -0.42482381527E+00  0.43400721807E+02  0.00000000000E+00 0. -1.
         11    1    3    3    0    0 -0.72981851891E+01  0.23124765337E+01 -0.20634511968E+01  0.79289902179E+01  0.51100000000E-03 0. -1.
        -11    1    3    3    0    0 -0.15735174519E+02  0.12942589015E+02  0.95829015276E+00  0.20396682275E+02  0.51100000000E-03 0.  1.
         12    1    3    3    0    0 -0.18937792127E+02 -0.42158358756E+01  0.15299848594E+01  0.19461605700E+02  0.00000000000E+00 0. -1.
</event>
<event>
 7    1  0.1736465E-010  0.4778730E+02  0.7816164E-02  0.1312668E+00
        -11   -1    0    0    0    0  0.00000000000E+00  0.00000000000E+00  0.45593999997E+02  0.45594000000E+02  0.51100000000E-03 0.  1.
         11   -1    0    0    0    0 -0.00000000000E+00 -0.00000000000E+00 -0.45593999997E+02  0.45594000000E+02  0.51100000000E-03 0. -1.
    9900012    2    1    2    0    0  0.17362355976E+01  0.37681976096E+02  0.21463347692E+02  0.47787295735E+02  0.20000112572E+02 0.  0.
         12    1    1    2    0    0 -0.17362355976E+01 -0.37681976096E+02 -0.21463347692E+02  0.43400704265E+02  0.00000000000E+00 0. -1.
         11    1    3    3    0    0  0.26430055465E+01  0.10171344081E+02  0.39047827474E+01  0.11211112670E+02  0.51100000000E-03 0. -1.
        -11    1    3    3    0    0 -0.80217589154E+01  0.80465543886E+01  0.61455546481E+01  0.12917565398E+02  0.51100000000E-03 0.  1.
        -12    1    3    3    0    0  0.71149889665E+01  0.19464077626E+02  0.11413010297E+02  0.23658617666E+02  0.00000000000E+00 0.  1.
</event>
<event>
 7    1  0.1736465E-010  0.4778727E+02  0.7816164E-02  0.1312668E+00
        -11   -1    0    0    0    0  0.00000000000E+00  0.00000000000E+00  0.45593999997E+02  0.45594000000E+02  0.51100000000E-03 0.  1.
         11   -1    0    0    0    0 -0.00000000000E+00 -0.00000000000E+00 -0.45593999997E+02  0.45594000000E+02  0.51100000000E-03 0. -1.
    9900012    2    1    2    0    0 -0.25890259068E+02 -0.27660356848E+02  0.21171260501E+02  0.47787272739E+02  0.20000007728E+02 0.  0.
         12    1    1    2    0    0  0.25890259068E+02  0.27660356848E+02 -0.21171260501E+02  0.43400727261E+02  0.00000000000E+00 0. -1.
         11    1    3    3    0    0 -0.37474861750E+00 -0.36133904939E+01  0.10074378710E+02  0.10709347975E+02  0.51100000000E-03 0. -1.
        -11    1    3    3    0    0 -0.86718313110E+01 -0.56906645069E+01  0.44986490481E+01  0.11305846467E+02  0.51100000000E-03 0.  1.
         12    1    3    3    0    0 -0.16843679140E+02 -0.18356301847E+02  0.65982327425E+01  0.25772078298E+02  0.00000000000E+00 0. -1.
</event>
<event>
 7    1  0.1736465E-010  0.4778727E+02  0.7816164E-02  0.1312668E+00
        -11   -1    0    0    0    0  0.00000000000E+00  0.00000000000E+00  0.45593999997E+02  0.45594000000E+02  0.51100000000E-03 0.  1.
         11   -1    0    0    0    0 -0.00000000000E+00 -0.00000000000E+00 -0.45593999997E+02  0.45594000000E+02  0.51100000000E-03 0. -1.
    9900012    2    1    2    0    0  0.40128242314E+02  0.14102052655E+02  0.86301350678E+01  0.47787274758E+02  0.20000016930E+02 0.  0.
         12    1    1    2    0    0 -0.40128242314E+02 -0.14102052655E+02 -0.86301350678E+01  0.43400725242E+02  0.00000000000E+00 0. -1.
         11    1    3    3    0    0  0.10573229262E+02 -0.37335071708E+00  0.11918738113E+01  0.10646742752E+02  0.51100000000E-03 0. -1.
        -11    1    3    3    0    0  0.19948552389E+02  0.12699681732E+02  0.11815577307E+02  0.26435478544E+02  0.51100000000E-03 0.  1.
        -12    1    3    3    0    0  0.96064606631E+01  0.17757216396E+01 -0.43773160500E+01  0.10705053462E+02  0.00000000000E+00 0.  1.
</event>
<event>
 7    1  0.1736465E-010  0.4778727E+02  0.7816164E-02  0.1312668E+00
        -11   -1    0    0    0    0  0.00000000000E+00  0.00000000000E+00  0.45593999997E+02  0.45594000000E+02  0.51100000000E-03 0.  1.
         11   -1    0    0    0    0 -0.00000000000E+00 -0.00000000000E+00 -0.45593999997E+02  0.45594000000E+02  0.51100000000E-03 0. -1.
    9900012    2    1    2    0    0  0.27473614081E+02  0.21152132101E+01  0.33531323457E+02  0.47787271315E+02  0.20000001235E+02 0.  0.
         12    1    1    2    0    0 -0.27473614081E+02 -0.21152132101E+01 -0.33531323457E+02  0.43400728685E+02  0.00000000000E+00 0. -1.
         11    1    3    3    0    0  0.12114964668E+02  0.11891916513E+01  0.26267149123E+02  0.28950814652E+02  0.51100000000E-03 0. -1.
        -11    1    3    3    0    0  0.12666344334E+02  0.15345557489E+01  0.89655713358E+01  0.15593992746E+02  0.51100000000E-03 0.  1.
         12    1    3    3    0    0  0.26923050788E+01 -0.60853419009E+00 -0.17013970016E+01  0.32424639173E+01  0.00000000000E+00 0. -1.
</event>
<event>
 7    1  0.1736465E-010  0.4778727E+02  0.7816164E-02  0.1312668E+00
        -11   -1    0    0    0    0  0.00000000000E+00  0.00000000000E+00  0.45593999997E+02  0.45594000000E+02  0.51100000000E-03 0. -1.
         11   -1    0    0    0    0 -0.00000000000E+00 -0.00000000000E+00 -0.45593999997E+02  0.45594000000E+02  0.51100000000E-03 0.  1.
    9900012    2    1    2    0    0 -0.24752060394E+02 -0.31753952420E+02 -0.16206336111E+02  0.47787270534E+02  0.19999997674E+02 0.  0.
         12    1    1    2    0    0  0.24752060394E+02  0.31753952420E+02  0.16206336111E+02  0.43400729466E+02  0.00000000000E+00 0. -1.
         11    1    3    3    0    0 -0.47477260556E+01 -0.14419446773E+02 -0.11438886375E+02  0.19008142195E+02  0.51100000000E-03 0. -1.
        -11    1    3    3    0    0 -0.14171447353E+02 -0.17021336377E+02 -0.56843907731E+01  0.22866309515E+02  0.51100000000E-03 0.  1.
         12    1    3    3    0    0 -0.58328869853E+01 -0.31316926979E+00  0.91694103749E+00  0.59128188236E+01  0.00000000000E+00 0. -1.
</event>
<event>
 7    1  0.1736465E-010  0.4778727E+02  0.7816164E-02  0.1312668E+00
        -11   -1    0    0    0    0  0.00000000000E+00  0.00000000000E+00  0.45593999997E+02  0.45594000000E+02  0.51100000000E-03 0. -1.
         11   -1    0    0    0    0 -0.00000000000E+00 -0.00000000000E+00 -0.45593999997E+02  0.45594000000E+02  0.51100000000E-03 0.  1.
    9900012    2    1    2    0    0 -0.18239554016E+02 -0.24556331902E+02 -0.30788448052E+02  0.47787270736E+02  0.19999998594E+02 0.  0.
         12    1    1    2    0    0  0.18239554016E+02  0.24556331902E+02  0.30788448052E+02  0.43400729264E+02  0.00000000000E+00 0. -1.
         11    1    3    3    0    0 -0.87690270065E+01 -0.39601476887E+01 -0.15691772652E+02  0.18406801286E+02  0.51100000000E-03 0. -1.
        -11    1    3    3    0    0 -0.10287539839E+02 -0.12658766918E+02 -0.13652862638E+02  0.21271542358E+02  0.51100000000E-03 0.  1.
         12    1    3    3    0    0  0.81701282888E+00 -0.79374172957E+01 -0.14438127612E+01  0.81089270917E+01  0.00000000000E+00 0. -1.
</event>
<event>
 7    1  0.1736465E-010  0.4778726E+02  0.7816164E-02  0.1312668E+00
        -11   -1    0    0    0    0  0.00000000000E+00  0.00000000000E+00  0.45593999997E+02  0.45594000000E+02  0.51100000000E-03 0.  1.
         11   -1    0    0    0    0 -0.00000000000E+00 -0.00000000000E+00 -0.45593999997E+02  0.45594000000E+02  0.51100000000E-03 0. -1.
    9900012    2    1    2    0    0 -0.41925064315E+02  0.77506941853E+01 -0.81141584532E+01  0.47787264458E+02  0.19999969970E+02 0.  0.
         12    1    1    2    0    0  0.41925064315E+02 -0.77506941853E+01  0.81141584532E+01  0.43400735542E+02  0.00000000000E+00 0. -1.
         11    1    3    3    0    0 -0.40698816724E+01  0.21203557956E+01  0.27970417137E+01  0.53743174577E+01  0.51100000000E-03 0. -1.
        -11    1    3    3    0    0 -0.29584310550E+02  0.10493437573E+02 -0.84530007589E+01  0.32508412525E+02  0.51100000000E-03 0.  1.
         12    1    3    3    0    0 -0.82708720924E+01 -0.48630991832E+01 -0.24581994080E+01  0.99045344749E+01  0.00000000000E+00 0. -1.
</event>
<event>
 7    1  0.1736465E-010  0.4778727E+02  0.7816164E-02  0.1312668E+00
        -11   -1    0    0    0    0  0.00000000000E+00  0.00000000000E+00  0.45593999997E+02  0.45594000000E+02  0.51100000000E-03 0. -1.
         11   -1    0    0    0    0 -0.00000000000E+00 -0.00000000000E+00 -0.45593999997E+02  0.45594000000E+02  0.51100000000E-03 0.  1.
    9900012    2    1    2    0    0 -0.23895230415E+02 -0.28958048515E+02 -0.21773202586E+02  0.47787274646E+02  0.20000016423E+02 0.  0.
         12    1    1    2    0    0  0.23895230415E+02  0.28958048515E+02  0.21773202586E+02  0.43400725354E+02  0.00000000000E+00 0. -1.
         11    1    3    3    0    0 -0.71071141726E+01 -0.51354910451E+01  0.14114734459E+01  0.88812497818E+01  0.51100000000E-03 0. -1.
        -11    1    3    3    0    0  0.64946660288E+00  0.49743037282E+00 -0.22248583775E+01  0.23704933885E+01  0.51100000000E-03 0.  1.
        -12    1    3    3    0    0 -0.17437582845E+02 -0.24319987842E+02 -0.20959817655E+02  0.36535531476E+02  0.00000000000E+00 0.  1.
</event>
<event>
 7    1  0.1736465E-010  0.4778727E+02  0.7816164E-02  0.1312668E+00
        -11   -1    0    0    0    0  0.00000000000E+00  0.00000000000E+00  0.45593999997E+02  0.45594000000E+02  0.51100000000E-03 0.  1.
         11   -1    0    0    0    0 -0.00000000000E+00 -0.00000000000E+00 -0.45593999997E+02  0.45594000000E+02  0.51100000000E-03 0. -1.
    9900012    2    1    2    0    0  0.10067515796E+02  0.37906484019E+02  0.18584055376E+02  0.47787268218E+02  0.19999987112E+02 0.  0.
         12    1    1    2    0    0 -0.10067515796E+02 -0.37906484019E+02 -0.18584055376E+02  0.43400731782E+02  0.00000000000E+00 0. -1.
         11    1    3    3    0    0 -0.11351305074E+01  0.87031700280E+01  0.16453349368E+01  0.89297713924E+01  0.51100000000E-03 0.  1.
        -11    1    3    3    0    0  0.40856539590E+01  0.18895493121E+02  0.21109761496E+01  0.19447067880E+02  0.51100000000E-03 0. -1.
        -12    1    3    3    0    0  0.71169923448E+01  0.10307820870E+02  0.14827744290E+02  0.19410428945E+02  0.00000000000E+00 0.  1.
</event>
<event>
 7    1  0.1736465E-010  0.4778727E+02  0.7816164E-02  0.1312668E+00
        -11   -1    0    0    0    0  0.00000000000E+00  0.00000000000E+00  0.45593999997E+02  0.45594000000E+02  0.51100000000E-03 0. -1.
         11   -1    0    0    0    0 -0.00000000000E+00 -0.00000000000E+00 -0.45593999997E+02  0.45594000000E+02  0.51100000000E-03 0.  1.
    9900012    2    1    2    0    0  0.20506543305E+02  0.91484709506E+01 -0.37140412552E+02  0.47787273237E+02  0.20000009996E+02 0.  0.
         12    1    1    2    0    0 -0.20506543305E+02 -0.91484709506E+01  0.37140412552E+02  0.43400726763E+02  0.00000000000E+00 0. -1.
         11    1    3    3    0    0  0.81776960846E+00  0.10192527433E+01  0.15617374960E+01  0.20363318872E+01  0.51100000000E-03 0. -1.
        -11    1    3    3    0    0  0.36322896070E+01  0.70906736457E+01 -0.16596012203E+02  0.18409204270E+02  0.51100000000E-03 0.  1.
         12    1    3    3    0    0  0.16056484089E+02  0.10385445616E+01 -0.22106137845E+02  0.27341737079E+02  0.00000000000E+00 0. -1.
</event>
<event>
 7    1  0.1736465E-010  0.4778727E+02  0.7816164E-02  0.1312668E+00
        -11   -1    0    0    0    0  0.00000000000E+00  0.00000000000E+00  0.45593999997E+02  0.45594000000E+02  0.51100000000E-03 0. -1.
         11   -1    0    0    0    0 -0.00000000000E+00 -0.00000000000E+00 -0.45593999997E+02  0.45594000000E+02  0.51100000000E-03 0.  1.
    9900012    2    1    2    0    0 -0.20198892339E+02 -0.16457864949E+02 -0.34709751307E+02  0.47787269520E+02  0.19999993049E+02 0.  0.
         12    1    1    2    0    0  0.20198892339E+02  0.16457864949E+02  0.34709751307E+02  0.43400730480E+02  0.00000000000E+00 0. -1.
         11    1    3    3    0    0 -0.53087424097E+01  0.13848929527E+01 -0.97125638456E+00  0.55717155068E+01  0.51100000000E-03 0. -1.
        -11    1    3    3    0    0 -0.91294650820E+01 -0.11173637112E+02 -0.12028725320E+02  0.18785300958E+02  0.51100000000E-03 0.  1.
        -12    1    3    3    0    0 -0.57606848477E+01 -0.66691207891E+01 -0.21709769603E+02  0.23430253055E+02  0.00000000000E+00 0.  1.
</event>
<event>
 7    1  0.1736465E-010  0.4778727E+02  0.7816164E-02  0.1312668E+00
        -11   -1    0    0    0    0  0.00000000000E+00  0.00000000000E+00  0.45593999997E+02  0.45594000000E+02  0.51100000000E-03 0.  1.
         11   -1    0    0    0    0 -0.00000000000E+00 -0.00000000000E+00 -0.45593999997E+02  0.45594000000E+02  0.51100000000E-03 0. -1.
    9900012    2    1    2    0    0 -0.13717757924E+02 -0.24781196506E+02  0.32883712898E+02  0.47787272395E+02  0.20000006156E+02 0.  0.
         12    1    1    2    0    0  0.13717757924E+02  0.24781196506E+02 -0.32883712898E+02  0.43400727605E+02  0.00000000000E+00 0. -1.
         11    1    3    3    0    0 -0.10953482868E+02 -0.55211815580E+01  0.15883501606E+02  0.20068578830E+02  0.51100000000E-03 0. -1.
        -11    1    3    3    0    0 -0.57800856263E+01 -0.13079924714E+02  0.14596345606E+02  0.20433969895E+02  0.51100000000E-03 0.  1.
         12    1    3    3    0    0  0.30158105706E+01 -0.61800902344E+01  0.24038656860E+01  0.72847236694E+01  0.00000000000E+00 0. -1.
</event>
<event>
 7    1  0.1736465E-010  0.4778727E+02  0.7816164E-02  0.1312668E+00
        -11   -1    0    0    0    0  0.00000000000E+00  0.00000000000E+00  0.45593999997E+02  0.45594000000E+02  0.51100000000E-03 0.  1.
         11   -1    0    0    0    0 -0.00000000000E+00 -0.00000000000E+00 -0.45593999997E+02  0.45594000000E+02  0.51100000000E-03 0. -1.
    9900012    2    1    2    0    0 -0.38746949099E+02  0.29089484289E+01  0.19334818248E+02  0.47787271410E+02  0.20000001668E+02 0.  0.
         12    1    1    2    0    0  0.38746949099E+02 -0.29089484289E+01 -0.19334818248E+02  0.43400728590E+02  0.00000000000E+00 0. -1.
         11    1    3    3    0    0 -0.17003325004E+02 -0.24737479607E+01  0.12163234591E+02  0.21051763967E+02  0.51100000000E-03 0. -1.
        -11    1    3    3    0    0 -0.17975260961E+02  0.91801093272E+00  0.69355804125E+00  0.18012045239E+02  0.51100000000E-03 0.  1.
        -12    1    3    3    0    0 -0.37683631338E+01  0.44646854568E+01  0.64780256158E+01  0.87234622034E+01  0.00000000000E+00 0.  1.
</event>
<event>
 7    1  0.1736465E-010  0.4778728E+02  0.7816164E-02  0.1312668E+00
        -11   -1    0    0    0    0  0.00000000000E+00  0.00000000000E+00  0.45593999997E+02  0.45594000000E+02  0.51100000000E-03 0. -1.
         11   -1    0    0    0    0 -0.00000000000E+00 -0.00000000000E+00 -0.45593999997E+02  0.45594000000E+02  0.51100000000E-03 0.  1.
    9900012    2    1    2    0    0 -0.29046909918E+02 -0.15302399235E+02 -0.28385493424E+02  0.47787278404E+02  0.20000033555E+02 0.  0.
         12    1    1    2    0    0  0.29046909918E+02  0.15302399235E+02  0.28385493424E+02  0.43400721596E+02  0.00000000000E+00 0. -1.
         11    1    3    3    0    0 -0.11270807282E+02  0.16258391199E+01 -0.76041824448E+01  0.13692992388E+02  0.51100000000E-03 0. -1.
        -11    1    3    3    0    0 -0.15102557177E+02 -0.75653945732E+01 -0.15918904355E+02  0.23210642914E+02  0.51100000000E-03 0.  1.
         12    1    3    3    0    0 -0.26735454592E+01 -0.93628437814E+01 -0.48624066233E+01  0.10883643102E+02  0.00000000000E+00 0. -1.
</event>
<event>
 7    1  0.1736465E-010  0.4778727E+02  0.7816164E-02  0.1312668E+00
        -11   -1    0    0    0    0  0.00000000000E+00  0.00000000000E+00  0.45593999997E+02  0.45594000000E+02  0.51100000000E-03 0.  1.
         11   -1    0    0    0    0 -0.00000000000E+00 -0.00000000000E+00 -0.45593999997E+02  0.45594000000E+02  0.51100000000E-03 0. -1.
    9900012    2    1    2    0    0 -0.38214297864E+01  0.52619999148E+01  0.42910735480E+02  0.47787272032E+02  0.20000004505E+02 0.  0.
         12    1    1    2    0    0  0.38214297864E+01 -0.52619999148E+01 -0.42910735480E+02  0.43400727968E+02  0.00000000000E+00 0. -1.
         11    1    3    3    0    0 -0.66203102181E+01  0.33820207616E+01  0.22724957914E+02  0.23910045677E+02  0.51100000000E-03 0.  1.
        -11    1    3    3    0    0 -0.33389899099E+00  0.49959905716E+01  0.18470892632E+02  0.19137536027E+02  0.51100000000E-03 0. -1.
         12    1    3    3    0    0  0.31327794227E+01 -0.31160114184E+01  0.17148849340E+01  0.47396903283E+01  0.00000000000E+00 0. -1.
</event>
<event>
 7    1  0.1736465E-010  0.4778727E+02  0.7816164E-02  0.1312668E+00
        -11   -1    0    0    0    0  0.00000000000E+00  0.00000000000E+00  0.45593999997E+02  0.45594000000E+02  0.51100000000E-03 0.  1.
         11   -1    0    0    0    0 -0.00000000000E+00 -0.00000000000E+00 -0.45593999997E+02  0.45594000000E+02  0.51100000000E-03 0. -1.
    9900012    2    1    2    0    0  0.16168157078E+02 -0.39724046490E+01  0.40080343564E+02  0.47787271409E+02  0.20000001663E+02 0.  0.
         12    1    1    2    0    0 -0.16168157078E+02  0.39724046490E+01 -0.40080343564E+02  0.43400728591E+02  0.00000000000E+00 0. -1.
         11    1    3    3    0    0  0.98005932445E+01 -0.93340787228E+01  0.12980568338E+02  0.18752914658E+02  0.51100000000E-03 0. -1.
        -11    1    3    3    0    0  0.68159129187E+01  0.21063440959E+01  0.18732470404E+02  0.20044919607E+02  0.51100000000E-03 0.  1.
        -12    1    3    3    0    0 -0.44834908518E+00  0.32553299779E+01  0.83673048226E+01  0.89894371438E+01  0.00000000000E+00 0.  1.
</event>
<event>
 7    1  0.1736465E-010  0.4778726E+02  0.7816164E-02  0.1312668E+00
        -11   -1    0    0    0    0  0.00000000000E+00  0.00000000000E+00  0.45593999997E+02  0.45594000000E+02  0.51100000000E-03 0.  1.
         11   -1    0    0    0    0 -0.00000000000E+00 -0.00000000000E+00 -0.45593999997E+02  0.45594000000E+02  0.51100000000E-03 0. -1.
    9900012    2    1    2    0    0 -0.24324002082E+02 -0.30839828953E+02  0.18462723621E+02  0.47787259330E+02  0.19999946591E+02 0.  0.
         12    1    1    2    0    0  0.24324002082E+02  0.30839828953E+02 -0.18462723621E+02  0.43400740670E+02  0.00000000000E+00 0. -1.
         11    1    3    3    0    0 -0.76042936824E+01 -0.61448795818E+01  0.61782354029E+00  0.97962510008E+01  0.51100000000E-03 0. -1.
        -11    1    3    3    0    0 -0.10731913603E+02 -0.17071405611E+02  0.19621575934E+02  0.28135619800E+02  0.51100000000E-03 0.  1.
        -12    1    3    3    0    0 -0.59877947964E+01 -0.76235437602E+01 -0.17766758529E+01  0.98553885298E+01  0.00000000000E+00 0.  1.
</event>
<event>
 7    1  0.1736465E-010  0.4778729E+02  0.7816164E-02  0.1312668E+00
        -11   -1    0    0    0    0  0.00000000000E+00  0.00000000000E+00  0.45593999997E+02  0.45594000000E+02  0.51100000000E-03 0.  1.
         11   -1    0    0    0    0 -0.00000000000E+00 -0.00000000000E+00 -0.45593999997E+02  0.45594000000E+02  0.51100000000E-03 0. -1.
    9900012    2    1    2    0    0 -0.39732299984E+02  0.62977682414E+01  0.16288170282E+02  0.47787285282E+02  0.20000064915E+02 0.  0.
         12    1    1    2    0    0  0.39732299984E+02 -0.62977682414E+01 -0.16288170282E+02  0.43400714718E+02  0.00000000000E+00 0. -1.
         11    1    3    3    0    0 -0.13686754448E+02  0.27561608582E+01  0.12040624630E+02  0.18436385539E+02  0.51100000000E-03 0.  1.
        -11    1    3    3    0    0 -0.50126969131E+01  0.60223554603E+01  0.57941841664E+00  0.78569473458E+01  0.51100000000E-03 0. -1.
         12    1    3    3    0    0 -0.21032848623E+02 -0.24807480771E+01  0.36681272354E+01  0.21493952397E+02  0.00000000000E+00 0. -1.
</event>
<event>
 7    1  0.1736465E-010  0.4778727E+02  0.7816164E-02  0.1312668E+00
        -11   -1    0    0    0    0  0.00000000000E+00  0.00000000000E+00  0.45593999997E+02  0.45594000000E+02  0.51100000000E-03 0. -1.
         11   -1    0    0    0    0 -0.00000000000E+00 -0.00000000000E+00 -0.45593999997E+02  0.45594000000E+02  0.51100000000E-03 0.  1.
    9900012    2    1    2    0    0 -0.38718311586E+01 -0.42991724614E+02 -0.45104462321E+01  0.47787267437E+02  0.19999983553E+02 0.  0.
         12    1    1    2    0    0  0.38718311586E+01  0.42991724614E+02  0.45104462321E+01  0.43400732563E+02  0.00000000000E+00 0. -1.
         11    1    3    3    0    0 -0.77173423328E+01 -0.93533896726E+01  0.22922119022E+00  0.12128306298E+02  0.51100000000E-03 0. -1.
        -11    1    3    3    0    0 -0.33396460598E+01 -0.12022949396E+02 -0.28706058699E+01  0.12804098028E+02  0.51100000000E-03 0.  1.
        -12    1    3    3    0    0  0.71851572340E+01 -0.21615385545E+02 -0.18690615524E+01  0.22854863111E+02  0.00000000000E+00 0.  1.
</event>
<event>
 7    1  0.1736465E-010  0.4778728E+02  0.7816164E-02  0.1312668E+00
        -11   -1    0    0    0    0  0.00000000000E+00  0.00000000000E+00  0.45593999997E+02  0.45594000000E+02  0.51100000000E-03 0.  1.
         11   -1    0    0    0    0 -0.00000000000E+00 -0.00000000000E+00 -0.45593999997E+02  0.45594000000E+02  0.51100000000E-03 0. -1.
    9900012    2    1    2    0    0  0.12856458311E+02  0.36848864033E+02  0.18986719859E+02  0.47787276137E+02  0.20000023221E+02 0.  0.
         12    1    1    2    0    0 -0.12856458311E+02 -0.36848864033E+02 -0.18986719859E+02  0.43400723863E+02  0.00000000000E+00 0. -1.
         11    1    3    3    0    0 -0.20221344522E+01  0.28154727285E+01  0.54072422443E+01  0.64229419566E+01  0.51100000000E-03 0. -1.
        -11    1    3    3    0    0  0.69231706607E+01  0.28125744796E+02  0.82714864445E+01  0.30123168834E+02  0.51100000000E-03 0.  1.
         12    1    3    3    0    0  0.79554221027E+01  0.59076465081E+01  0.53079911700E+01  0.11241165347E+02  0.00000000000E+00 0. -1.
</event>
<event>
 7    1  0.1736465E-010  0.4778727E+02  0.7816164E-02  0.1312668E+00
        -11   -1    0    0    0    0  0.00000000000E+00  0.00000000000E+00  0.45593999997E+02  0.45594000000E+02  0.51100000000E-03 0.  1.
         11   -1    0    0    0    0 -0.00000000000E+00 -0.00000000000E+00 -0.45593999997E+02  0.45594000000E+02  0.51100000000E-03 0. -1.
    9900012    2    1    2    0    0 -0.11918116491E+02 -0.36623961253E+02  0.20006678472E+02  0.47787271642E+02  0.20000002725E+02 0.  0.
         12    1    1    2    0    0  0.11918116491E+02  0.36623961253E+02 -0.20006678472E+02  0.43400728358E+02  0.00000000000E+00 0. -1.
         11    1    3    3    0    0  0.10540126470E+01 -0.13526793453E+02  0.61613295414E+01  0.14901243765E+02  0.51100000000E-03 0. -1.
        -11    1    3    3    0    0 -0.32211513594E+01 -0.15488706718E+02  0.13022593453E+02  0.20490578137E+02  0.51100000000E-03 0.  1.
        -12    1    3    3    0    0 -0.97509777788E+01 -0.76084610819E+01  0.82275547711E+00  0.12395449740E+02  0.00000000000E+00 0.  1.
</event>
<event>
 7    1  0.1736465E-010  0.4778727E+02  0.7816164E-02  0.1312668E+00
        -11   -1    0    0    0    0  0.00000000000E+00  0.00000000000E+00  0.45593999997E+02  0.45594000000E+02  0.51100000000E-03 0. -1.
         11   -1    0    0    0    0 -0.00000000000E+00 -0.00000000000E+00 -0.45593999997E+02  0.45594000000E+02  0.51100000000E-03 0.  1.
    9900012    2    1    2    0    0  0.30185882141E+02 -0.43275723822E+01 -0.30882166053E+02  0.47787267938E+02  0.19999985836E+02 0.  0.
         12    1    1    2    0    0 -0.30185882141E+02  0.43275723822E+01  0.30882166053E+02  0.43400732062E+02  0.00000000000E+00 0. -1.
         11    1    3    3    0    0  0.85180535277E+01 -0.42857032930E+01 -0.23729307997E+01  0.98262551085E+01  0.51100000000E-03 0. -1.
        -11    1    3    3    0    0  0.20279473021E+02  0.38978529350E+01 -0.25498209167E+02  0.32811719773E+02  0.51100000000E-03 0.  1.
         12    1    3    3    0    0  0.13883555925E+01 -0.39397220242E+01 -0.30110260873E+01  0.51492930561E+01  0.00000000000E+00 0. -1.
</event>
<event>
 7    1  0.1736465E-010  0.4778727E+02  0.7816164E-02  0.1312668E+00
        -11   -1    0    0    0    0  0.00000000000E+00  0.00000000000E+00  0.45593999997E+02  0.45594000000E+02  0.51100000000E-03 0.  1.
         11   -1    0    0    0    0 -0.00000000000E+00 -0.00000000000E+00 -0.45593999997E+02  0.45594000000E+02  0.51100000000E-03 0. -1.
    9900012    2    1    2    0    0  0.10963339718E+02  0.12477167735E+02  0.40096740206E+02  0.47787272960E+02  0.20000008733E+02 0.  0.
         12    1    1    2    0    0 -0.10963339718E+02 -0.12477167735E+02 -0.40096740206E+02  0.43400727040E+02  0.00000000000E+00 0. -1.
         11    1    3    3    0    0  0.77505984365E+01  0.20613920858E+00  0.82275933250E+01  0.11305200647E+02  0.51100000000E-03 0. -1.
        -11    1    3    3    0    0 -0.23523120990E+01  0.40322164245E+00  0.14641567832E+02  0.14834805989E+02  0.51100000000E-03 0.  1.
        -12    1    3    3    0    0  0.55650533804E+01  0.11867806884E+02  0.17227579049E+02  0.21647266323E+02  0.00000000000E+00 0.  1.
</event>
<event>
 7    1  0.1736465E-010  0.4778728E+02  0.7816164E-02  0.1312668E+00
        -11   -1    0    0    0    0  0.00000000000E+00  0.00000000000E+00  0.45593999997E+02  0.45594000000E+02  0.51100000000E-03 0.  1.
         11   -1    0    0    0    0 -0.00000000000E+00 -0.00000000000E+00 -0.45593999997E+02  0.45594000000E+02  0.51100000000E-03 0. -1.
    9900012    2    1    2    0    0 -0.22944389860E+01  0.41612651382E+02  0.12113841878E+02  0.47787281454E+02  0.20000047459E+02 0.  0.
         12    1    1    2    0    0  0.22944389860E+01 -0.41612651382E+02 -0.12113841878E+02  0.43400718546E+02  0.00000000000E+00 0. -1.
         11    1    3    3    0    0 -0.69994833924E+01  0.33731073940E+02  0.71383132013E+01  0.35181438750E+02  0.51100000000E-03 0. -1.
        -11    1    3    3    0    0 -0.59620485237E+00  0.64601771724E+00  0.33835756119E+01  0.34959095096E+01  0.51100000000E-03 0.  1.
        -12    1    3    3    0    0  0.53012492588E+01  0.72355597247E+01  0.15919530650E+01  0.91099331937E+01  0.00000000000E+00 0.  1.
</event>
<event>
 7    1  0.1736465E-010  0.4778728E+02  0.7816164E-02  0.1312668E+00
        -11   -1    0    0    0    0  0.00000000000E+00  0.00000000000E+00  0.45593999997E+02  0.45594000000E+02  0.51100000000E-03 0. -1.
         11   -1    0    0    0    0 -0.00000000000E+00 -0.00000000000E+00 -0.45593999997E+02  0.45594000000E+02  0.51100000000E-03 0.  1.
    9900012    2    1    2    0    0  0.94135984905E+01 -0.42348283635E+02  0.12766340756E+01  0.47787276988E+02  0.20000027100E+02 0.  0.
         12    1    1    2    0    0 -0.94135984905E+01  0.42348283635E+02 -0.12766340756E+01  0.43400723012E+02  0.00000000000E+00 0. -1.
         11    1    3    3    0    0  0.21771562488E+01 -0.11511304326E+02 -0.57727660931E+01  0.13060435109E+02  0.51100000000E-03 0. -1.
        -11    1    3    3    0    0  0.48236455973E+01 -0.31134184286E+02  0.70980867829E+01  0.32295322018E+02  0.51100000000E-03 0.  1.
         12    1    3    3    0    0  0.24127966444E+01  0.29720497716E+00 -0.48686614175E-01  0.24315198605E+01  0.00000000000E+00 0. -1.
</event>
<event>
 7    1  0.1736465E-010  0.4778726E+02  0.7816164E-02  0.1312668E+00
        -11   -1    0    0    0    0  0.00000000000E+00  0.00000000000E+00  0.45593999997E+02  0.45594000000E+02  0.51100000000E-03 0.  1.
         11   -1    0    0    0    0 -0.00000000000E+00 -0.00000000000E+00 -0.45593999997E+02  0.45594000000E+02  0.51100000000E-03 0. -1.
    9900012    2    1    2    0    0  0.61364125680E+01 -0.34796441093E+02  0.25202697531E+02  0.47787264582E+02  0.19999970536E+02 0.  0.
         12    1    1    2    0    0 -0.61364125680E+01  0.34796441093E+02 -0.25202697531E+02  0.43400735418E+02  0.00000000000E+00 0. -1.
         11    1    3    3    0    0  0.10155381529E+02 -0.17801280509E+02  0.75738802643E+01  0.21849050878E+02  0.51100000000E-03 0. -1.
        -11    1    3    3    0    0  0.29425048254E+00 -0.71994934356E+01  0.11594721724E+02  0.13651258594E+02  0.51100000000E-03 0.  1.
        -12    1    3    3    0    0 -0.43132194437E+01 -0.97956671486E+01  0.60340955432E+01  0.12286955110E+02  0.00000000000E+00 0.  1.
</event>
<event>
 7    1  0.1736465E-010  0.4778727E+02  0.7816164E-02  0.1312668E+00
        -11   -1    0    0    0    0  0.00000000000E+00  0.00000000000E+00  0.45593999997E+02  0.45594000000E+02  0.51100000000E-03 0. -1.
         11   -1    0    0    0    0 -0.00000000000E+00 -0.00000000000E+00 -0.45593999997E+02  0.45594000000E+02  0.51100000000E-03 0.  1.
    9900012    2    1    2    0    0 -0.37760591363E+02 -0.20214502937E+02 -0.70096254236E+01  0.47787271461E+02  0.20000001900E+02 0.  0.
         12    1    1    2    0    0  0.37760591363E+02  0.20214502937E+02  0.70096254236E+01  0.43400728539E+02  0.00000000000E+00 0. -1.
         11    1    3    3    0    0 -0.11895206695E+02 -0.96934480557E+01 -0.40337518432E+01  0.15866002386E+02  0.51100000000E-03 0. -1.
        -11    1    3    3    0    0 -0.19520690790E+02 -0.13092088835E+02  0.18013274622E+01  0.23573394747E+02  0.51100000000E-03 0.  1.
        -12    1    3    3    0    0 -0.63446938788E+01  0.25710339537E+01 -0.47772010425E+01  0.83478743287E+01  0.00000000000E+00 0.  1.
</event>
<event>
 7    1  0.1736465E-010  0.4778726E+02  0.7816164E-02  0.1312668E+00
        -11   -1    0    0    0    0  0.00000000000E+00  0.00000000000E+00  0.45593999997E+02  0.45594000000E+02  0.51100000000E-03 0. -1.
         11   -1    0    0    0    0 -0.00000000000E+00 -0.00000000000E+00 -0.45593999997E+02  0.45594000000E+02  0.51100000000E-03 0.  1.
    9900012    2    1    2    0    0 -0.12127010287E+02  0.38811283750E+02 -0.15173786897E+02  0.47787263443E+02  0.19999965343E+02 0.  0.
         12    1    1    2    0    0  0.12127010287E+02 -0.38811283750E+02  0.15173786897E+02  0.43400736557E+02  0.00000000000E+00 0. -1.
         11    1    3    3    0    0 -0.10986353133E+02  0.28053344787E+02 -0.49963855408E+01  0.30539384042E+02  0.51100000000E-03 0. -1.
        -11    1    3    3    0    0 -0.24128794253E+01  0.11869830990E+02 -0.81057530876E+01  0.14574570602E+02  0.51100000000E-03 0.  1.
         12    1    3    3    0    0  0.12722222713E+01 -0.11118920269E+01 -0.20716482690E+01  0.26733087995E+01  0.00000000000E+00 0. -1.
</event>
<event>
 7    1  0.1736465E-010  0.4778727E+02  0.7816164E-02  0.1312668E+00
        -11   -1    0    0    0    0  0.00000000000E+00  0.00000000000E+00  0.45593999997E+02  0.45594000000E+02  0.51100000000E-03 0. -1.
         11   -1    0    0    0    0 -0.00000000000E+00 -0.00000000000E+00 -0.45593999997E+02  0.45594000000E+02  0.51100000000E-03 0.  1.
    9900012    2    1    2    0    0  0.30659164152E+02  0.21506686688E+02 -0.21934023583E+02  0.47787270636E+02  0.19999998137E+02 0.  0.
         12    1    1    2    0    0 -0.30659164152E+02 -0.21506686688E+02  0.21934023583E+02  0.43400729364E+02  0.00000000000E+00 0. -1.
         11    1    3    3    0    0  0.12647868765E+02  0.16678697905E+02 -0.88424114538E+01  0.22723023317E+02  0.51100000000E-03 0. -1.
        -11    1    3    3    0    0  0.93100664483E+01 -0.28693860064E+01 -0.55200071231E+01  0.11197374345E+02  0.51100000000E-03 0.  1.
        -12    1    3    3    0    0  0.87012289391E+01  0.76973747893E+01 -0.75716050059E+01  0.13866872974E+02  0.00000000000E+00 0.  1.
</event>
<event>
 7    1  0.1736465E-010  0.4778727E+02  0.7816164E-02  0.1312668E+00
        -11   -1    0    0    0    0  0.00000000000E+00  0.00000000000E+00  0.45593999997E+02  0.45594000000E+02  0.51100000000E-03 0.  1.
         11   -1    0    0    0    0 -0.00000000000E+00 -0.00000000000E+00 -0.45593999997E+02  0.45594000000E+02  0.51100000000E-03 0. -1.
    9900012    2    1    2    0    0 -0.13587549643E+02 -0.11820056460E+00  0.41218779672E+02  0.47787271039E+02  0.19999999977E+02 0.  0.
         12    1    1    2    0    0  0.13587549643E+02  0.11820056460E+00 -0.41218779672E+02  0.43400728961E+02  0.00000000000E+00 0. -1.
         11    1    3    3    0    0 -0.71757437707E+01 -0.41242702643E+01  0.16913058120E+02  0.18829562903E+02  0.51100000000E-03 0. -1.
        -11    1    3    3    0    0 -0.49415089189E+01  0.46912811322E+00  0.24619127830E+02  0.25114538558E+02  0.51100000000E-03 0.  1.
         12    1    3    3    0    0 -0.14702969535E+01  0.35369415864E+01 -0.31340627844E+00  0.38431695790E+01  0.00000000000E+00 0. -1.
</event>
<event>
 7    1  0.1736465E-010  0.4778728E+02  0.7816164E-02  0.1312668E+00
        -11   -1    0    0    0    0  0.00000000000E+00  0.00000000000E+00  0.45593999997E+02  0.45594000000E+02  0.51100000000E-03 0.  1.
         11   -1    0    0    0    0 -0.00000000000E+00 -0.00000000000E+00 -0.45593999997E+02  0.45594000000E+02  0.51100000000E-03 0. -1.
    9900012    2    1    2    0    0  0.58950592952E+01 -0.38425641759E+02  0.19296142638E+02  0.47787276625E+02  0.20000025446E+02 0.  0.
         12    1    1    2    0    0 -0.58950592952E+01  0.38425641759E+02 -0.19296142638E+02  0.43400723375E+02  0.00000000000E+00 0. -1.
         11    1    3    3    0    0  0.11364681927E+01 -0.37221053657E+00  0.22554242339E+01  0.25528492655E+01  0.51100000000E-03 0. -1.
        -11    1    3    3    0    0  0.59147232474E+01 -0.34121545655E+02  0.83455152523E+01  0.35621783420E+02  0.51100000000E-03 0.  1.
        -12    1    3    3    0    0 -0.11561321449E+01 -0.39318855682E+01  0.86952031519E+01  0.96126439396E+01  0.00000000000E+00 0.  1.
</event>
<event>
 7    1  0.1736465E-010  0.4778727E+02  0.7816164E-02  0.1312668E+00
        -11   -1    0    0    0    0  0.00000000000E+00  0.00000000000E+00  0.45593999997E+02  0.45594000000E+02  0.51100000000E-03 0.  1.
         11   -1    0    0    0    0 -0.00000000000E+00 -0.00000000000E+00 -0.45593999997E+02  0.45594000000E+02  0.51100000000E-03 0. -1.
    9900012    2    1    2    0    0 -0.21206801172E+02 -0.19072619473E+02  0.32712845420E+02  0.47787268613E+02  0.19999988912E+02 0.  0.
         12    1    1    2    0    0  0.21206801172E+02  0.19072619473E+02 -0.32712845420E+02  0.43400731387E+02  0.00000000000E+00 0. -1.
         11    1    3    3    0    0 -0.87407233047E+00  0.15739712337E+01  0.63914465661E+01  0.66401790151E+01  0.51100000000E-03 0. -1.
        -11    1    3    3    0    0 -0.16552630676E+02 -0.82093155995E+01  0.13448677475E+02  0.22852776002E+02  0.51100000000E-03 0.  1.
        -12    1    3    3    0    0 -0.37800981653E+01 -0.12437275107E+02  0.12872721379E+02  0.18294313595E+02  0.00000000000E+00 0.  1.
</event>
<event>
 7    1  0.1736465E-010  0.4778727E+02  0.7816164E-02  0.1312668E+00
        -11   -1    0    0    0    0  0.00000000000E+00  0.00000000000E+00  0.45593999997E+02  0.45594000000E+02  0.51100000000E-03 0.  1.
         11   -1    0    0    0    0 -0.00000000000E+00 -0.00000000000E+00 -0.45593999997E+02  0.45594000000E+02  0.51100000000E-03 0. -1.
    9900012    2    1    2    0    0 -0.44898073144E+01  0.29102341597E+02  0.31882890539E+02  0.47787269992E+02  0.19999995202E+02 0.  0.
         12    1    1    2    0    0  0.44898073144E+01 -0.29102341597E+02 -0.31882890539E+02  0.43400730008E+02  0.00000000000E+00 0. -1.
         11    1    3    3    0    0 -0.14284359468E+00  0.89988770666E+01  0.80247141338E+01  0.12058035907E+02  0.51100000000E-03 0. -1.
        -11    1    3    3    0    0 -0.40817330843E+01  0.23129189805E+02  0.20233681202E+02  0.31000351954E+02  0.51100000000E-03 0.  1.
         12    1    3    3    0    0 -0.26523063540E+00 -0.30257252753E+01  0.36244952023E+01  0.47288821304E+01  0.00000000000E+00 0. -1.
</event>
<event>
 7    1  0.1736465E-010  0.4778727E+02  0.7816164E-02  0.1312668E+00
        -11   -1    0    0    0    0  0.00000000000E+00  0.00000000000E+00  0.45593999997E+02  0.45594000000E+02  0.51100000000E-03 0.  1.
         11   -1    0    0    0    0 -0.00000000000E+00 -0.00000000000E+00 -0.45593999997E+02  0.45594000000E+02  0.51100000000E-03 0. -1.
    9900012    2    1    2    0    0 -0.76450276646E+01  0.30364858798E+01  0.42614044011E+02  0.47787269114E+02  0.19999991198E+02 0.  0.
         12    1    1    2    0    0  0.76450276646E+01 -0.30364858798E+01 -0.42614044011E+02  0.43400730886E+02  0.00000000000E+00 0. -1.
         11    1    3    3    0    0 -0.10128646039E+00 -0.18211351039E+01 -0.81921582987E+00  0.19994766442E+01  0.51100000000E-03 0. -1.
        -11    1    3    3    0    0 -0.70580757178E+00  0.72164517234E+01  0.20906062982E+02  0.22127783655E+02  0.51100000000E-03 0.  1.
        -12    1    3    3    0    0 -0.68379336324E+01 -0.23588307397E+01  0.22527196858E+02  0.23660008815E+02  0.00000000000E+00 0.  1.
</event>
<event>
 7    1  0.1736465E-010  0.4778727E+02  0.7816164E-02  0.1312668E+00
        -11   -1    0    0    0    0  0.00000000000E+00  0.00000000000E+00  0.45593999997E+02  0.45594000000E+02  0.51100000000E-03 0.  1.
         11   -1    0    0    0    0 -0.00000000000E+00 -0.00000000000E+00 -0.45593999997E+02  0.45594000000E+02  0.51100000000E-03 0. -1.
    9900012    2    1    2    0    0 -0.18740893000E+01 -0.29906032574E+02  0.31396495684E+02  0.47787274934E+02  0.20000017733E+02 0.  0.
         12    1    1    2    0    0  0.18740893000E+01  0.29906032574E+02 -0.31396495684E+02  0.43400725066E+02  0.00000000000E+00 0. -1.
         11    1    3    3    0    0  0.12296902946E+01  0.13325681397E+01  0.18333165237E+01  0.25785511057E+01  0.51100000000E-03 0. -1.
        -11    1    3    3    0    0 -0.72179272752E+01 -0.14583118049E+02  0.19192044075E+02  0.25161485692E+02  0.51100000000E-03 0.  1.
         12    1    3    3    0    0  0.41141476807E+01 -0.16655482665E+02  0.10371135086E+02  0.20047238137E+02  0.00000000000E+00 0. -1.
</event>
<event>
 7    1  0.1736465E-010  0.4778728E+02  0.7816164E-02  0.1312668E+00
        -11   -1    0    0    0    0  0.00000000000E+00  0.00000000000E+00  0.45593999997E+02  0.45594000000E+02  0.51100000000E-03 0.  1.
         11   -1    0    0    0    0 -0.00000000000E+00 -0.00000000000E+00 -0.45593999997E+02  0.45594000000E+02  0.51100000000E-03 0. -1.
    9900012    2    1    2    0    0 -0.54625480966E+01 -0.20633460156E+02  0.37789466434E+02  0.47787275546E+02  0.20000020526E+02 0.  0.
         12    1    1    2    0    0  0.54625480966E+01  0.20633460156E+02 -0.37789466434E+02  0.43400724454E+02  0.00000000000E+00 0. -1.
         11    1    3    3    0    0  0.44668441450E+00 -0.39272742052E+01  0.10925614682E+02  0.11618608613E+02  0.51100000000E-03 0. -1.
        -11    1    3    3    0    0 -0.65335498463E+01  0.90423663963E+00  0.74277101256E+01  0.99335691202E+01  0.51100000000E-03 0.  1.
         12    1    3    3    0    0  0.62431733518E+00 -0.17610422591E+02  0.19436141626E+02  0.26235097813E+02  0.00000000000E+00 0. -1.
</event>
<event>
 7    1  0.1736465E-010  0.4778728E+02  0.7816164E-02  0.1312668E+00
        -11   -1    0    0    0    0  0.00000000000E+00  0.00000000000E+00  0.45593999997E+02  0.45594000000E+02  0.51100000000E-03 0. -1.
         11   -1    0    0    0    0 -0.00000000000E+00 -0.00000000000E+00 -0.45593999997E+02  0.45594000000E+02  0.51100000000E-03 0.  1.
    9900012    2    1    2    0    0 -0.50113381707E+01 -0.36109053979E+02 -0.23550906462E+02  0.47787280137E+02  0.20000041454E+02 0.  0.
         12    1    1    2    0    0  0.50113381707E+01  0.36109053979E+02  0.23550906462E+02  0.43400719863E+02  0.00000000000E+00 0. -1.
         11    1    3    3    0    0 -0.95987626158E+00 -0.14953763640E+02 -0.73472051157E+01  0.16688853547E+02  0.51100000000E-03 0. -1.
        -11    1    3    3    0    0  0.22927683743E+01 -0.19532779695E+02 -0.99377168712E+01  0.22035074003E+02  0.51100000000E-03 0.  1.
         12    1    3    3    0    0 -0.63442302834E+01 -0.16225106440E+01 -0.62659844748E+01  0.90633525870E+01  0.00000000000E+00 0. -1.
</event>
<event>
 7    1  0.1736465E-010  0.4778727E+02  0.7816164E-02  0.1312668E+00
        -11   -1    0    0    0    0  0.00000000000E+00  0.00000000000E+00  0.45593999997E+02  0.45594000000E+02  0.51100000000E-03 0.  1.
         11   -1    0    0    0    0 -0.00000000000E+00 -0.00000000000E+00 -0.45593999997E+02  0.45594000000E+02  0.51100000000E-03 0. -1.
    9900012    2    1    2    0    0 -0.23156959023E+02 -0.33281388401E+02  0.15483137609E+02  0.47787272871E+02  0.20000008329E+02 0.  0.
         12    1    1    2    0    0  0.23156959023E+02  0.33281388401E+02 -0.15483137609E+02  0.43400727129E+02  0.00000000000E+00 0. -1.
         11    1    3    3    0    0 -0.12071549550E+01 -0.63023278401E+00 -0.29342612245E+01  0.32348579014E+01  0.51100000000E-03 0. -1.
        -11    1    3    3    0    0  0.33909746238E+00 -0.50379005764E+01  0.28870878601E+01  0.58164169280E+01  0.51100000000E-03 0.  1.
        -12    1    3    3    0    0 -0.22288901530E+02 -0.27613255040E+02  0.15530310974E+02  0.38735998042E+02  0.00000000000E+00 0.  1.
</event>
<event>
 7    1  0.2096085E-010  0.4778727E+02  0.7816164E-02  0.1312668E+00
        -11   -1    0    0    0    0  0.00000000000E+00  0.00000000000E+00  0.45593999997E+02  0.45594000000E+02  0.51100000000E-03 0. -1.
         11   -1    0    0    0    0 -0.00000000000E+00 -0.00000000000E+00 -0.45593999997E+02  0.45594000000E+02  0.51100000000E-03 0.  1.
    9900012    2    1    2    0    0  0.15738195493E+02  0.33876822158E+02  0.22097372081E+02  0.47787265792E+02  0.19999976052E+02 0.  0.
         12    1    1    2    0    0 -0.15738195493E+02 -0.33876822158E+02 -0.22097372081E+02  0.43400734208E+02  0.00000000000E+00 0. -1.
         11    1    3    3    0    0  0.39335397408E+01  0.27490645559E+01  0.64114950041E+01  0.80085803532E+01  0.51100000000E-03 0. -1.
        -11    1    3    3    0    0  0.75095339057E+01  0.15522626998E+02  0.60322872844E-02  0.17243696966E+02  0.51100000000E-03 0.  1.
        -12    1    3    3    0    0  0.42951218463E+01  0.15605130604E+02  0.15679844790E+02  0.22534988473E+02  0.00000000000E+00 0.  1.
</event>
<event>
 7    1  0.1736465E-010  0.4778727E+02  0.7816164E-02  0.1312668E+00
        -11   -1    0    0    0    0  0.00000000000E+00  0.00000000000E+00  0.45593999997E+02  0.45594000000E+02  0.51100000000E-03 0. -1.
         11   -1    0    0    0    0 -0.00000000000E+00 -0.00000000000E+00 -0.45593999997E+02  0.45594000000E+02  0.51100000000E-03 0.  1.
    9900012    2    1    2    0    0 -0.38149954078E+02 -0.14137132384E+02 -0.15111106931E+02  0.47787273498E+02  0.20000011187E+02 0.  0.
         12    1    1    2    0    0  0.38149954078E+02  0.14137132384E+02  0.15111106931E+02  0.43400726502E+02  0.00000000000E+00 0. -1.
         11    1    3    3    0    0 -0.53679650947E+01 -0.10183057120E+02 -0.15597266678E+01  0.11616473179E+02  0.51100000000E-03 0. -1.
        -11    1    3    3    0    0 -0.11764450766E+02 -0.30715890181E+01 -0.74828421362E+01  0.14276900490E+02  0.51100000000E-03 0.  1.
         12    1    3    3    0    0 -0.21017538218E+02 -0.88248624509E+00 -0.60685381275E+01  0.21893899829E+02  0.00000000000E+00 0. -1.
</event>
<event>
 7    1  0.1736465E-010  0.4778728E+02  0.7816164E-02  0.1312668E+00
        -11   -1    0    0    0    0  0.00000000000E+00  0.00000000000E+00  0.45593999997E+02  0.45594000000E+02  0.51100000000E-03 0.  1.
         11   -1    0    0    0    0 -0.00000000000E+00 -0.00000000000E+00 -0.45593999997E+02  0.45594000000E+02  0.51100000000E-03 0. -1.
    9900012    2    1    2    0    0  0.43515347870E+01 -0.22755226534E+02  0.36699947458E+02  0.47787281884E+02  0.20000049420E+02 0.  0.
         12    1    1    2    0    0 -0.43515347870E+01  0.22755226534E+02 -0.36699947458E+02  0.43400718116E+02  0.00000000000E+00 0. -1.
         11    1    3    3    0    0  0.35488218101E+01 -0.14145555339E+01  0.16136533499E+02  0.16582605864E+02  0.51100000000E-03 0. -1.
        -11    1    3    3    0    0 -0.59995213413E+00 -0.63956272671E+01  0.93034208374E+00  0.64907262580E+01  0.51100000000E-03 0.  1.
        -12    1    3    3    0    0  0.14026651110E+01 -0.14945043733E+02  0.19633071875E+02  0.24713949762E+02  0.00000000000E+00 0.  1.
</event>
<event>
 7    1  0.1736465E-010  0.4778727E+02  0.7816164E-02  0.1312668E+00
        -11   -1    0    0    0    0  0.00000000000E+00  0.00000000000E+00  0.45593999997E+02  0.45594000000E+02  0.51100000000E-03 0.  1.
         11   -1    0    0    0    0 -0.00000000000E+00 -0.00000000000E+00 -0.45593999997E+02  0.45594000000E+02  0.51100000000E-03 0. -1.
    9900012    2    1    2    0    0 -0.22122186032E+02 -0.36981506987E+02  0.51575526974E+01  0.47787270470E+02  0.19999997383E+02 0.  0.
         12    1    1    2    0    0  0.22122186032E+02  0.36981506987E+02 -0.51575526974E+01  0.43400729530E+02  0.00000000000E+00 0. -1.
         11    1    3    3    0    0 -0.23701419941E+02 -0.29695296301E+02  0.42389076386E+00  0.37996678977E+02  0.51100000000E-03 0.  1.
        -11    1    3    3    0    0  0.12404944658E+01 -0.54683486943E+01  0.11009831551E+01  0.57143528183E+01  0.51100000000E-03 0. -1.
        -12    1    3    3    0    0  0.33873944304E+00 -0.18178619920E+01  0.36326787785E+01  0.40762386755E+01  0.00000000000E+00 0.  1.
</event>
<event>
 7    1  0.1736465E-010  0.4778727E+02  0.7816164E-02  0.1312668E+00
        -11   -1    0    0    0    0  0.00000000000E+00  0.00000000000E+00  0.45593999997E+02  0.45594000000E+02  0.51100000000E-03 0.  1.
         11   -1    0    0    0    0 -0.00000000000E+00 -0.00000000000E+00 -0.45593999997E+02  0.45594000000E+02  0.51100000000E-03 0. -1.
    9900012    2    1    2    0    0  0.25259023537E+02  0.34127731225E+02  0.89946061380E+01  0.47787271340E+02  0.20000001349E+02 0.  0.
         12    1    1    2    0    0 -0.25259023537E+02 -0.34127731225E+02 -0.89946061380E+01  0.43400728660E+02  0.00000000000E+00 0. -1.
         11    1    3    3    0    0  0.42794438507E+01  0.93873166356E+01 -0.26067292219E+01  0.10640976966E+02  0.51100000000E-03 0. -1.
        -11    1    3    3    0    0  0.18969928646E+02  0.13700742178E+02  0.43918311632E+01  0.23808752808E+02  0.51100000000E-03 0.  1.
         12    1    3    3    0    0  0.20096510401E+01  0.11039672412E+02  0.72095041967E+01  0.13337541566E+02  0.00000000000E+00 0. -1.
</event>
<event>
 7    1  0.1736465E-010  0.4778727E+02  0.7816164E-02  0.1312668E+00
        -11   -1    0    0    0    0  0.00000000000E+00  0.00000000000E+00  0.45593999997E+02  0.45594000000E+02  0.51100000000E-03 0.  1.
         11   -1    0    0    0    0 -0.00000000000E+00 -0.00000000000E+00 -0.45593999997E+02  0.45594000000E+02  0.51100000000E-03 0. -1.
    9900012    2    1    2    0    0  0.16721488370E+02 -0.14224018855E+02  0.37439184089E+02  0.47787269695E+02  0.19999993849E+02 0.  0.
         12    1    1    2    0    0 -0.16721488370E+02  0.14224018855E+02 -0.37439184089E+02  0.43400730305E+02  0.00000000000E+00 0. -1.
         11    1    3    3    0    0  0.41159795196E+01 -0.73430090965E+01  0.19329525816E+01  0.86369772456E+01  0.51100000000E-03 0. -1.
        -11    1    3    3    0    0  0.80155145033E+01 -0.76382702524E+01  0.18896162670E+02  0.21901064109E+02  0.51100000000E-03 0.  1.
        -12    1    3    3    0    0  0.45899943470E+01  0.75726049342E+00  0.16610068837E+02  0.17249228341E+02  0.00000000000E+00 0.  1.
</event>
<event>
 7    1  0.1736465E-010  0.4778727E+02  0.7816164E-02  0.1312668E+00
        -11   -1    0    0    0    0  0.00000000000E+00  0.00000000000E+00  0.45593999997E+02  0.45594000000E+02  0.51100000000E-03 0.  1.
         11   -1    0    0    0    0 -0.00000000000E+00 -0.00000000000E+00 -0.45593999997E+02  0.45594000000E+02  0.51100000000E-03 0. -1.
    9900012    2    1    2    0    0 -0.24534174927E+02 -0.78419291974E+00  0.35792217451E+02  0.47787268117E+02  0.19999986654E+02 0.  0.
         12    1    1    2    0    0  0.24534174927E+02  0.78419291974E+00 -0.35792217451E+02  0.43400731883E+02  0.00000000000E+00 0. -1.
         11    1    3    3    0    0  0.10772941865E+01  0.42250432954E+00 -0.54263722444E+00  0.12780954938E+01  0.51100000000E-03 0. -1.
        -11    1    3    3    0    0 -0.25800911636E+01 -0.25137867972E+01  0.16103919828E+00  0.36058186808E+01  0.51100000000E-03 0.  1.
        -12    1    3    3    0    0 -0.23031377950E+02  0.13070895479E+01  0.36173815477E+02  0.42903353943E+02  0.00000000000E+00 0.  1.
</event>
<event>
 7    1  0.1736465E-010  0.4778727E+02  0.7816164E-02  0.1312668E+00
        -11   -1    0    0    0    0  0.00000000000E+00  0.00000000000E+00  0.45593999997E+02  0.45594000000E+02  0.51100000000E-03 0. -1.
         11   -1    0    0    0    0 -0.00000000000E+00 -0.00000000000E+00 -0.45593999997E+02  0.45594000000E+02  0.51100000000E-03 0.  1.
    9900012    2    1    2    0    0 -0.38041728079E+02 -0.13456222922E+02 -0.15980618218E+02  0.47787272251E+02  0.20000005499E+02 0.  0.
         12    1    1    2    0    0  0.38041728079E+02  0.13456222922E+02  0.15980618218E+02  0.43400727749E+02  0.00000000000E+00 0. -1.
         11    1    3    3    0    0 -0.10148186291E+02  0.14440757358E+00 -0.79585004521E+00  0.10180369154E+02  0.51100000000E-03 0. -1.
        -11    1    3    3    0    0 -0.19974967319E+02 -0.16403222362E+02 -0.98729052045E+01  0.27668380521E+02  0.51100000000E-03 0.  1.
         12    1    3    3    0    0 -0.79185744688E+01  0.28025918664E+01 -0.53118629686E+01  0.99385225756E+01  0.00000000000E+00 0. -1.
</event>
<event>
 7    1  0.1736465E-010  0.4778728E+02  0.7816164E-02  0.1312668E+00
        -11   -1    0    0    0    0  0.00000000000E+00  0.00000000000E+00  0.45593999997E+02  0.45594000000E+02  0.51100000000E-03 0.  1.
         11   -1    0    0    0    0 -0.00000000000E+00 -0.00000000000E+00 -0.45593999997E+02  0.45594000000E+02  0.51100000000E-03 0. -1.
    9900012    2    1    2    0    0  0.35962013068E+02  0.12846326165E+02  0.20623485798E+02  0.47787278275E+02  0.20000032967E+02 0.  0.
         12    1    1    2    0    0 -0.35962013068E+02 -0.12846326165E+02 -0.20623485798E+02  0.43400721725E+02  0.00000000000E+00 0. -1.
         11    1    3    3    0    0 -0.98470979309E+00  0.38627694880E+01 -0.19224512781E+00  0.39909397320E+01  0.51100000000E-03 0. -1.
        -11    1    3    3    0    0  0.18414216314E+02  0.74929065389E+01  0.95267758561E+01  0.22045100801E+02  0.51100000000E-03 0.  1.
        -12    1    3    3    0    0  0.18532506547E+02  0.14906501378E+01  0.11288955069E+02  0.21751237742E+02  0.00000000000E+00 0.  1.
</event>
<event>
 7    1  0.1736465E-010  0.4778727E+02  0.7816164E-02  0.1312668E+00
        -11   -1    0    0    0    0  0.00000000000E+00  0.00000000000E+00  0.45593999997E+02  0.45594000000E+02  0.51100000000E-03 0.  1.
         11   -1    0    0    0    0 -0.00000000000E+00 -0.00000000000E+00 -0.45593999997E+02  0.45594000000E+02  0.51100000000E-03 0. -1.
    9900012    2    1    2    0    0  0.13914099458E+02 -0.27179347768E+02  0.30843218506E+02  0.47787271473E+02  0.20000001956E+02 0.  0.
         12    1    1    2    0    0 -0.13914099458E+02  0.27179347768E+02 -0.30843218506E+02  0.43400728527E+02  0.00000000000E+00 0. -1.
         11    1    3    3    0    0  0.62846672147E+00 -0.44423020684E+01 -0.32974085381E+00  0.44986383917E+01  0.51100000000E-03 0. -1.
        -11    1    3    3    0    0  0.74451088169E+01 -0.16333863691E+01  0.47890894935E+01  0.90018317449E+01  0.51100000000E-03 0.  1.
        -12    1    3    3    0    0  0.58405239196E+01 -0.21103659330E+02  0.26383869866E+02  0.34286801337E+02  0.00000000000E+00 0.  1.
</event>
<event>
 7    1  0.1736465E-010  0.4778728E+02  0.7816164E-02  0.1312668E+00
        -11   -1    0    0    0    0  0.00000000000E+00  0.00000000000E+00  0.45593999997E+02  0.45594000000E+02  0.51100000000E-03 0.  1.
         11   -1    0    0    0    0 -0.00000000000E+00 -0.00000000000E+00 -0.45593999997E+02  0.45594000000E+02  0.51100000000E-03 0. -1.
    9900012    2    1    2    0    0 -0.17889691695E+02  0.29657937558E+02  0.26153175512E+02  0.47787275138E+02  0.20000018665E+02 0.  0.
         12    1    1    2    0    0  0.17889691695E+02 -0.29657937558E+02 -0.26153175512E+02  0.43400724862E+02  0.00000000000E+00 0. -1.
         11    1    3    3    0    0 -0.16301538014E+01  0.62548996175E+00 -0.11843527842E+01  0.21098177379E+01  0.51100000000E-03 0. -1.
        -11    1    3    3    0    0 -0.10893925624E+02  0.29031044595E+02  0.24974133833E+02  0.39814400997E+02  0.51100000000E-03 0.  1.
        -12    1    3    3    0    0 -0.53656122697E+01  0.14030013332E-02  0.23633944628E+01  0.58630564029E+01  0.00000000000E+00 0.  1.
</event>
<event>
 7    1  0.1736465E-010  0.4778727E+02  0.7816164E-02  0.1312668E+00
        -11   -1    0    0    0    0  0.00000000000E+00  0.00000000000E+00  0.45593999997E+02  0.45594000000E+02  0.51100000000E-03 0.  1.
         11   -1    0    0    0    0 -0.00000000000E+00 -0.00000000000E+00 -0.45593999997E+02  0.45594000000E+02  0.51100000000E-03 0. -1.
    9900012    2    1    2    0    0 -0.35183187267E+02  0.24935901246E+02  0.48956415774E+01  0.47787272544E+02  0.20000006837E+02 0.  0.
         12    1    1    2    0    0  0.35183187267E+02 -0.24935901246E+02 -0.48956415774E+01  0.43400727456E+02  0.00000000000E+00 0. -1.
         11    1    3    3    0    0 -0.43064127428E+01  0.54248063250E+01  0.42412719295E+01  0.81217056224E+01  0.51100000000E-03 0. -1.
        -11    1    3    3    0    0 -0.10046491710E+02  0.29811278989E+00 -0.42389583242E+01  0.10908237019E+02  0.51100000000E-03 0.  1.
        -12    1    3    3    0    0 -0.20830282814E+02  0.19212982132E+02  0.48933279720E+01  0.28757329903E+02  0.00000000000E+00 0.  1.
</event>
<event>
 7    1  0.1736465E-010  0.4778727E+02  0.7816164E-02  0.1312668E+00
        -11   -1    0    0    0    0  0.00000000000E+00  0.00000000000E+00  0.45593999997E+02  0.45594000000E+02  0.51100000000E-03 0.  1.
         11   -1    0    0    0    0 -0.00000000000E+00 -0.00000000000E+00 -0.45593999997E+02  0.45594000000E+02  0.51100000000E-03 0. -1.
    9900012    2    1    2    0    0  0.35082561816E+02 -0.10398602970E+02  0.23338944141E+02  0.47787269581E+02  0.19999993327E+02 0.  0.
         12    1    1    2    0    0 -0.35082561816E+02  0.10398602970E+02 -0.23338944141E+02  0.43400730419E+02  0.00000000000E+00 0. -1.
         11    1    3    3    0    0  0.14036857214E+02 -0.50218098717E+00  0.83458893407E+01  0.16338280673E+02  0.51100000000E-03 0. -1.
        -11    1    3    3    0    0  0.21409032304E+01 -0.67268044487E+01  0.88488083579E+01  0.11319663173E+02  0.51100000000E-03 0.  1.
         12    1    3    3    0    0  0.18904801372E+02 -0.31696175341E+01  0.61442464420E+01  0.20129325735E+02  0.00000000000E+00 0. -1.
</event>
<event>
 7    1  0.1736465E-010  0.4778727E+02  0.7816164E-02  0.1312668E+00
        -11   -1    0    0    0    0  0.00000000000E+00  0.00000000000E+00  0.45593999997E+02  0.45594000000E+02  0.51100000000E-03 0.  1.
         11   -1    0    0    0    0 -0.00000000000E+00 -0.00000000000E+00 -0.45593999997E+02  0.45594000000E+02  0.51100000000E-03 0. -1.
    9900012    2    1    2    0    0 -0.16139149676E+02  0.64054040972E+01  0.39775898011E+02  0.47787269401E+02  0.19999992508E+02 0.  0.
         12    1    1    2    0    0  0.16139149676E+02 -0.64054040972E+01 -0.39775898011E+02  0.43400730599E+02  0.00000000000E+00 0. -1.
         11    1    3    3    0    0  0.79633719581E+00  0.33094051916E+01  0.76521321923E+00  0.34888203141E+01  0.51100000000E-03 0. -1.
        -11    1    3    3    0    0 -0.33081728901E+01 -0.22815760839E+00  0.55205609787E+00  0.33616707098E+01  0.51100000000E-03 0.  1.
        -12    1    3    3    0    0 -0.13627313981E+02  0.33241565140E+01  0.38458628694E+02  0.40936778377E+02  0.00000000000E+00 0.  1.
</event>
<event>
 7    1  0.1736465E-010  0.4778727E+02  0.7816164E-02  0.1312668E+00
        -11   -1    0    0    0    0  0.00000000000E+00  0.00000000000E+00  0.45593999997E+02  0.45594000000E+02  0.51100000000E-03 0.  1.
         11   -1    0    0    0    0 -0.00000000000E+00 -0.00000000000E+00 -0.45593999997E+02  0.45594000000E+02  0.51100000000E-03 0. -1.
    9900012    2    1    2    0    0  0.37981759156E+02 -0.17433028289E+02  0.11708912193E+02  0.47787272718E+02  0.20000007630E+02 0.  0.
         12    1    1    2    0    0 -0.37981759156E+02  0.17433028289E+02 -0.11708912193E+02  0.43400727282E+02  0.00000000000E+00 0. -1.
         11    1    3    3    0    0  0.19778251170E+02 -0.13484244065E+02 -0.15330822619E+00  0.23937994089E+02  0.51100000000E-03 0. -1.
        -11    1    3    3    0    0  0.49810766672E+01 -0.49591942297E+01  0.64046598320E+01  0.95091745171E+01  0.51100000000E-03 0.  1.
        -12    1    3    3    0    0  0.13222431319E+02  0.10104100066E+01  0.54575605870E+01  0.14340104112E+02  0.00000000000E+00 0.  1.
</event>
<event>
 7    1  0.1736465E-010  0.4778727E+02  0.7816164E-02  0.1312668E+00
        -11   -1    0    0    0    0  0.00000000000E+00  0.00000000000E+00  0.45593999997E+02  0.45594000000E+02  0.51100000000E-03 0.  1.
         11   -1    0    0    0    0 -0.00000000000E+00 -0.00000000000E+00 -0.45593999997E+02  0.45594000000E+02  0.51100000000E-03 0. -1.
    9900012    2    1    2    0    0  0.12202116425E-01  0.22039835840E+02  0.37388085907E+02  0.47787268664E+02  0.19999989146E+02 0.  0.
         12    1    1    2    0    0 -0.12202116425E-01 -0.22039835840E+02 -0.37388085907E+02  0.43400731336E+02  0.00000000000E+00 0. -1.
         11    1    3    3    0    0 -0.41022868133E+01  0.42610543990E+01  0.14916930988E+01  0.61000401845E+01  0.51100000000E-03 0. -1.
        -11    1    3    3    0    0  0.56206778896E+01  0.41010652529E+01  0.81494729034E+01  0.10715627140E+02  0.51100000000E-03 0.  1.
        -12    1    3    3    0    0 -0.15061889598E+01  0.13677716188E+02  0.27746919905E+02  0.30971601339E+02  0.00000000000E+00 0.  1.
</event>
<event>
 7    1  0.1736465E-010  0.4778727E+02  0.7816164E-02  0.1312668E+00
        -11   -1    0    0    0    0  0.00000000000E+00  0.00000000000E+00  0.45593999997E+02  0.45594000000E+02  0.51100000000E-03 0.  1.
         11   -1    0    0    0    0 -0.00000000000E+00 -0.00000000000E+00 -0.45593999997E+02  0.45594000000E+02  0.51100000000E-03 0. -1.
    9900012    2    1    2    0    0  0.13601253804E+01  0.98498892212E+01  0.42246340099E+02  0.47787268318E+02  0.19999987571E+02 0.  0.
         12    1    1    2    0    0 -0.13601253804E+01 -0.98498892212E+01 -0.42246340099E+02  0.43400731682E+02  0.00000000000E+00 0. -1.
         11    1    3    3    0    0  0.77541761836E+01  0.16868348474E+01  0.19856430254E+02  0.21383416069E+02  0.51100000000E-03 0.  1.
        -11    1    3    3    0    0 -0.12238989651E+01  0.84138761164E+01  0.16506015636E+02  0.18567169747E+02  0.51100000000E-03 0. -1.
        -12    1    3    3    0    0 -0.51701518381E+01 -0.25082174259E+00  0.58838942089E+01  0.78366825020E+01  0.00000000000E+00 0.  1.
</event>
<event>
 7    1  0.1736465E-010  0.4778727E+02  0.7816164E-02  0.1312668E+00
        -11   -1    0    0    0    0  0.00000000000E+00  0.00000000000E+00  0.45593999997E+02  0.45594000000E+02  0.51100000000E-03 0. -1.
         11   -1    0    0    0    0 -0.00000000000E+00 -0.00000000000E+00 -0.45593999997E+02  0.45594000000E+02  0.51100000000E-03 0.  1.
    9900012    2    1    2    0    0  0.32965283763E+02  0.22176475781E+02 -0.17467605402E+02  0.47787271318E+02  0.20000001246E+02 0.  0.
         12    1    1    2    0    0 -0.32965283763E+02 -0.22176475781E+02  0.17467605402E+02  0.43400728682E+02  0.00000000000E+00 0. -1.
         11    1    3    3    0    0  0.18603586515E+01  0.67638499878E+01 -0.42667181418E+01  0.82106933284E+01  0.51100000000E-03 0. -1.
        -11    1    3    3    0    0  0.26359112133E+02  0.17972180456E+02 -0.10893326623E+02  0.33711520701E+02  0.51100000000E-03 0.  1.
        -12    1    3    3    0    0  0.47458129793E+01 -0.25595546631E+01 -0.23075606368E+01  0.58650572887E+01  0.00000000000E+00 0.  1.
</event>
<event>
 7    1  0.1736465E-010  0.4778727E+02  0.7816164E-02  0.1312668E+00
        -11   -1    0    0    0    0  0.00000000000E+00  0.00000000000E+00  0.45593999997E+02  0.45594000000E+02  0.51100000000E-03 0.  1.
         11   -1    0    0    0    0 -0.00000000000E+00 -0.00000000000E+00 -0.45593999997E+02  0.45594000000E+02  0.51100000000E-03 0. -1.
    9900012    2    1    2    0    0 -0.10555936150E+01  0.18981064779E+01  0.43346352933E+02  0.47787269606E+02  0.19999993443E+02 0.  0.
         12    1    1    2    0    0  0.10555936150E+01 -0.18981064779E+01 -0.43346352933E+02  0.43400730394E+02  0.00000000000E+00 0. -1.
         11    1    3    3    0    0 -0.70916046077E+00  0.50202981125E+01  0.33075312119E+01  0.60535993158E+01  0.51100000000E-03 0. -1.
        -11    1    3    3    0    0 -0.22326365974E+01  0.69944612896E+00  0.11409151830E+01  0.26029941950E+01  0.51100000000E-03 0.  1.
        -12    1    3    3    0    0  0.18862034432E+01 -0.38216377636E+01  0.38897906538E+02  0.39130676095E+02  0.00000000000E+00 0.  1.
</event>
<event>
 7    1  0.1736465E-010  0.4778727E+02  0.7816164E-02  0.1312668E+00
        -11   -1    0    0    0    0  0.00000000000E+00  0.00000000000E+00  0.45593999997E+02  0.45594000000E+02  0.51100000000E-03 0.  1.
         11   -1    0    0    0    0 -0.00000000000E+00 -0.00000000000E+00 -0.45593999997E+02  0.45594000000E+02  0.51100000000E-03 0. -1.
    9900012    2    1    2    0    0  0.23241368491E+02 -0.17914883373E+02  0.31976852445E+02  0.47787270192E+02  0.19999996113E+02 0.  0.
         12    1    1    2    0    0 -0.23241368491E+02  0.17914883373E+02 -0.31976852445E+02  0.43400729808E+02  0.00000000000E+00 0. -1.
         11    1    3    3    0    0 -0.51174382426E+00 -0.90574275688E+01  0.87627365220E+01  0.12612867538E+02  0.51100000000E-03 0. -1.
        -11    1    3    3    0    0  0.14039933421E+02 -0.88135678700E+01  0.12886381703E+02  0.20996607886E+02  0.51100000000E-03 0.  1.
        -12    1    3    3    0    0  0.97131788941E+01 -0.43887934233E-01  0.10327734220E+02  0.14177794768E+02  0.00000000000E+00 0.  1.
</event>
<event>
 7    1  0.1736465E-010  0.4778727E+02  0.7816164E-02  0.1312668E+00
        -11   -1    0    0    0    0  0.00000000000E+00  0.00000000000E+00  0.45593999997E+02  0.45594000000E+02  0.51100000000E-03 0.  1.
         11   -1    0    0    0    0 -0.00000000000E+00 -0.00000000000E+00 -0.45593999997E+02  0.45594000000E+02  0.51100000000E-03 0. -1.
    9900012    2    1    2    0    0 -0.38936647970E+02  0.68238758083E+01  0.17916340066E+02  0.47787273306E+02  0.20000010311E+02 0.  0.
         12    1    1    2    0    0  0.38936647970E+02 -0.68238758083E+01 -0.17916340066E+02  0.43400726694E+02  0.00000000000E+00 0. -1.
         11    1    3    3    0    0 -0.18105899779E+02 -0.11565391130E+01  0.62706015822E+01  0.19195875442E+02  0.51100000000E-03 0.  1.
        -11    1    3    3    0    0 -0.16003848139E+02  0.11649032390E+02  0.10549659680E+02  0.22430301614E+02  0.51100000000E-03 0. -1.
         12    1    3    3    0    0 -0.48269000525E+01 -0.36686174691E+01  0.10960788037E+01  0.61610962495E+01  0.00000000000E+00 0. -1.
</event>
<event>
 7    1  0.1736465E-010  0.4778727E+02  0.7816164E-02  0.1312668E+00
        -11   -1    0    0    0    0  0.00000000000E+00  0.00000000000E+00  0.45593999997E+02  0.45594000000E+02  0.51100000000E-03 0. -1.
         11   -1    0    0    0    0 -0.00000000000E+00 -0.00000000000E+00 -0.45593999997E+02  0.45594000000E+02  0.51100000000E-03 0.  1.
    9900012    2    1    2    0    0 -0.39872281579E+02 -0.13671859215E+02 -0.10339471127E+02  0.47787271482E+02  0.20000001994E+02 0.  0.
         12    1    1    2    0    0  0.39872281579E+02  0.13671859215E+02  0.10339471127E+02  0.43400728518E+02  0.00000000000E+00 0. -1.
         11    1    3    3    0    0 -0.22200717153E+02 -0.14594896371E+02 -0.31903249101E+01  0.26759316424E+02  0.51100000000E-03 0. -1.
        -11    1    3    3    0    0 -0.37808185289E+01 -0.33572387843E+01 -0.62176398748E+00  0.50943332950E+01  0.51100000000E-03 0.  1.
        -12    1    3    3    0    0 -0.13890745897E+02  0.42802759402E+01 -0.65273822298E+01  0.15933621763E+02  0.00000000000E+00 0.  1.
</event>
<event>
 7    1  0.1736465E-010  0.4778727E+02  0.7816164E-02  0.1312668E+00
        -11   -1    0    0    0    0  0.00000000000E+00  0.00000000000E+00  0.45593999997E+02  0.45594000000E+02  0.51100000000E-03 0.  1.
         11   -1    0    0    0    0 -0.00000000000E+00 -0.00000000000E+00 -0.45593999997E+02  0.45594000000E+02  0.51100000000E-03 0. -1.
    9900012    2    1    2    0    0  0.10367600458E+02 -0.39619934723E+02  0.14366520103E+02  0.47787271128E+02  0.20000000382E+02 0.  0.
         12    1    1    2    0    0 -0.10367600458E+02  0.39619934723E+02 -0.14366520103E+02  0.43400728872E+02  0.00000000000E+00 0. -1.
         11    1    3    3    0    0  0.52571219799E+01 -0.19061347437E+01  0.17782542578E+00  0.55948461388E+01  0.51100000000E-03 0. -1.
        -11    1    3    3    0    0 -0.27191703880E+01 -0.14351767176E+02  0.21329890740E+01  0.14762003635E+02  0.51100000000E-03 0.  1.
         12    1    3    3    0    0  0.78296488657E+01 -0.23362032804E+02  0.12055705604E+02  0.27430421354E+02  0.00000000000E+00 0. -1.
</event>
<event>
 7    1  0.1736465E-010  0.4778727E+02  0.7816164E-02  0.1312668E+00
        -11   -1    0    0    0    0  0.00000000000E+00  0.00000000000E+00  0.45593999997E+02  0.45594000000E+02  0.51100000000E-03 0.  1.
         11   -1    0    0    0    0 -0.00000000000E+00 -0.00000000000E+00 -0.45593999997E+02  0.45594000000E+02  0.51100000000E-03 0. -1.
    9900012    2    1    2    0    0  0.24947526743E+02 -0.16346607230E+02  0.31528288406E+02  0.47787266961E+02  0.19999981381E+02 0.  0.
         12    1    1    2    0    0 -0.24947526743E+02  0.16346607230E+02 -0.31528288406E+02  0.43400733039E+02  0.00000000000E+00 0. -1.
         11    1    3    3    0    0  0.12820776898E+02 -0.90919117319E+01  0.84765565010E+01  0.17857412735E+02  0.51100000000E-03 0. -1.
        -11    1    3    3    0    0  0.10989604436E+02 -0.10738782260E+02  0.17636614064E+02  0.23391088175E+02  0.51100000000E-03 0.  1.
         12    1    3    3    0    0  0.11371454090E+01  0.34840867615E+01  0.54151178409E+01  0.65387660513E+01  0.00000000000E+00 0. -1.
</event>
<event>
 7    1  0.1736465E-010  0.4778727E+02  0.7816164E-02  0.1312668E+00
        -11   -1    0    0    0    0  0.00000000000E+00  0.00000000000E+00  0.45593999997E+02  0.45594000000E+02  0.51100000000E-03 0.  1.
         11   -1    0    0    0    0 -0.00000000000E+00 -0.00000000000E+00 -0.45593999997E+02  0.45594000000E+02  0.51100000000E-03 0. -1.
    9900012    2    1    2    0    0 -0.18785048977E+02  0.17532376100E+02  0.34976577590E+02  0.47787271242E+02  0.20000000903E+02 0.  0.
         12    1    1    2    0    0  0.18785048977E+02 -0.17532376100E+02 -0.34976577590E+02  0.43400728758E+02  0.00000000000E+00 0. -1.
         11    1    3    3    0    0 -0.34431044680E+01  0.10111656327E+02  0.93918751596E+01  0.14223497506E+02  0.51100000000E-03 0.  1.
        -11    1    3    3    0    0 -0.15997097456E+02  0.10059324683E+02  0.23390090260E+02  0.30069809822E+02  0.51100000000E-03 0. -1.
         12    1    3    3    0    0  0.65515294701E+00 -0.26386049096E+01  0.21946121703E+01  0.34939639139E+01  0.00000000000E+00 0. -1.
</event>
<event>
 7    1  0.1736465E-010  0.4778727E+02  0.7816164E-02  0.1312668E+00
        -11   -1    0    0    0    0  0.00000000000E+00  0.00000000000E+00  0.45593999997E+02  0.45594000000E+02  0.51100000000E-03 0.  1.
         11   -1    0    0    0    0 -0.00000000000E+00 -0.00000000000E+00 -0.45593999997E+02  0.45594000000E+02  0.51100000000E-03 0. -1.
    9900012    2    1    2    0    0 -0.26167562389E+02 -0.32684356035E+02  0.11428687340E+02  0.47787270224E+02  0.19999996260E+02 0.  0.
         12    1    1    2    0    0  0.26167562389E+02  0.32684356035E+02 -0.11428687340E+02  0.43400729776E+02  0.00000000000E+00 0. -1.
         11    1    3    3    0    0 -0.82073223889E+01 -0.14389783698E+01  0.54675599502E+00  0.83504336369E+01  0.51100000000E-03 0. -1.
        -11    1    3    3    0    0 -0.95280812094E+00 -0.10778849456E+02  0.60293438609E+01  0.12387268729E+02  0.51100000000E-03 0.  1.
        -12    1    3    3    0    0 -0.17007431879E+02 -0.20466528209E+02  0.48525874838E+01  0.27049567859E+02  0.00000000000E+00 0.  1.
</event>
<event>
 7    1  0.1736465E-010  0.4778727E+02  0.7816164E-02  0.1312668E+00
        -11   -1    0    0    0    0  0.00000000000E+00  0.00000000000E+00  0.45593999997E+02  0.45594000000E+02  0.51100000000E-03 0.  1.
         11   -1    0    0    0    0 -0.00000000000E+00 -0.00000000000E+00 -0.45593999997E+02  0.45594000000E+02  0.51100000000E-03 0. -1.
    9900012    2    1    2    0    0 -0.19244042679E+02  0.23573339943E+02  0.30944919310E+02  0.47787267682E+02  0.19999984668E+02 0.  0.
         12    1    1    2    0    0  0.19244042679E+02 -0.23573339943E+02 -0.30944919310E+02  0.43400732318E+02  0.00000000000E+00 0. -1.
         11    1    3    3    0    0  0.10838349429E+01  0.30828176520E+01  0.19917875482E+01  0.38269675668E+01  0.51100000000E-03 0. -1.
        -11    1    3    3    0    0 -0.22681938070E+02  0.15764199453E+02  0.25875718348E+02  0.37848818995E+02  0.51100000000E-03 0.  1.
        -12    1    3    3    0    0  0.23540604488E+01  0.47263228380E+01  0.30774134137E+01  0.61114811203E+01  0.00000000000E+00 0.  1.
</event>
<event>
 7    1  0.2929391E-010  0.4778727E+02  0.7816164E-02  0.1312668E+00
        -11   -1    0    0    0    0  0.00000000000E+00  0.00000000000E+00  0.45593999997E+02  0.45594000000E+02  0.51100000000E-03 0. -1.
         11   -1    0    0    0    0 -0.00000000000E+00 -0.00000000000E+00 -0.45593999997E+02  0.45594000000E+02  0.51100000000E-03 0.  1.
    9900012    2    1    2    0    0 -0.22659188516E+02  0.69764559209E+01 -0.36352626970E+02  0.47787271330E+02  0.20000001304E+02 0.  0.
         12    1    1    2    0    0  0.22659188516E+02 -0.69764559209E+01  0.36352626970E+02  0.43400728670E+02  0.00000000000E+00 0. -1.
         11    1    3    3    0    0 -0.46176821907E+01 -0.13935599033E+01 -0.18497772919E+01  0.51659146634E+01  0.51100000000E-03 0. -1.
        -11    1    3    3    0    0 -0.15215542784E+02  0.12552105572E+02 -0.24833251285E+02  0.31713695245E+02  0.51100000000E-03 0.  1.
        -12    1    3    3    0    0 -0.28259635414E+01 -0.41820897477E+01 -0.96695983937E+01  0.10907661422E+02  0.00000000000E+00 0.  1.
</event>
<event>
 7    1  0.1736465E-010  0.4778728E+02  0.7816164E-02  0.1312668E+00
        -11   -1    0    0    0    0  0.00000000000E+00  0.00000000000E+00  0.45593999997E+02  0.45594000000E+02  0.51100000000E-03 0. -1.
         11   -1    0    0    0    0 -0.00000000000E+00 -0.00000000000E+00 -0.45593999997E+02  0.45594000000E+02  0.51100000000E-03 0.  1.
    9900012    2    1    2    0    0 -0.84787603660E+01 -0.13435835126E+02 -0.40388263646E+02  0.47787275545E+02  0.20000020520E+02 0.  0.
         12    1    1    2    0    0  0.84787603660E+01  0.13435835126E+02  0.40388263646E+02  0.43400724455E+02  0.00000000000E+00 0. -1.
         11    1    3    3    0    0 -0.79628062240E+01 -0.25730222350E+01 -0.10065945446E+02  0.13090071977E+02  0.51100000000E-03 0. -1.
        -11    1    3    3    0    0 -0.84194391599E+00 -0.14739475188E+01 -0.22239248591E+02  0.22303936177E+02  0.51100000000E-03 0.  1.
        -12    1    3    3    0    0  0.32598977398E+00 -0.93888653726E+01 -0.80830696091E+01  0.12393267391E+02  0.00000000000E+00 0.  1.
</event>
<event>
 7    1  0.1736465E-010  0.4778727E+02  0.7816164E-02  0.1312668E+00
        -11   -1    0    0    0    0  0.00000000000E+00  0.00000000000E+00  0.45593999997E+02  0.45594000000E+02  0.51100000000E-03 0.  1.
         11   -1    0    0    0    0 -0.00000000000E+00 -0.00000000000E+00 -0.45593999997E+02  0.45594000000E+02  0.51100000000E-03 0. -1.
    9900012    2    1    2    0    0 -0.29826485636E+02  0.22876284197E+02  0.21695151375E+02  0.47787271696E+02  0.20000002973E+02 0.  0.
         12    1    1    2    0    0  0.29826485636E+02 -0.22876284197E+02 -0.21695151375E+02  0.43400728304E+02  0.00000000000E+00 0. -1.
         11    1    3    3    0    0 -0.22469055169E+01 -0.20181322307E+01  0.72828149651E+01  0.78842143666E+01  0.51100000000E-03 0. -1.
        -11    1    3    3    0    0 -0.94338754625E+01  0.90395073816E+01  0.60318777481E+01  0.14390769589E+02  0.51100000000E-03 0.  1.
         12    1    3    3    0    0 -0.18145704657E+02  0.15854909046E+02  0.83804586619E+01  0.25512287740E+02  0.00000000000E+00 0. -1.
</event>
<event>
 7    1  0.1736465E-010  0.4778727E+02  0.7816164E-02  0.1312668E+00
        -11   -1    0    0    0    0  0.00000000000E+00  0.00000000000E+00  0.45593999997E+02  0.45594000000E+02  0.51100000000E-03 0.  1.
         11   -1    0    0    0    0 -0.00000000000E+00 -0.00000000000E+00 -0.45593999997E+02  0.45594000000E+02  0.51100000000E-03 0. -1.
    9900012    2    1    2    0    0 -0.37572463938E+02  0.21608215462E+02 -0.22401447459E+01  0.47787271086E+02  0.20000000187E+02 0.  0.
         12    1    1    2    0    0  0.37572463938E+02 -0.21608215462E+02  0.22401447459E+01  0.43400728914E+02  0.00000000000E+00 0. -1.
         11    1    3    3    0    0 -0.91794942615E+01  0.14928750590E+02 -0.50393716743E+01  0.18235294793E+02  0.51100000000E-03 0. -1.
        -11    1    3    3    0    0 -0.14895255923E+02  0.47136493821E+01 -0.21275916850E-01  0.15623302866E+02  0.51100000000E-03 0.  1.
         12    1    3    3    0    0 -0.13497713753E+02  0.19658154895E+01  0.28205028452E+01  0.13928673426E+02  0.00000000000E+00 0. -1.
</event>
<event>
 7    1  0.1736465E-010  0.4778727E+02  0.7816164E-02  0.1312668E+00
        -11   -1    0    0    0    0  0.00000000000E+00  0.00000000000E+00  0.45593999997E+02  0.45594000000E+02  0.51100000000E-03 0.  1.
         11   -1    0    0    0    0 -0.00000000000E+00 -0.00000000000E+00 -0.45593999997E+02  0.45594000000E+02  0.51100000000E-03 0. -1.
    9900012    2    1    2    0    0  0.23423106257E+01  0.21641312986E+02  0.37547171922E+02  0.47787274590E+02  0.20000016163E+02 0.  0.
         12    1    1    2    0    0 -0.23423106257E+01 -0.21641312986E+02 -0.37547171922E+02  0.43400725410E+02  0.00000000000E+00 0. -1.
         11    1    3    3    0    0 -0.18685133759E+01  0.66055648887E+01  0.70390298069E+01  0.98322312126E+01  0.51100000000E-03 0. -1.
        -11    1    3    3    0    0  0.10500971382E+02  0.97574110334E+01  0.18386289369E+02  0.23313796496E+02  0.51100000000E-03 0.  1.
        -12    1    3    3    0    0 -0.62901473805E+01  0.52783370636E+01  0.12121852746E+02  0.14641246880E+02  0.00000000000E+00 0.  1.
</event>
<event>
 7    1  0.1736465E-010  0.4778725E+02  0.7816164E-02  0.1312668E+00
        -11   -1    0    0    0    0  0.00000000000E+00  0.00000000000E+00  0.45593999997E+02  0.45594000000E+02  0.51100000000E-03 0.  1.
         11   -1    0    0    0    0 -0.00000000000E+00 -0.00000000000E+00 -0.45593999997E+02  0.45594000000E+02  0.51100000000E-03 0. -1.
    9900012    2    1    2    0    0 -0.36453374068E+01 -0.14613448538E+02  0.40703609513E+02  0.47787248966E+02  0.19999899334E+02 0.  0.
         12    1    1    2    0    0  0.36453374068E+01  0.14613448538E+02 -0.40703609513E+02  0.43400751034E+02  0.00000000000E+00 0. -1.
         11    1    3    3    0    0 -0.11593959285E+01 -0.64650438866E+00 -0.10032317518E+01  0.16639233914E+01  0.51100000000E-03 0. -1.
        -11    1    3    3    0    0 -0.49030746217E+01 -0.24283590317E+00  0.17668455898E+02  0.18337760063E+02  0.51100000000E-03 0.  1.
        -12    1    3    3    0    0  0.24171331434E+01 -0.13724108246E+02  0.24038385366E+02  0.27785565511E+02  0.00000000000E+00 0.  1.
</event>
<event>
 7    1  0.1736465E-010  0.4778728E+02  0.7816164E-02  0.1312668E+00
        -11   -1    0    0    0    0  0.00000000000E+00  0.00000000000E+00  0.45593999997E+02  0.45594000000E+02  0.51100000000E-03 0.  1.
         11   -1    0    0    0    0 -0.00000000000E+00 -0.00000000000E+00 -0.45593999997E+02  0.45594000000E+02  0.51100000000E-03 0. -1.
    9900012    2    1    2    0    0  0.27898463659E+01  0.92252257753E+01  0.42317069919E+02  0.47787280652E+02  0.20000043805E+02 0.  0.
         12    1    1    2    0    0 -0.27898463659E+01 -0.92252257753E+01 -0.42317069919E+02  0.43400719348E+02  0.00000000000E+00 0. -1.
         11    1    3    3    0    0 -0.68506427206E+01  0.62872079699E+01  0.21366996782E+02  0.23302550107E+02  0.51100000000E-03 0. -1.
        -11    1    3    3    0    0  0.57022929871E+00  0.16847250477E+01  0.10243447832E+02  0.10396715043E+02  0.51100000000E-03 0.  1.
        -12    1    3    3    0    0  0.90702597879E+01  0.12532927577E+01  0.10706625306E+02  0.14088015502E+02  0.00000000000E+00 0.  1.
</event>
<event>
 7    1  0.1736465E-010  0.4778727E+02  0.7816164E-02  0.1312668E+00
        -11   -1    0    0    0    0  0.00000000000E+00  0.00000000000E+00  0.45593999997E+02  0.45594000000E+02  0.51100000000E-03 0. -1.
         11   -1    0    0    0    0 -0.00000000000E+00 -0.00000000000E+00 -0.45593999997E+02  0.45594000000E+02  0.51100000000E-03 0.  1.
    9900012    2    1    2    0    0 -0.10601373376E+02  0.16104945664E+01 -0.42055203597E+02  0.47787274663E+02  0.20000016496E+02 0.  0.
         12    1    1    2    0    0  0.10601373376E+02 -0.16104945664E+01  0.42055203597E+02  0.43400725337E+02  0.00000000000E+00 0. -1.
         11    1    3    3    0    0  0.40181388522E+01 -0.90952219367E+00 -0.15080301554E+02  0.15632919295E+02  0.51100000000E-03 0. -1.
        -11    1    3    3    0    0 -0.67992724916E+01 -0.34794778325E+01 -0.11364960179E+02  0.13693034453E+02  0.51100000000E-03 0.  1.
        -12    1    3    3    0    0 -0.78202397368E+01  0.59994945926E+01 -0.15609941864E+02  0.18461320914E+02  0.00000000000E+00 0.  1.
</event>
<event>
 7    1  0.1736465E-010  0.4778729E+02  0.7816164E-02  0.1312668E+00
        -11   -1    0    0    0    0  0.00000000000E+00  0.00000000000E+00  0.45593999997E+02  0.45594000000E+02  0.51100000000E-03 0.  1.
         11   -1    0    0    0    0 -0.00000000000E+00 -0.00000000000E+00 -0.45593999997E+02  0.45594000000E+02  0.51100000000E-03 0. -1.
    9900012    2    1    2    0    0 -0.41134538869E+02  0.13514740581E+02  0.29871723895E+01  0.47787289178E+02  0.20000082680E+02 0.  0.
         12    1    1    2    0    0  0.41134538869E+02 -0.13514740581E+02 -0.29871723895E+01  0.43400710822E+02  0.00000000000E+00 0. -1.
         11    1    3    3    0    0 -0.88717042323E+01 -0.10689344527E+01 -0.39392329314E+00  0.89445476505E+01  0.51100000000E-03 0. -1.
        -11    1    3    3    0    0 -0.14769869568E+02  0.10741724915E+02  0.86020874183E+01  0.20187362617E+02  0.51100000000E-03 0.  1.
        -12    1    3    3    0    0 -0.17492965069E+02  0.38419501191E+01 -0.52209917357E+01  0.18655378911E+02  0.00000000000E+00 0.  1.
</event>
<event>
 7    1  0.1736465E-010  0.4778727E+02  0.7816164E-02  0.1312668E+00
        -11   -1    0    0    0    0  0.00000000000E+00  0.00000000000E+00  0.45593999997E+02  0.45594000000E+02  0.51100000000E-03 0.  1.
         11   -1    0    0    0    0 -0.00000000000E+00 -0.00000000000E+00 -0.45593999997E+02  0.45594000000E+02  0.51100000000E-03 0. -1.
    9900012    2    1    2    0    0 -0.34409185374E+02  0.19044702585E+02 -0.18355664990E+02  0.47787272220E+02  0.20000005358E+02 0.  0.
         12    1    1    2    0    0  0.34409185374E+02 -0.19044702585E+02  0.18355664990E+02  0.43400727780E+02  0.00000000000E+00 0. -1.
         11    1    3    3    0    0  0.11748891043E+01 -0.84573971447E-01  0.16715959113E+01  0.20449328389E+01  0.51100000000E-03 0. -1.
        -11    1    3    3    0    0 -0.13536667508E+02  0.95213006629E+01 -0.46280967883E+01  0.17184755269E+02  0.51100000000E-03 0.  1.
        -12    1    3    3    0    0 -0.22047406970E+02  0.96079758936E+01 -0.15399164113E+02  0.28557584111E+02  0.00000000000E+00 0.  1.
</event>
<event>
 7    1  0.1736465E-010  0.4778727E+02  0.7816164E-02  0.1312668E+00
        -11   -1    0    0    0    0  0.00000000000E+00  0.00000000000E+00  0.45593999997E+02  0.45594000000E+02  0.51100000000E-03 0. -1.
         11   -1    0    0    0    0 -0.00000000000E+00 -0.00000000000E+00 -0.45593999997E+02  0.45594000000E+02  0.51100000000E-03 0.  1.
    9900012    2    1    2    0    0 -0.43262083089E+02 -0.16799899599E+01 -0.30319836608E+01  0.47787272767E+02  0.20000007854E+02 0.  0.
         12    1    1    2    0    0  0.43262083089E+02  0.16799899599E+01  0.30319836608E+01  0.43400727233E+02  0.00000000000E+00 0. -1.
         11    1    3    3    0    0 -0.55819033283E+01  0.64078290486E+01 -0.27889666306E+01  0.89440624445E+01  0.51100000000E-03 0. -1.
        -11    1    3    3    0    0 -0.95764695690E+01 -0.28558227483E+01  0.19159168513E+01  0.10175226318E+02  0.51100000000E-03 0.  1.
         12    1    3    3    0    0 -0.28103710191E+02 -0.52319962602E+01 -0.21589338815E+01  0.28667984005E+02  0.00000000000E+00 0. -1.
</event>
<event>
 7    1  0.1736465E-010  0.4778727E+02  0.7816164E-02  0.1312668E+00
        -11   -1    0    0    0    0  0.00000000000E+00  0.00000000000E+00  0.45593999997E+02  0.45594000000E+02  0.51100000000E-03 0.  1.
         11   -1    0    0    0    0 -0.00000000000E+00 -0.00000000000E+00 -0.45593999997E+02  0.45594000000E+02  0.51100000000E-03 0. -1.
    9900012    2    1    2    0    0  0.41787566876E+02 -0.34794035223E-01  0.11722697150E+02  0.47787267466E+02  0.19999983683E+02 0.  0.
         12    1    1    2    0    0 -0.41787566876E+02  0.34794035223E-01 -0.11722697150E+02  0.43400732534E+02  0.00000000000E+00 0. -1.
         11    1    3    3    0    0  0.10033506682E+02  0.45812452738E+00 -0.47448013739E+01  0.11108297563E+02  0.51100000000E-03 0. -1.
        -11    1    3    3    0    0  0.63953268661E+01 -0.29875652233E+01  0.54504415673E+01  0.89181312632E+01  0.51100000000E-03 0.  1.
        -12    1    3    3    0    0  0.25358733328E+02  0.24946466607E+01  0.11017056956E+02  0.27760838639E+02  0.00000000000E+00 0.  1.
</event>
<event>
 7    1  0.1736465E-010  0.4778727E+02  0.7816164E-02  0.1312668E+00
        -11   -1    0    0    0    0  0.00000000000E+00  0.00000000000E+00  0.45593999997E+02  0.45594000000E+02  0.51100000000E-03 0.  1.
         11   -1    0    0    0    0 -0.00000000000E+00 -0.00000000000E+00 -0.45593999997E+02  0.45594000000E+02  0.51100000000E-03 0. -1.
    9900012    2    1    2    0    0  0.57676708475E+01 -0.42865283362E+02  0.35951117416E+01  0.47787269901E+02  0.19999994785E+02 0.  0.
         12    1    1    2    0    0 -0.57676708475E+01  0.42865283362E+02 -0.35951117416E+01  0.43400730099E+02  0.00000000000E+00 0. -1.
         11    1    3    3    0    0  0.52250540470E+01 -0.11005666367E+02 -0.21054601560E+01  0.12363609696E+02  0.51100000000E-03 0. -1.
        -11    1    3    3    0    0 -0.46281195594E+01 -0.23950612031E+02  0.10960484818E-01  0.24393675978E+02  0.51100000000E-03 0.  1.
         12    1    3    3    0    0  0.51707363598E+01 -0.79090049642E+01  0.56896114128E+01  0.11029984227E+02  0.00000000000E+00 0. -1.
</event>
<event>
 7    1  0.1736465E-010  0.4778727E+02  0.7816164E-02  0.1312668E+00
        -11   -1    0    0    0    0  0.00000000000E+00  0.00000000000E+00  0.45593999997E+02  0.45594000000E+02  0.51100000000E-03 0.  1.
         11   -1    0    0    0    0 -0.00000000000E+00 -0.00000000000E+00 -0.45593999997E+02  0.45594000000E+02  0.51100000000E-03 0. -1.
    9900012    2    1    2    0    0  0.14578377315E+02  0.39542812565E+02 -0.10366297580E+02  0.47787271479E+02  0.20000001979E+02 0.  0.
         12    1    1    2    0    0 -0.14578377315E+02 -0.39542812565E+02  0.10366297580E+02  0.43400728521E+02  0.00000000000E+00 0. -1.
         11    1    3    3    0    0  0.32874062021E+01  0.92798918051E+01  0.21409863523E+01  0.10075080857E+02  0.51100000000E-03 0. -1.
        -11    1    3    3    0    0  0.14342664623E+02  0.19616667651E+02 -0.10428019920E+02  0.26443700156E+02  0.51100000000E-03 0.  1.
         12    1    3    3    0    0 -0.30516935104E+01  0.10646253109E+02 -0.20792640115E+01  0.11268490466E+02  0.00000000000E+00 0. -1.
</event>
<event>
 7    1  0.2287999E-010  0.4778727E+02  0.7816164E-02  0.1312668E+00
        -11   -1    0    0    0    0  0.00000000000E+00  0.00000000000E+00  0.45593999997E+02  0.45594000000E+02  0.51100000000E-03 0.  1.
         11   -1    0    0    0    0 -0.00000000000E+00 -0.00000000000E+00 -0.45593999997E+02  0.45594000000E+02  0.51100000000E-03 0. -1.
    9900012    2    1    2    0    0  0.29005720563E+02  0.30364747815E+02 -0.10966927034E+02  0.47787271622E+02  0.20000002632E+02 0.  0.
         12    1    1    2    0    0 -0.29005720563E+02 -0.30364747815E+02  0.10966927034E+02  0.43400728378E+02  0.00000000000E+00 0. -1.
         11    1    3    3    0    0  0.76196110870E+01  0.12419425438E+01  0.18720663956E+01  0.79438987437E+01  0.51100000000E-03 0. -1.
        -11    1    3    3    0    0  0.73663573878E+00  0.82558932178E+01 -0.38645639248E+01  0.91453408698E+01  0.51100000000E-03 0.  1.
        -12    1    3    3    0    0  0.20649473737E+02  0.20866912053E+02 -0.89744295045E+01  0.30698032008E+02  0.00000000000E+00 0.  1.
</event>
<event>
 7    1  0.1736465E-010  0.4778728E+02  0.7816164E-02  0.1312668E+00
        -11   -1    0    0    0    0  0.00000000000E+00  0.00000000000E+00  0.45593999997E+02  0.45594000000E+02  0.51100000000E-03 0. -1.
         11   -1    0    0    0    0 -0.00000000000E+00 -0.00000000000E+00 -0.45593999997E+02  0.45594000000E+02  0.51100000000E-03 0.  1.
    9900012    2    1    2    0    0  0.21899777856E+02  0.36372858462E+02 -0.90020797599E+01  0.47787279466E+02  0.20000038399E+02 0.  0.
         12    1    1    2    0    0 -0.21899777856E+02 -0.36372858462E+02  0.90020797599E+01  0.43400720534E+02  0.00000000000E+00 0. -1.
         11    1    3    3    0    0  0.13060424382E+00 -0.47386589566E-01  0.19723463459E+01  0.19772337562E+01  0.51100000000E-03 0. -1.
        -11    1    3    3    0    0  0.21499670711E+02  0.24699543731E+02 -0.84186862323E+01  0.33810909177E+02  0.51100000000E-03 0.  1.
         12    1    3    3    0    0  0.26950290136E+00  0.11720701320E+02 -0.25557398735E+01  0.11999136533E+02  0.00000000000E+00 0. -1.
</event>
<event>
 7    1  0.1736465E-010  0.4778727E+02  0.7816164E-02  0.1312668E+00
        -11   -1    0    0    0    0  0.00000000000E+00  0.00000000000E+00  0.45593999997E+02  0.45594000000E+02  0.51100000000E-03 0.  1.
         11   -1    0    0    0    0 -0.00000000000E+00 -0.00000000000E+00 -0.45593999997E+02  0.45594000000E+02  0.51100000000E-03 0. -1.
    9900012    2    1    2    0    0 -0.21642853809E+01  0.43318805170E+02 -0.15557630814E+01  0.47787269461E+02  0.19999992781E+02 0.  0.
         12    1    1    2    0    0  0.21642853809E+01 -0.43318805170E+02  0.15557630814E+01  0.43400730539E+02  0.00000000000E+00 0. -1.
         11    1    3    3    0    0 -0.43068453627E+01  0.61386574972E+01  0.97587840679E+00  0.75620348962E+01  0.51100000000E-03 0. -1.
        -11    1    3    3    0    0 -0.23728919840E+01  0.10920329848E+02  0.54181496629E+01  0.12419362560E+02  0.51100000000E-03 0.  1.
        -12    1    3    3    0    0  0.45154519658E+01  0.26259817824E+02 -0.79497911511E+01  0.27805872005E+02  0.00000000000E+00 0.  1.
</event>
<event>
 7    1  0.1736465E-010  0.4778728E+02  0.7816164E-02  0.1312668E+00
        -11   -1    0    0    0    0  0.00000000000E+00  0.00000000000E+00  0.45593999997E+02  0.45594000000E+02  0.51100000000E-03 0.  1.
         11   -1    0    0    0    0 -0.00000000000E+00 -0.00000000000E+00 -0.45593999997E+02  0.45594000000E+02  0.51100000000E-03 0. -1.
    9900012    2    1    2    0    0  0.26003661134E+02  0.28994482473E+02  0.19150768597E+02  0.47787281756E+02  0.20000048839E+02 0.  0.
         12    1    1    2    0    0 -0.26003661134E+02 -0.28994482473E+02 -0.19150768597E+02  0.43400718244E+02  0.00000000000E+00 0. -1.
         11    1    3    3    0    0  0.15907077228E+02  0.11967224035E+02  0.66057174644E+01  0.20973437022E+02  0.51100000000E-03 0. -1.
        -11    1    3    3    0    0  0.11575151928E+02  0.90038984172E+01  0.44602795746E+01  0.15328027369E+02  0.51100000000E-03 0.  1.
         12    1    3    3    0    0 -0.14785680220E+01  0.80233600204E+01  0.80847715578E+01  0.11485817366E+02  0.00000000000E+00 0. -1.
</event>
<event>
 7    1  0.1736465E-010  0.4778727E+02  0.7816164E-02  0.1312668E+00
        -11   -1    0    0    0    0  0.00000000000E+00  0.00000000000E+00  0.45593999997E+02  0.45594000000E+02  0.51100000000E-03 0.  1.
         11   -1    0    0    0    0 -0.00000000000E+00 -0.00000000000E+00 -0.45593999997E+02  0.45594000000E+02  0.51100000000E-03 0. -1.
    9900012    2    1    2    0    0  0.11503506264E+01 -0.43129855974E+02  0.47026957484E+01  0.47787272700E+02  0.20000007549E+02 0.  0.
         12    1    1    2    0    0 -0.11503506264E+01  0.43129855974E+02 -0.47026957484E+01  0.43400727300E+02  0.00000000000E+00 0. -1.
         11    1    3    3    0    0 -0.50371956145E+01 -0.23978117567E+02  0.32789044891E+01  0.24719924688E+02  0.51100000000E-03 0. -1.
        -11    1    3    3    0    0  0.46071313595E+01 -0.13326567667E+02  0.61677604847E+01  0.15390397487E+02  0.51100000000E-03 0.  1.
         12    1    3    3    0    0  0.15804148813E+01 -0.58251707401E+01 -0.47439692254E+01  0.76769505247E+01  0.00000000000E+00 0. -1.
</event>
<event>
 7    1  0.1736465E-010  0.4778727E+02  0.7816164E-02  0.1312668E+00
        -11   -1    0    0    0    0  0.00000000000E+00  0.00000000000E+00  0.45593999997E+02  0.45594000000E+02  0.51100000000E-03 0.  1.
         11   -1    0    0    0    0 -0.00000000000E+00 -0.00000000000E+00 -0.45593999997E+02  0.45594000000E+02  0.51100000000E-03 0. -1.
    9900012    2    1    2    0    0 -0.83286105866E+01 -0.15695190918E+02  0.39596949476E+02  0.47787272125E+02  0.20000004926E+02 0.  0.
         12    1    1    2    0    0  0.83286105866E+01  0.15695190918E+02 -0.39596949476E+02  0.43400727875E+02  0.00000000000E+00 0. -1.
         11    1    3    3    0    0  0.71108379271E-01 -0.35863415250E+00 -0.79863115295E+00  0.87834323389E+00  0.51100000000E-03 0. -1.
        -11    1    3    3    0    0 -0.10606288109E+02 -0.12301433857E+02  0.39955521777E+02  0.43130758667E+02  0.51100000000E-03 0.  1.
        -12    1    3    3    0    0  0.22065691432E+01 -0.30351229082E+01  0.44005885197E+00  0.37781702244E+01  0.00000000000E+00 0.  1.
</event>
<event>
 7    1  0.1736465E-010  0.4778727E+02  0.7816164E-02  0.1312668E+00
        -11   -1    0    0    0    0  0.00000000000E+00  0.00000000000E+00  0.45593999997E+02  0.45594000000E+02  0.51100000000E-03 0.  1.
         11   -1    0    0    0    0 -0.00000000000E+00 -0.00000000000E+00 -0.45593999997E+02  0.45594000000E+02  0.51100000000E-03 0. -1.
    9900012    2    1    2    0    0 -0.13585404780E+02 -0.49510210869E+01  0.40921230524E+02  0.47787274886E+02  0.20000017514E+02 0.  0.
         12    1    1    2    0    0  0.13585404780E+02  0.49510210869E+01 -0.40921230524E+02  0.43400725114E+02  0.00000000000E+00 0. -1.
         11    1    3    3    0    0 -0.48809376925E-01  0.18288685665E+01  0.13633847015E+02  0.13756050570E+02  0.51100000000E-03 0. -1.
        -11    1    3    3    0    0 -0.79640561780E+01 -0.98096293406E+01  0.23395343334E+02  0.26589417229E+02  0.51100000000E-03 0.  1.
        -12    1    3    3    0    0 -0.55725392251E+01  0.30297396871E+01  0.38920401745E+01  0.74418070862E+01  0.00000000000E+00 0.  1.
</event>
<event>
 7    1  0.1736465E-010  0.4778727E+02  0.7816164E-02  0.1312668E+00
        -11   -1    0    0    0    0  0.00000000000E+00  0.00000000000E+00  0.45593999997E+02  0.45594000000E+02  0.51100000000E-03 0.  1.
         11   -1    0    0    0    0 -0.00000000000E+00 -0.00000000000E+00 -0.45593999997E+02  0.45594000000E+02  0.51100000000E-03 0. -1.
    9900012    2    1    2    0    0  0.26871922124E+02  0.40394216551E+01  0.33840893245E+02  0.47787272108E+02  0.20000004850E+02 0.  0.
         12    1    1    2    0    0 -0.26871922124E+02 -0.40394216551E+01 -0.33840893245E+02  0.43400727892E+02  0.00000000000E+00 0. -1.
         11    1    3    3    0    0  0.28773817490E+01 -0.20550681672E+01  0.12824823432E+02  0.13303335191E+02  0.51100000000E-03 0. -1.
        -11    1    3    3    0    0  0.18607952887E+02  0.58905972380E+01  0.21540558413E+02  0.29068035769E+02  0.51100000000E-03 0.  1.
         12    1    3    3    0    0  0.53865874880E+01  0.20389258437E+00 -0.52448859963E+00  0.54159011478E+01  0.00000000000E+00 0. -1.
</event>
<event>
 7    1  0.1736465E-010  0.4778727E+02  0.7816164E-02  0.1312668E+00
        -11   -1    0    0    0    0  0.00000000000E+00  0.00000000000E+00  0.45593999997E+02  0.45594000000E+02  0.51100000000E-03 0.  1.
         11   -1    0    0    0    0 -0.00000000000E+00 -0.00000000000E+00 -0.45593999997E+02  0.45594000000E+02  0.51100000000E-03 0. -1.
    9900012    2    1    2    0    0 -0.38216511116E+02  0.17868201623E+02  0.10190623003E+02  0.47787272491E+02  0.20000006595E+02 0.  0.
         12    1    1    2    0    0  0.38216511116E+02 -0.17868201623E+02 -0.10190623003E+02  0.43400727509E+02  0.00000000000E+00 0. -1.
         11    1    3    3    0    0 -0.18993998671E+02  0.31988439553E+01 -0.14414011591E+01  0.19315336542E+02  0.51100000000E-03 0. -1.
        -11    1    3    3    0    0 -0.17925610209E+02  0.88190673145E+01  0.85028875306E+01  0.21711806610E+02  0.51100000000E-03 0.  1.
         12    1    3    3    0    0 -0.12969022368E+01  0.58502903528E+01  0.31291366314E+01  0.67601293391E+01  0.00000000000E+00 0. -1.
</event>
<event>
 7    1  0.1736465E-010  0.4778727E+02  0.7816164E-02  0.1312668E+00
        -11   -1    0    0    0    0  0.00000000000E+00  0.00000000000E+00  0.45593999997E+02  0.45594000000E+02  0.51100000000E-03 0. -1.
         11   -1    0    0    0    0 -0.00000000000E+00 -0.00000000000E+00 -0.45593999997E+02  0.45594000000E+02  0.51100000000E-03 0.  1.
    9900012    2    1    2    0    0  0.22342290967E+02 -0.29952450056E+02 -0.22074784892E+02  0.47787270075E+02  0.19999995578E+02 0.  0.
         12    1    1    2    0    0 -0.22342290967E+02  0.29952450056E+02  0.22074784892E+02  0.43400729925E+02  0.00000000000E+00 0. -1.
         11    1    3    3    0    0  0.10933790609E+02 -0.13992290876E+02 -0.11403236019E+02  0.21103690981E+02  0.51100000000E-03 0.  1.
        -11    1    3    3    0    0 -0.16584384348E+01 -0.61045750818E+00 -0.56349557198E+01  0.59055738618E+01  0.51100000000E-03 0. -1.
        -12    1    3    3    0    0  0.13066938793E+02 -0.15349701672E+02 -0.50365931538E+01  0.20778005232E+02  0.00000000000E+00 0.  1.
</event>
<event>
 7    1  0.1736465E-010  0.4778727E+02  0.7816164E-02  0.1312668E+00
        -11   -1    0    0    0    0  0.00000000000E+00  0.00000000000E+00  0.45593999997E+02  0.45594000000E+02  0.51100000000E-03 0. -1.
         11   -1    0    0    0    0 -0.00000000000E+00 -0.00000000000E+00 -0.45593999997E+02  0.45594000000E+02  0.51100000000E-03 0.  1.
    9900012    2    1    2    0    0 -0.23907201318E+02 -0.21312862574E+02 -0.29288747038E+02  0.47787273174E+02  0.20000009710E+02 0.  0.
         12    1    1    2    0    0  0.23907201318E+02  0.21312862574E+02  0.29288747038E+02  0.43400726826E+02  0.00000000000E+00 0. -1.
         11    1    3    3    0    0 -0.87358772110E+01 -0.33817131174E+01 -0.68658292388E+01  0.11614264749E+02  0.51100000000E-03 0. -1.
        -11    1    3    3    0    0 -0.14154397020E+01 -0.97676828369E+01 -0.16280169399E+02  0.19038251324E+02  0.51100000000E-03 0.  1.
        -12    1    3    3    0    0 -0.13755884405E+02 -0.81634666200E+01 -0.61427483995E+01  0.17134757101E+02  0.00000000000E+00 0.  1.
</event>
<event>
 7    1  0.1736465E-010  0.4778727E+02  0.7816164E-02  0.1312668E+00
        -11   -1    0    0    0    0  0.00000000000E+00  0.00000000000E+00  0.45593999997E+02  0.45594000000E+02  0.51100000000E-03 0. -1.
         11   -1    0    0    0    0 -0.00000000000E+00 -0.00000000000E+00 -0.45593999997E+02  0.45594000000E+02  0.51100000000E-03 0.  1.
    9900012    2    1    2    0    0  0.33830162525E+02 -0.23790259021E+02 -0.13159292649E+02  0.47787270700E+02  0.19999998429E+02 0.  0.
         12    1    1    2    0    0 -0.33830162525E+02  0.23790259021E+02  0.13159292649E+02  0.43400729300E+02  0.00000000000E+00 0. -1.
         11    1    3    3    0    0  0.21301816449E+02 -0.22436834883E+02 -0.11647217032E+02  0.33058079321E+02  0.51100000000E-03 0. -1.
        -11    1    3    3    0    0 -0.98836145117E+00 -0.30799696750E+00 -0.45546328212E+00  0.11310028968E+01  0.51100000000E-03 0.  1.
        -12    1    3    3    0    0  0.13516707528E+02 -0.10454271709E+01 -0.10566123349E+01  0.13598188482E+02  0.00000000000E+00 0.  1.
</event>
<event>
 7    1  0.1736465E-010  0.4778727E+02  0.7816164E-02  0.1312668E+00
        -11   -1    0    0    0    0  0.00000000000E+00  0.00000000000E+00  0.45593999997E+02  0.45594000000E+02  0.51100000000E-03 0.  1.
         11   -1    0    0    0    0 -0.00000000000E+00 -0.00000000000E+00 -0.45593999997E+02  0.45594000000E+02  0.51100000000E-03 0. -1.
    9900012    2    1    2    0    0 -0.20182169395E+02  0.19894181858E+02  0.32871339639E+02  0.47787269558E+02  0.19999993221E+02 0.  0.
         12    1    1    2    0    0  0.20182169395E+02 -0.19894181858E+02 -0.32871339639E+02  0.43400730442E+02  0.00000000000E+00 0. -1.
         11    1    3    3    0    0 -0.94938611381E+01  0.75255069682E-02  0.13798767805E+02  0.16749311900E+02  0.51100000000E-03 0. -1.
        -11    1    3    3    0    0  0.12005920472E+01  0.52097691386E+01  0.61678862474E+01  0.81624712412E+01  0.51100000000E-03 0.  1.
        -12    1    3    3    0    0 -0.11888900305E+02  0.14676887212E+02  0.12904685587E+02  0.22875486416E+02  0.00000000000E+00 0.  1.
</event>
<event>
 7    1  0.1736465E-010  0.4778727E+02  0.7816164E-02  0.1312668E+00
        -11   -1    0    0    0    0  0.00000000000E+00  0.00000000000E+00  0.45593999997E+02  0.45594000000E+02  0.51100000000E-03 0.  1.
         11   -1    0    0    0    0 -0.00000000000E+00 -0.00000000000E+00 -0.45593999997E+02  0.45594000000E+02  0.51100000000E-03 0. -1.
    9900012    2    1    2    0    0  0.27222736720E+02  0.13628502630E+02  0.30932340952E+02  0.47787271950E+02  0.20000004131E+02 0.  0.
         12    1    1    2    0    0 -0.27222736720E+02 -0.13628502630E+02 -0.30932340952E+02  0.43400728050E+02  0.00000000000E+00 0. -1.
         11    1    3    3    0    0  0.28251906101E+01  0.69026896552E+01  0.16265749923E+02  0.17894229441E+02  0.51100000000E-03 0. -1.
        -11    1    3    3    0    0  0.48117021728E+01  0.17806182918E+01  0.36736520805E+00  0.51437376253E+01  0.51100000000E-03 0.  1.
        -12    1    3    3    0    0  0.19585843937E+02  0.49451946830E+01  0.14299225821E+02  0.24749304884E+02  0.00000000000E+00 0.  1.
</event>
<event>
 7    1  0.1736465E-010  0.4778727E+02  0.7816164E-02  0.1312668E+00
        -11   -1    0    0    0    0  0.00000000000E+00  0.00000000000E+00  0.45593999997E+02  0.45594000000E+02  0.51100000000E-03 0. -1.
         11   -1    0    0    0    0 -0.00000000000E+00 -0.00000000000E+00 -0.45593999997E+02  0.45594000000E+02  0.51100000000E-03 0.  1.
    9900012    2    1    2    0    0 -0.42203047207E+01 -0.26016055085E+02 -0.34481551324E+02  0.47787268718E+02  0.19999989392E+02 0.  0.
         12    1    1    2    0    0  0.42203047207E+01  0.26016055085E+02  0.34481551324E+02  0.43400731282E+02  0.00000000000E+00 0. -1.
         11    1    3    3    0    0 -0.30211108795E+01  0.39911139809E+00 -0.59894860706E+01  0.67201446789E+01  0.51100000000E-03 0. -1.
        -11    1    3    3    0    0  0.52500766104E+01 -0.10446849440E+02 -0.73977556488E+01  0.13835705856E+02  0.51100000000E-03 0.  1.
         12    1    3    3    0    0 -0.64492704516E+01 -0.15968317043E+02 -0.21094309604E+02  0.27231418183E+02  0.00000000000E+00 0. -1.
</event>
<event>
 7    1  0.1736465E-010  0.4778727E+02  0.7816164E-02  0.1312668E+00
        -11   -1    0    0    0    0  0.00000000000E+00  0.00000000000E+00  0.45593999997E+02  0.45594000000E+02  0.51100000000E-03 0.  1.
         11   -1    0    0    0    0 -0.00000000000E+00 -0.00000000000E+00 -0.45593999997E+02  0.45594000000E+02  0.51100000000E-03 0. -1.
    9900012    2    1    2    0    0 -0.29037257757E+01  0.29442101264E+02  0.31754595136E+02  0.47787271176E+02  0.20000000599E+02 0.  0.
         12    1    1    2    0    0  0.29037257757E+01 -0.29442101264E+02 -0.31754595136E+02  0.43400728824E+02  0.00000000000E+00 0. -1.
         11    1    3    3    0    0  0.10373559584E+01  0.81650967425E+01  0.15693385793E+01  0.83790056711E+01  0.51100000000E-03 0. -1.
        -11    1    3    3    0    0  0.28813050936E+01  0.15538688732E+01  0.93997622183E+01  0.99534897166E+01  0.51100000000E-03 0.  1.
        -12    1    3    3    0    0 -0.68223868278E+01  0.19723135648E+02  0.20785494339E+02  0.29454775788E+02  0.00000000000E+00 0.  1.
</event>
<event>
 7    1  0.1736465E-010  0.4778727E+02  0.7816164E-02  0.1312668E+00
        -11   -1    0    0    0    0  0.00000000000E+00  0.00000000000E+00  0.45593999997E+02  0.45594000000E+02  0.51100000000E-03 0. -1.
         11   -1    0    0    0    0 -0.00000000000E+00 -0.00000000000E+00 -0.45593999997E+02  0.45594000000E+02  0.51100000000E-03 0.  1.
    9900012    2    1    2    0    0  0.41771539353E+02 -0.10346181037E+02  0.56319117516E+01  0.47787269684E+02  0.19999993799E+02 0.  0.
         12    1    1    2    0    0 -0.41771539353E+02  0.10346181037E+02 -0.56319117516E+01  0.43400730316E+02  0.00000000000E+00 0. -1.
         11    1    3    3    0    0  0.16846571723E+02 -0.21791766437E+01  0.66455320311E+01  0.18240583485E+02  0.51100000000E-03 0. -1.
        -11    1    3    3    0    0  0.81767612755E+01 -0.33607782155E+01  0.60847147439E+01  0.10732101795E+02  0.51100000000E-03 0.  1.
        -12    1    3    3    0    0  0.16748206355E+02 -0.48062261777E+01 -0.70983350234E+01  0.18814584403E+02  0.00000000000E+00 0.  1.
</event>
<event>
 7    1  0.1736465E-010  0.4778727E+02  0.7816164E-02  0.1312668E+00
        -11   -1    0    0    0    0  0.00000000000E+00  0.00000000000E+00  0.45593999997E+02  0.45594000000E+02  0.51100000000E-03 0.  1.
         11   -1    0    0    0    0 -0.00000000000E+00 -0.00000000000E+00 -0.45593999997E+02  0.45594000000E+02  0.51100000000E-03 0. -1.
    9900012    2    1    2    0    0  0.78633908987E+01 -0.45756723972E+01  0.42436464597E+02  0.47787271645E+02  0.20000002737E+02 0.  0.
         12    1    1    2    0    0 -0.78633908987E+01  0.45756723972E+01 -0.42436464597E+02  0.43400728355E+02  0.00000000000E+00 0. -1.
         11    1    3    3    0    0  0.62131731825E+01 -0.86738618458E-01  0.51486413658E+01  0.80696686895E+01  0.51100000000E-03 0. -1.
        -11    1    3    3    0    0  0.25938380099E+01  0.27886963352E+01  0.25842674058E+02  0.26121803644E+02  0.51100000000E-03 0.  1.
        -12    1    3    3    0    0 -0.94362029372E+00 -0.72776301139E+01  0.11445149173E+02  0.13595799312E+02  0.00000000000E+00 0.  1.
</event>
<event>
 7    1  0.1736465E-010  0.4778728E+02  0.7816164E-02  0.1312668E+00
        -11   -1    0    0    0    0  0.00000000000E+00  0.00000000000E+00  0.45593999997E+02  0.45594000000E+02  0.51100000000E-03 0.  1.
         11   -1    0    0    0    0 -0.00000000000E+00 -0.00000000000E+00 -0.45593999997E+02  0.45594000000E+02  0.51100000000E-03 0. -1.
    9900012    2    1    2    0    0 -0.33816522359E+02  0.19868970119E+02  0.18581972582E+02  0.47787275777E+02  0.20000021577E+02 0.  0.
         12    1    1    2    0    0  0.33816522359E+02 -0.19868970119E+02 -0.18581972582E+02  0.43400724223E+02  0.00000000000E+00 0. -1.
         11    1    3    3    0    0 -0.35669508398E+01  0.71962680258E+01  0.39245087431E+00  0.80413574565E+01  0.51100000000E-03 0. -1.
        -11    1    3    3    0    0 -0.18508640667E+01  0.27114926600E+01 -0.16755012597E+01  0.36858099478E+01  0.51100000000E-03 0.  1.
        -12    1    3    3    0    0 -0.28398707453E+02  0.99612094330E+01  0.19865022968E+02  0.36060108373E+02  0.00000000000E+00 0.  1.
</event>
<event>
 7    1  0.1736465E-010  0.4778728E+02  0.7816164E-02  0.1312668E+00
        -11   -1    0    0    0    0  0.00000000000E+00  0.00000000000E+00  0.45593999997E+02  0.45594000000E+02  0.51100000000E-03 0.  1.
         11   -1    0    0    0    0 -0.00000000000E+00 -0.00000000000E+00 -0.45593999997E+02  0.45594000000E+02  0.51100000000E-03 0. -1.
    9900012    2    1    2    0    0  0.11446435032E+02  0.39204392580E+02  0.14683909779E+02  0.47787280202E+02  0.20000041755E+02 0.  0.
         12    1    1    2    0    0 -0.11446435032E+02 -0.39204392580E+02 -0.14683909779E+02  0.43400719798E+02  0.00000000000E+00 0. -1.
         11    1    3    3    0    0  0.19223767266E+01  0.73996439398E+01 -0.15597635163E+01  0.78027639464E+01  0.51100000000E-03 0. -1.
        -11    1    3    3    0    0  0.19026136565E+00  0.87163371960E+01  0.11825484538E+02  0.14691930381E+02  0.51100000000E-03 0.  1.
         12    1    3    3    0    0  0.93337969399E+01  0.23088411444E+02  0.44181887577E+01  0.25292585875E+02  0.00000000000E+00 0. -1.
</event>
<event>
 7    1  0.2361085E-010  0.4778727E+02  0.7816164E-02  0.1312668E+00
        -11   -1    0    0    0    0  0.00000000000E+00  0.00000000000E+00  0.45593999997E+02  0.45594000000E+02  0.51100000000E-03 0. -1.
         11   -1    0    0    0    0 -0.00000000000E+00 -0.00000000000E+00 -0.45593999997E+02  0.45594000000E+02  0.51100000000E-03 0.  1.
    9900012    2    1    2    0    0  0.15930008102E+02  0.71223808261E+01 -0.39738266095E+02  0.47787271216E+02  0.20000000782E+02 0.  0.
         12    1    1    2    0    0 -0.15930008102E+02 -0.71223808261E+01  0.39738266095E+02  0.43400728784E+02  0.00000000000E+00 0. -1.
         11    1    3    3    0    0  0.65904819275E+00 -0.38380666373E+01 -0.23495684702E+01  0.45481394317E+01  0.51100000000E-03 0. -1.
        -11    1    3    3    0    0  0.16858537294E+01  0.60416500273E+01 -0.17982993022E+02  0.19045515906E+02  0.51100000000E-03 0.  1.
        -12    1    3    3    0    0  0.13585106180E+02  0.49187974361E+01 -0.19405704603E+02  0.24193615878E+02  0.00000000000E+00 0.  1.
</event>
<event>
 7    1  0.1736465E-010  0.4778727E+02  0.7816164E-02  0.1312668E+00
        -11   -1    0    0    0    0  0.00000000000E+00  0.00000000000E+00  0.45593999997E+02  0.45594000000E+02  0.51100000000E-03 0. -1.
         11   -1    0    0    0    0 -0.00000000000E+00 -0.00000000000E+00 -0.45593999997E+02  0.45594000000E+02  0.51100000000E-03 0.  1.
    9900012    2    1    2    0    0 -0.27777121470E+02 -0.75405866438E+01 -0.32483760820E+02  0.47787266814E+02  0.19999980711E+02 0.  0.
         12    1    1    2    0    0  0.27777121470E+02  0.75405866438E+01  0.32483760820E+02  0.43400733186E+02  0.00000000000E+00 0. -1.
         11    1    3    3    0    0 -0.14881890838E+02  0.29829873062E+00 -0.21103999449E+02  0.25825151501E+02  0.51100000000E-03 0. -1.
        -11    1    3    3    0    0 -0.71115206470E+00 -0.41636301867E+01 -0.75854543143E+01  0.86822042712E+01  0.51100000000E-03 0.  1.
        -12    1    3    3    0    0 -0.12184078568E+02 -0.36752551877E+01 -0.37943070564E+01  0.13279911042E+02  0.00000000000E+00 0.  1.
</event>
<event>
 7    1  0.1736465E-010  0.4778727E+02  0.7816164E-02  0.1312668E+00
        -11   -1    0    0    0    0  0.00000000000E+00  0.00000000000E+00  0.45593999997E+02  0.45594000000E+02  0.51100000000E-03 0. -1.
         11   -1    0    0    0    0 -0.00000000000E+00 -0.00000000000E+00 -0.45593999997E+02  0.45594000000E+02  0.51100000000E-03 0.  1.
    9900012    2    1    2    0    0 -0.26255143378E+02  0.23552462889E+02 -0.25289760971E+02  0.47787273371E+02  0.20000010606E+02 0.  0.
         12    1    1    2    0    0  0.26255143378E+02 -0.23552462889E+02  0.25289760971E+02  0.43400726629E+02  0.00000000000E+00 0. -1.
         11    1    3    3    0    0 -0.70556208778E+01  0.37140435783E+01  0.37365786279E+00  0.79822005821E+01  0.51100000000E-03 0. -1.
        -11    1    3    3    0    0 -0.11266046657E+01  0.94831906322E+01 -0.70415588838E+01  0.11865230483E+02  0.51100000000E-03 0.  1.
        -12    1    3    3    0    0 -0.18072917835E+02  0.10355228679E+02 -0.18621859950E+02  0.27939842306E+02  0.00000000000E+00 0.  1.
</event>
<event>
 7    1  0.1736465E-010  0.4778727E+02  0.7816164E-02  0.1312668E+00
        -11   -1    0    0    0    0  0.00000000000E+00  0.00000000000E+00  0.45593999997E+02  0.45594000000E+02  0.51100000000E-03 0. -1.
         11   -1    0    0    0    0 -0.00000000000E+00 -0.00000000000E+00 -0.45593999997E+02  0.45594000000E+02  0.51100000000E-03 0.  1.
    9900012    2    1    2    0    0  0.22478258817E+02  0.34595019638E+02  0.13473531104E+02  0.47787267937E+02  0.19999985833E+02 0.  0.
         12    1    1    2    0    0 -0.22478258817E+02 -0.34595019638E+02 -0.13473531104E+02  0.43400732063E+02  0.00000000000E+00 0. -1.
         11    1    3    3    0    0  0.17344422269E+02  0.16732053902E+02  0.13010943232E+02  0.27387501815E+02  0.51100000000E-03 0. -1.
        -11    1    3    3    0    0 -0.11791083233E+01  0.78487836671E+01  0.26376256628E+01  0.83636577459E+01  0.51100000000E-03 0.  1.
        -12    1    3    3    0    0  0.63129448708E+01  0.10014182069E+02 -0.21750377908E+01  0.12036108376E+02  0.00000000000E+00 0.  1.
</event>
<event>
 7    1  0.1736465E-010  0.4778727E+02  0.7816164E-02  0.1312668E+00
        -11   -1    0    0    0    0  0.00000000000E+00  0.00000000000E+00  0.45593999997E+02  0.45594000000E+02  0.51100000000E-03 0.  1.
         11   -1    0    0    0    0 -0.00000000000E+00 -0.00000000000E+00 -0.45593999997E+02  0.45594000000E+02  0.51100000000E-03 0. -1.
    9900012    2    1    2    0    0 -0.43018540238E+01 -0.12644158760E+02  0.41294581508E+02  0.47787272348E+02  0.20000005945E+02 0.  0.
         12    1    1    2    0    0  0.43018540238E+01  0.12644158760E+02 -0.41294581508E+02  0.43400727652E+02  0.00000000000E+00 0. -1.
         11    1    3    3    0    0 -0.89237805613E+01 -0.47053924521E+01  0.89584931541E+01  0.13491818910E+02  0.51100000000E-03 0. -1.
        -11    1    3    3    0    0  0.16814984526E+01 -0.14595936487E+01  0.15880499477E+01  0.27349138127E+01  0.51100000000E-03 0.  1.
        -12    1    3    3    0    0  0.29404280849E+01 -0.64791726593E+01  0.30748038406E+02  0.31560539626E+02  0.00000000000E+00 0.  1.
</event>
<event>
 7    1  0.1736465E-010  0.4778727E+02  0.7816164E-02  0.1312668E+00
        -11   -1    0    0    0    0  0.00000000000E+00  0.00000000000E+00  0.45593999997E+02  0.45594000000E+02  0.51100000000E-03 0. -1.
         11   -1    0    0    0    0 -0.00000000000E+00 -0.00000000000E+00 -0.45593999997E+02  0.45594000000E+02  0.51100000000E-03 0.  1.
    9900012    2    1    2    0    0  0.36178947089E+02  0.20843874906E+02 -0.11842289621E+02  0.47787272390E+02  0.20000006135E+02 0.  0.
         12    1    1    2    0    0 -0.36178947089E+02 -0.20843874906E+02  0.11842289621E+02  0.43400727610E+02  0.00000000000E+00 0. -1.
         11    1    3    3    0    0  0.53880930152E+01  0.52952566457E+00  0.39276892344E+01  0.66886984349E+01  0.51100000000E-03 0. -1.
        -11    1    3    3    0    0  0.69633099890E+01  0.55256262573E+01 -0.80964042255E+01  0.12023809429E+02  0.51100000000E-03 0.  1.
        -12    1    3    3    0    0  0.23827544085E+02  0.14788722984E+02 -0.76735746303E+01  0.29074764526E+02  0.00000000000E+00 0.  1.
</event>
<event>
 7    1  0.1736465E-010  0.4778727E+02  0.7816164E-02  0.1312668E+00
        -11   -1    0    0    0    0  0.00000000000E+00  0.00000000000E+00  0.45593999997E+02  0.45594000000E+02  0.51100000000E-03 0.  1.
         11   -1    0    0    0    0 -0.00000000000E+00 -0.00000000000E+00 -0.45593999997E+02  0.45594000000E+02  0.51100000000E-03 0. -1.
    9900012    2    1    2    0    0 -0.15130086954E+02  0.30487107692E+02  0.26930284250E+02  0.47787268710E+02  0.19999989358E+02 0.  0.
         12    1    1    2    0    0  0.15130086954E+02 -0.30487107692E+02 -0.26930284250E+02  0.43400731290E+02  0.00000000000E+00 0. -1.
         11    1    3    3    0    0 -0.17650356465E+01 -0.81290868614E-01 -0.62981693747E+00  0.18758008088E+01  0.51100000000E-03 0. -1.
        -11    1    3    3    0    0 -0.10101329289E+02  0.89869228369E+01  0.47240354948E+01  0.14321946345E+02  0.51100000000E-03 0.  1.
        -12    1    3    3    0    0 -0.32637220183E+01  0.21581475724E+02  0.22836065693E+02  0.31589521557E+02  0.00000000000E+00 0.  1.
</event>
<event>
 7    1  0.1736465E-010  0.4778723E+02  0.7816164E-02  0.1312668E+00
        -11   -1    0    0    0    0  0.00000000000E+00  0.00000000000E+00  0.45593999997E+02  0.45594000000E+02  0.51100000000E-03 0.  1.
         11   -1    0    0    0    0 -0.00000000000E+00 -0.00000000000E+00 -0.45593999997E+02  0.45594000000E+02  0.51100000000E-03 0. -1.
    9900012    2    1    2    0    0 -0.74002261221E+01  0.38338168802E+02  0.18948563618E+02  0.47787232761E+02  0.19999825450E+02 0.  0.
         12    1    1    2    0    0  0.74002261221E+01 -0.38338168802E+02 -0.18948563618E+02  0.43400767239E+02  0.00000000000E+00 0. -1.
         11    1    3    3    0    0 -0.10207504080E+01  0.12552297529E+02  0.44298239572E+01  0.13350110307E+02  0.51100000000E-03 0. -1.
        -11    1    3    3    0    0 -0.16290761493E+01  0.26384366029E+02  0.12498583883E+02  0.29240438765E+02  0.51100000000E-03 0.  1.
         12    1    3    3    0    0 -0.47503995648E+01 -0.59849475575E+00  0.20201557779E+01  0.51966836891E+01  0.00000000000E+00 0. -1.
</event>
<event>
 7    1  0.1736465E-010  0.4778727E+02  0.7816164E-02  0.1312668E+00
        -11   -1    0    0    0    0  0.00000000000E+00  0.00000000000E+00  0.45593999997E+02  0.45594000000E+02  0.51100000000E-03 0.  1.
         11   -1    0    0    0    0 -0.00000000000E+00 -0.00000000000E+00 -0.45593999997E+02  0.45594000000E+02  0.51100000000E-03 0. -1.
    9900012    2    1    2    0    0  0.23144941131E+02 -0.13680550904E+02  0.34070182063E+02  0.47787273292E+02  0.20000010246E+02 0.  0.
         12    1    1    2    0    0 -0.23144941131E+02  0.13680550904E+02 -0.34070182063E+02  0.43400726708E+02  0.00000000000E+00 0. -1.
         11    1    3    3    0    0 -0.94112917403E+00  0.14043021622E+01  0.37566344165E+01  0.41194770403E+01  0.51100000000E-03 0. -1.
        -11    1    3    3    0    0  0.98357849885E+01 -0.13199835412E+02  0.11921425360E+02  0.20324829744E+02  0.51100000000E-03 0.  1.
        -12    1    3    3    0    0  0.14250285316E+02 -0.18850176540E+01  0.18392122287E+02  0.23342966507E+02  0.00000000000E+00 0.  1.
</event>
<event>
 7    1  0.1736465E-010  0.4778726E+02  0.7816164E-02  0.1312668E+00
        -11   -1    0    0    0    0  0.00000000000E+00  0.00000000000E+00  0.45593999997E+02  0.45594000000E+02  0.51100000000E-03 0.  1.
         11   -1    0    0    0    0 -0.00000000000E+00 -0.00000000000E+00 -0.45593999997E+02  0.45594000000E+02  0.51100000000E-03 0. -1.
    9900012    2    1    2    0    0 -0.32731222085E+02  0.18578697913E+02  0.21613025804E+02  0.47787264986E+02  0.19999972379E+02 0.  0.
         12    1    1    2    0    0  0.32731222085E+02 -0.18578697913E+02 -0.21613025804E+02  0.43400735014E+02  0.00000000000E+00 0. -1.
         11    1    3    3    0    0 -0.11478432373E+02  0.42396310134E+01  0.12337554802E+02  0.17376539921E+02  0.51100000000E-03 0. -1.
        -11    1    3    3    0    0 -0.14739647395E+02  0.96596880321E+01  0.12667272289E+02  0.21703146447E+02  0.51100000000E-03 0.  1.
         12    1    3    3    0    0 -0.65131423167E+01  0.46793788673E+01 -0.33918012867E+01  0.87075786181E+01  0.00000000000E+00 0. -1.
</event>
<event>
 7    1  0.1736465E-010  0.4778727E+02  0.7816164E-02  0.1312668E+00
        -11   -1    0    0    0    0  0.00000000000E+00  0.00000000000E+00  0.45593999997E+02  0.45594000000E+02  0.51100000000E-03 0.  1.
         11   -1    0    0    0    0 -0.00000000000E+00 -0.00000000000E+00 -0.45593999997E+02  0.45594000000E+02  0.51100000000E-03 0. -1.
    9900012    2    1    2    0    0 -0.37156567757E+02  0.12691138765E+02  0.18491832965E+02  0.47787269395E+02  0.19999992481E+02 0.  0.
         12    1    1    2    0    0  0.37156567757E+02 -0.12691138765E+02 -0.18491832965E+02  0.43400730605E+02  0.00000000000E+00 0. -1.
         11    1    3    3    0    0 -0.40694353120E+01  0.12238132077E+01  0.22035753232E+01  0.47868326681E+01  0.51100000000E-03 0. -1.
        -11    1    3    3    0    0 -0.15866121038E+02  0.19680470803E+01 -0.20394571277E+01  0.16117269984E+02  0.51100000000E-03 0.  1.
         12    1    3    3    0    0 -0.17221011406E+02  0.94992784768E+01  0.18327714770E+02  0.26883166743E+02  0.00000000000E+00 0. -1.
</event>
<event>
 7    1  0.1736465E-010  0.4778728E+02  0.7816164E-02  0.1312668E+00
        -11   -1    0    0    0    0  0.00000000000E+00  0.00000000000E+00  0.45593999997E+02  0.45594000000E+02  0.51100000000E-03 0. -1.
         11   -1    0    0    0    0 -0.00000000000E+00 -0.00000000000E+00 -0.45593999997E+02  0.45594000000E+02  0.51100000000E-03 0.  1.
    9900012    2    1    2    0    0 -0.26244263235E+02 -0.72946393173E+01 -0.33788304643E+02  0.47787278276E+02  0.20000032971E+02 0.  0.
         12    1    1    2    0    0  0.26244263235E+02  0.72946393173E+01  0.33788304643E+02  0.43400721724E+02  0.00000000000E+00 0. -1.
         11    1    3    3    0    0  0.12846175878E+01  0.33280073168E+01 -0.36133170442E+01  0.50775914931E+01  0.51100000000E-03 0. -1.
        -11    1    3    3    0    0 -0.10892608665E+02 -0.76841315246E+01 -0.13091287954E+02  0.18683592303E+02  0.51100000000E-03 0.  1.
        -12    1    3    3    0    0 -0.16636272158E+02 -0.29385151095E+01 -0.17083699645E+02  0.24026094479E+02  0.00000000000E+00 0.  1.
</event>
<event>
 7    1  0.1736465E-010  0.4778727E+02  0.7816164E-02  0.1312668E+00
        -11   -1    0    0    0    0  0.00000000000E+00  0.00000000000E+00  0.45593999997E+02  0.45594000000E+02  0.51100000000E-03 0.  1.
         11   -1    0    0    0    0 -0.00000000000E+00 -0.00000000000E+00 -0.45593999997E+02  0.45594000000E+02  0.51100000000E-03 0. -1.
    9900012    2    1    2    0    0 -0.13848010426E+02  0.13488817149E+02  0.38857531027E+02  0.47787270763E+02  0.19999998715E+02 0.  0.
         12    1    1    2    0    0  0.13848010426E+02 -0.13488817149E+02 -0.38857531027E+02  0.43400729237E+02  0.00000000000E+00 0. -1.
         11    1    3    3    0    0 -0.15445692702E+01  0.49515585236E+00 -0.23468994550E+01  0.28528601195E+01  0.51100000000E-03 0. -1.
        -11    1    3    3    0    0 -0.50382351528E+01  0.46845327270E+01  0.15183829102E+02  0.16669652869E+02  0.51100000000E-03 0.  1.
         12    1    3    3    0    0 -0.72652060033E+01  0.83091285695E+01  0.26020601380E+02  0.28264757774E+02  0.00000000000E+00 0. -1.
</event>
<event>
 7    1  0.1736465E-010  0.4778727E+02  0.7816164E-02  0.1312668E+00
        -11   -1    0    0    0    0  0.00000000000E+00  0.00000000000E+00  0.45593999997E+02  0.45594000000E+02  0.51100000000E-03 0. -1.
         11   -1    0    0    0    0 -0.00000000000E+00 -0.00000000000E+00 -0.45593999997E+02  0.45594000000E+02  0.51100000000E-03 0.  1.
    9900012    2    1    2    0    0  0.10324987888E+02  0.27476675578E+02 -0.31969522110E+02  0.47787269365E+02  0.19999992345E+02 0.  0.
         12    1    1    2    0    0 -0.10324987888E+02 -0.27476675578E+02  0.31969522110E+02  0.43400730635E+02  0.00000000000E+00 0. -1.
         11    1    3    3    0    0  0.29845102074E+01  0.89998300949E+01 -0.24253317391E+01  0.97870566168E+01  0.51100000000E-03 0.  1.
        -11    1    3    3    0    0 -0.83948371384E+00  0.14946847510E+02 -0.19255089487E+02  0.24389986773E+02  0.51100000000E-03 0. -1.
        -12    1    3    3    0    0  0.81799613946E+01  0.35299979732E+01 -0.10289100884E+02  0.13610225975E+02  0.00000000000E+00 0.  1.
</event>
<event>
 7    1  0.1974838E-010  0.4778727E+02  0.7816164E-02  0.1312668E+00
        -11   -1    0    0    0    0  0.00000000000E+00  0.00000000000E+00  0.45593999997E+02  0.45594000000E+02  0.51100000000E-03 0.  1.
         11   -1    0    0    0    0 -0.00000000000E+00 -0.00000000000E+00 -0.45593999997E+02  0.45594000000E+02  0.51100000000E-03 0. -1.
    9900012    2    1    2    0    0  0.54304419897E+01 -0.32614315774E+02  0.28114772960E+02  0.47787265534E+02  0.19999974874E+02 0.  0.
         12    1    1    2    0    0 -0.54304419897E+01  0.32614315774E+02 -0.28114772960E+02  0.43400734466E+02  0.00000000000E+00 0. -1.
         11    1    3    3    0    0 -0.10444748191E+01 -0.20484154819E+01  0.10897829474E+02  0.11137756558E+02  0.51100000000E-03 0. -1.
        -11    1    3    3    0    0  0.67554340427E+00 -0.16779598214E+02  0.12606963920E+02  0.20998733644E+02  0.51100000000E-03 0.  1.
        -12    1    3    3    0    0  0.57993734045E+01 -0.13786302078E+02  0.46099795656E+01  0.15650775331E+02  0.00000000000E+00 0.  1.
</event>
<event>
 7    1  0.1736465E-010  0.4778728E+02  0.7816164E-02  0.1312668E+00
        -11   -1    0    0    0    0  0.00000000000E+00  0.00000000000E+00  0.45593999997E+02  0.45594000000E+02  0.51100000000E-03 0. -1.
         11   -1    0    0    0    0 -0.00000000000E+00 -0.00000000000E+00 -0.45593999997E+02  0.45594000000E+02  0.51100000000E-03 0.  1.
    9900012    2    1    2    0    0  0.37971428297E+00 -0.20869423628E+02 -0.38051878058E+02  0.47787280544E+02  0.20000043314E+02 0.  0.
         12    1    1    2    0    0 -0.37971428297E+00  0.20869423628E+02  0.38051878058E+02  0.43400719456E+02  0.00000000000E+00 0. -1.
         11    1    3    3    0    0  0.74536759015E+00 -0.63273193623E+01 -0.20635390101E+02  0.21596524444E+02  0.51100000000E-03 0. -1.
        -11    1    3    3    0    0  0.50744483607E+01 -0.12894983266E+02 -0.11816185911E+02  0.18211339032E+02  0.51100000000E-03 0.  1.
         12    1    3    3    0    0 -0.54401016679E+01 -0.16471209992E+01 -0.56003020464E+01  0.79794170686E+01  0.00000000000E+00 0. -1.
</event>
<event>
 7    1  0.1736465E-010  0.4778727E+02  0.7816164E-02  0.1312668E+00
        -11   -1    0    0    0    0  0.00000000000E+00  0.00000000000E+00  0.45593999997E+02  0.45594000000E+02  0.51100000000E-03 0.  1.
         11   -1    0    0    0    0 -0.00000000000E+00 -0.00000000000E+00 -0.45593999997E+02  0.45594000000E+02  0.51100000000E-03 0. -1.
    9900012    2    1    2    0    0 -0.24894677581E+02 -0.86342598516E+01  0.34486637267E+02  0.47787267690E+02  0.19999984707E+02 0.  0.
         12    1    1    2    0    0  0.24894677581E+02  0.86342598516E+01 -0.34486637267E+02  0.43400732310E+02  0.00000000000E+00 0. -1.
         11    1    3    3    0    0 -0.32155550696E+01 -0.41556377216E+01  0.77049841437E+01  0.93260870784E+01  0.51100000000E-03 0. -1.
        -11    1    3    3    0    0 -0.19871790520E+02 -0.93522676496E+01  0.24121463312E+02  0.32622047165E+02  0.51100000000E-03 0.  1.
         12    1    3    3    0    0 -0.18073319912E+01  0.48736455197E+01  0.26601898116E+01  0.58391334470E+01  0.00000000000E+00 0. -1.
</event>
<event>
 7    1  0.1736465E-010  0.4778728E+02  0.7816164E-02  0.1312668E+00
        -11   -1    0    0    0    0  0.00000000000E+00  0.00000000000E+00  0.45593999997E+02  0.45594000000E+02  0.51100000000E-03 0. -1.
         11   -1    0    0    0    0 -0.00000000000E+00 -0.00000000000E+00 -0.45593999997E+02  0.45594000000E+02  0.51100000000E-03 0.  1.
    9900012    2    1    2    0    0  0.19122289757E+01  0.37592458124E+02 -0.21604930382E+02  0.47787279450E+02  0.20000038324E+02 0.  0.
         12    1    1    2    0    0 -0.19122289757E+01 -0.37592458124E+02  0.21604930382E+02  0.43400720550E+02  0.00000000000E+00 0. -1.
         11    1    3    3    0    0  0.68106703715E+00  0.13523871113E+01  0.14295680916E+01  0.20824188813E+01  0.51100000000E-03 0. -1.
        -11    1    3    3    0    0  0.67217277637E+01  0.27092627790E+02 -0.20782766876E+02  0.34801084810E+02  0.51100000000E-03 0.  1.
        -12    1    3    3    0    0 -0.54905658251E+01  0.91474432232E+01 -0.22517315969E+01  0.10903775758E+02  0.00000000000E+00 0.  1.
</event>
<event>
 7    1  0.1736465E-010  0.4778727E+02  0.7816164E-02  0.1312668E+00
        -11   -1    0    0    0    0  0.00000000000E+00  0.00000000000E+00  0.45593999997E+02  0.45594000000E+02  0.51100000000E-03 0.  1.
         11   -1    0    0    0    0 -0.00000000000E+00 -0.00000000000E+00 -0.45593999997E+02  0.45594000000E+02  0.51100000000E-03 0. -1.
    9900012    2    1    2    0    0 -0.18674186076E+02  0.84777514994E+01  0.38249516376E+02  0.47787274210E+02  0.20000014432E+02 0.  0.
         12    1    1    2    0    0  0.18674186076E+02 -0.84777514994E+01 -0.38249516376E+02  0.43400725790E+02  0.00000000000E+00 0. -1.
         11    1    3    3    0    0  0.65131284174E+00  0.36825823893E+01  0.37572840452E+01  0.53012078934E+01  0.51100000000E-03 0. -1.
        -11    1    3    3    0    0 -0.17565544995E+02  0.86048463083E+01  0.32275816097E+02  0.37740165023E+02  0.51100000000E-03 0.  1.
        -12    1    3    3    0    0 -0.17599539229E+01 -0.38096771983E+01  0.22164162342E+01  0.47459012937E+01  0.00000000000E+00 0.  1.
</event>
<event>
 7    1  0.1736465E-010  0.4778728E+02  0.7816164E-02  0.1312668E+00
        -11   -1    0    0    0    0  0.00000000000E+00  0.00000000000E+00  0.45593999997E+02  0.45594000000E+02  0.51100000000E-03 0.  1.
         11   -1    0    0    0    0 -0.00000000000E+00 -0.00000000000E+00 -0.45593999997E+02  0.45594000000E+02  0.51100000000E-03 0. -1.
    9900012    2    1    2    0    0  0.35791393834E+02 -0.50808187733E+01  0.24016326389E+02  0.47787279669E+02  0.20000039324E+02 0.  0.
         12    1    1    2    0    0 -0.35791393834E+02  0.50808187733E+01 -0.24016326389E+02  0.43400720331E+02  0.00000000000E+00 0. -1.
         11    1    3    3    0    0  0.65862726987E+01  0.84741156694E+00  0.11830164869E+02  0.13566499014E+02  0.51100000000E-03 0. -1.
        -11    1    3    3    0    0  0.14818340526E+02 -0.87267024665E+01  0.50746831183E+01  0.17930169015E+02  0.51100000000E-03 0.  1.
         12    1    3    3    0    0  0.14386780610E+02  0.27984721263E+01  0.71114784017E+01  0.16290611640E+02  0.00000000000E+00 0. -1.
</event>
<event>
 7    1  0.1736465E-010  0.4778728E+02  0.7816164E-02  0.1312668E+00
        -11   -1    0    0    0    0  0.00000000000E+00  0.00000000000E+00  0.45593999997E+02  0.45594000000E+02  0.51100000000E-03 0.  1.
         11   -1    0    0    0    0 -0.00000000000E+00 -0.00000000000E+00 -0.45593999997E+02  0.45594000000E+02  0.51100000000E-03 0. -1.
    9900012    2    1    2    0    0 -0.15866803046E+02 -0.96091031299E+01  0.39236877702E+02  0.47787275656E+02  0.20000021024E+02 0.  0.
         12    1    1    2    0    0  0.15866803046E+02  0.96091031299E+01 -0.39236877702E+02  0.43400724344E+02  0.00000000000E+00 0. -1.
         11    1    3    3    0    0 -0.92850366142E+01 -0.83159531774E+01  0.14302199812E+02  0.18971555073E+02  0.51100000000E-03 0. -1.
        -11    1    3    3    0    0 -0.55609415080E+01  0.11942893995E+01  0.24871936749E+01  0.62077798175E+01  0.51100000000E-03 0.  1.
        -12    1    3    3    0    0 -0.10208249235E+01 -0.24874393520E+01  0.22447484215E+02  0.22607940765E+02  0.00000000000E+00 0.  1.
</event>
<event>
 7    1  0.1736465E-010  0.4778726E+02  0.7816164E-02  0.1312668E+00
        -11   -1    0    0    0    0  0.00000000000E+00  0.00000000000E+00  0.45593999997E+02  0.45594000000E+02  0.51100000000E-03 0.  1.
         11   -1    0    0    0    0 -0.00000000000E+00 -0.00000000000E+00 -0.45593999997E+02  0.45594000000E+02  0.51100000000E-03 0. -1.
    9900012    2    1    2    0    0 -0.28789129748E+02  0.35536021385E+01  0.32282844880E+02  0.47787260912E+02  0.19999953803E+02 0.  0.
         12    1    1    2    0    0  0.28789129748E+02 -0.35536021385E+01 -0.32282844880E+02  0.43400739088E+02  0.00000000000E+00 0. -1.
         11    1    3    3    0    0 -0.10850738151E+02 -0.14907458070E+01  0.57116983796E+01  0.12352503395E+02  0.51100000000E-03 0. -1.
        -11    1    3    3    0    0  0.48305814323E+00 -0.26930548566E+01  0.67820125407E+01  0.73131104185E+01  0.51100000000E-03 0.  1.
         12    1    3    3    0    0 -0.18421449741E+02  0.77374028021E+01  0.19789133960E+02  0.28121647099E+02  0.00000000000E+00 0. -1.
</event>
<event>
 7    1  0.1736465E-010  0.4778728E+02  0.7816164E-02  0.1312668E+00
        -11   -1    0    0    0    0  0.00000000000E+00  0.00000000000E+00  0.45593999997E+02  0.45594000000E+02  0.51100000000E-03 0.  1.
         11   -1    0    0    0    0 -0.00000000000E+00 -0.00000000000E+00 -0.45593999997E+02  0.45594000000E+02  0.51100000000E-03 0. -1.
    9900012    2    1    2    0    0 -0.83538051949E+01  0.22658254579E+01  0.42528845792E+02  0.47787277072E+02  0.20000027484E+02 0.  0.
         12    1    1    2    0    0  0.83538051949E+01 -0.22658254579E+01 -0.42528845792E+02  0.43400722928E+02  0.00000000000E+00 0. -1.
         11    1    3    3    0    0 -0.15153984044E+01  0.69251773013E+01  0.71985656664E+01  0.10103160936E+02  0.51100000000E-03 0. -1.
        -11    1    3    3    0    0 -0.83564947338E+01 -0.27427774915E+00  0.24954459157E+02  0.26317888680E+02  0.51100000000E-03 0.  1.
        -12    1    3    3    0    0  0.15180879432E+01 -0.43850740943E+01  0.10375820969E+02  0.11366227456E+02  0.00000000000E+00 0.  1.
</event>
<event>
 7    1  0.1736465E-010  0.4778727E+02  0.7816164E-02  0.1312668E+00
        -11   -1    0    0    0    0  0.00000000000E+00  0.00000000000E+00  0.45593999997E+02  0.45594000000E+02  0.51100000000E-03 0.  1.
         11   -1    0    0    0    0 -0.00000000000E+00 -0.00000000000E+00 -0.45593999997E+02  0.45594000000E+02  0.51100000000E-03 0. -1.
    9900012    2    1    2    0    0  0.41291200680E+02  0.13361816759E+02  0.34903615479E+00  0.47787271586E+02  0.20000002468E+02 0.  0.
         12    1    1    2    0    0 -0.41291200680E+02 -0.13361816759E+02 -0.34903615479E+00  0.43400728414E+02  0.00000000000E+00 0. -1.
         11    1    3    3    0    0  0.20600073082E+02  0.53726066715E+01 -0.16618051432E+01  0.21353910884E+02  0.51100000000E-03 0. -1.
        -11    1    3    3    0    0  0.14518923061E+02 -0.30567306827E+00 -0.31768908718E+01  0.14865570919E+02  0.51100000000E-03 0.  1.
         12    1    3    3    0    0  0.61722045364E+01  0.82948831553E+01  0.51877321697E+01  0.11567789783E+02  0.00000000000E+00 0. -1.
</event>
<event>
 7    1  0.1736465E-010  0.4778728E+02  0.7816164E-02  0.1312668E+00
        -11   -1    0    0    0    0  0.00000000000E+00  0.00000000000E+00  0.45593999997E+02  0.45594000000E+02  0.51100000000E-03 0.  1.
         11   -1    0    0    0    0 -0.00000000000E+00 -0.00000000000E+00 -0.45593999997E+02  0.45594000000E+02  0.51100000000E-03 0. -1.
    9900012    2    1    2    0    0  0.17709727309E+02 -0.15723318326E+02  0.36369844886E+02  0.47787276531E+02  0.20000025018E+02 0.  0.
         12    1    1    2    0    0 -0.17709727309E+02  0.15723318326E+02 -0.36369844886E+02  0.43400723469E+02  0.00000000000E+00 0. -1.
         11    1    3    3    0    0  0.68262571522E+01 -0.22170848209E+01  0.60669991834E+01  0.93979642031E+01  0.51100000000E-03 0. -1.
        -11    1    3    3    0    0  0.39674220313E+01 -0.15316132145E+02  0.24580201416E+02  0.29232014015E+02  0.51100000000E-03 0.  1.
         12    1    3    3    0    0  0.69160481257E+01  0.18098986402E+01  0.57226442868E+01  0.91572983132E+01  0.00000000000E+00 0. -1.
</event>
<event>
 7    1  0.1736465E-010  0.4778727E+02  0.7816164E-02  0.1312668E+00
        -11   -1    0    0    0    0  0.00000000000E+00  0.00000000000E+00  0.45593999997E+02  0.45594000000E+02  0.51100000000E-03 0. -1.
         11   -1    0    0    0    0 -0.00000000000E+00 -0.00000000000E+00 -0.45593999997E+02  0.45594000000E+02  0.51100000000E-03 0.  1.
    9900012    2    1    2    0    0  0.14800355241E+02  0.12902160349E+02 -0.38705387064E+02  0.47787271381E+02  0.20000001534E+02 0.  0.
         12    1    1    2    0    0 -0.14800355241E+02 -0.12902160349E+02  0.38705387064E+02  0.43400728619E+02  0.00000000000E+00 0. -1.
         11    1    3    3    0    0  0.27670361477E+01  0.19779479551E+01 -0.30519465594E+01  0.45698080068E+01  0.51100000000E-03 0. -1.
        -11    1    3    3    0    0  0.14176162097E+02  0.10607544788E+01 -0.22891572008E+02  0.26946481053E+02  0.51100000000E-03 0.  1.
         12    1    3    3    0    0 -0.21428430042E+01  0.98634579150E+01 -0.12761868496E+02  0.16270982321E+02  0.00000000000E+00 0. -1.
</event>
<event>
 7    1  0.1736465E-010  0.4778727E+02  0.7816164E-02  0.1312668E+00
        -11   -1    0    0    0    0  0.00000000000E+00  0.00000000000E+00  0.45593999997E+02  0.45594000000E+02  0.51100000000E-03 0. -1.
         11   -1    0    0    0    0 -0.00000000000E+00 -0.00000000000E+00 -0.45593999997E+02  0.45594000000E+02  0.51100000000E-03 0.  1.
    9900012    2    1    2    0    0 -0.29002953925E+02 -0.28731673244E+02 -0.14728991301E+02  0.47787267650E+02  0.19999984521E+02 0.  0.
         12    1    1    2    0    0  0.29002953925E+02  0.28731673244E+02  0.14728991301E+02  0.43400732350E+02  0.00000000000E+00 0. -1.
         11    1    3    3    0    0 -0.56198947483E+01 -0.67105214811E+01 -0.36426217590E+01  0.94806650121E+01  0.51100000000E-03 0. -1.
        -11    1    3    3    0    0 -0.25378469358E+02 -0.20946283254E+02 -0.12959642755E+02  0.35366167869E+02  0.51100000000E-03 0.  1.
         12    1    3    3    0    0  0.19954101811E+01 -0.10748685089E+01  0.18732732123E+01  0.29404347689E+01  0.00000000000E+00 0. -1.
</event>
<event>
 7    1  0.1736465E-010  0.4778726E+02  0.7816164E-02  0.1312668E+00
        -11   -1    0    0    0    0  0.00000000000E+00  0.00000000000E+00  0.45593999997E+02  0.45594000000E+02  0.51100000000E-03 0. -1.
         11   -1    0    0    0    0 -0.00000000000E+00 -0.00000000000E+00 -0.45593999997E+02  0.45594000000E+02  0.51100000000E-03 0.  1.
    9900012    2    1    2    0    0  0.31607234145E+02  0.28907242346E+02  0.69984585888E+01  0.47787258843E+02  0.19999944369E+02 0.  0.
         12    1    1    2    0    0 -0.31607234145E+02 -0.28907242346E+02 -0.69984585888E+01  0.43400741157E+02  0.00000000000E+00 0. -1.
         11    1    3    3    0    0  0.93274019979E+00 -0.56586566937E+00 -0.23582052279E+01  0.25983341575E+01  0.51100000000E-03 0. -1.
        -11    1    3    3    0    0  0.87987135984E+01  0.13595517910E+02  0.81550165425E+01  0.18131733598E+02  0.51100000000E-03 0.  1.
        -12    1    3    3    0    0  0.21875780347E+02  0.15877590106E+02  0.12016472742E+01  0.27057191087E+02  0.00000000000E+00 0.  1.
</event>
<event>
 7    1  0.1736465E-010  0.4778727E+02  0.7816164E-02  0.1312668E+00
        -11   -1    0    0    0    0  0.00000000000E+00  0.00000000000E+00  0.45593999997E+02  0.45594000000E+02  0.51100000000E-03 0. -1.
         11   -1    0    0    0    0 -0.00000000000E+00 -0.00000000000E+00 -0.45593999997E+02  0.45594000000E+02  0.51100000000E-03 0.  1.
    9900012    2    1    2    0    0 -0.39247249985E+02 -0.77511940027E+01 -0.16828416143E+02  0.47787271553E+02  0.20000002317E+02 0.  0.
         12    1    1    2    0    0  0.39247249985E+02  0.77511940027E+01  0.16828416143E+02  0.43400728447E+02  0.00000000000E+00 0. -1.
         11    1    3    3    0    0 -0.25093729627E+01  0.73298390697E+00  0.19868943103E+01  0.32835906163E+01  0.51100000000E-03 0. -1.
        -11    1    3    3    0    0 -0.64760716814E+01  0.25577277238E+01 -0.78079212300E+01  0.10461601681E+02  0.51100000000E-03 0.  1.
        -12    1    3    3    0    0 -0.30261805341E+02 -0.11041905633E+02 -0.11007389223E+02  0.34042079256E+02  0.00000000000E+00 0.  1.
</event>
<event>
 7    1  0.1736465E-010  0.4778727E+02  0.7816164E-02  0.1312668E+00
        -11   -1    0    0    0    0  0.00000000000E+00  0.00000000000E+00  0.45593999997E+02  0.45594000000E+02  0.51100000000E-03 0. -1.
         11   -1    0    0    0    0 -0.00000000000E+00 -0.00000000000E+00 -0.45593999997E+02  0.45594000000E+02  0.51100000000E-03 0.  1.
    9900012    2    1    2    0    0 -0.38609901474E+02  0.21463289188E+01  0.19705134468E+02  0.47787267932E+02  0.19999985810E+02 0.  0.
         12    1    1    2    0    0  0.38609901474E+02 -0.21463289188E+01 -0.19705134468E+02  0.43400732068E+02  0.00000000000E+00 0. -1.
         11    1    3    3    0    0 -0.24181564513E+02  0.73077527498E+01  0.12183828125E+02  0.28046336313E+02  0.51100000000E-03 0.  1.
        -11    1    3    3    0    0 -0.15733732942E+02 -0.38509758282E+01  0.75937847832E+01  0.17889827689E+02  0.51100000000E-03 0. -1.
        -12    1    3    3    0    0  0.13053959816E+01 -0.13104480028E+01 -0.72478440849E-01  0.18511039304E+01  0.00000000000E+00 0.  1.
</event>
<event>
 7    1  0.1736465E-010  0.4778727E+02  0.7816164E-02  0.1312668E+00
        -11   -1    0    0    0    0  0.00000000000E+00  0.00000000000E+00  0.45593999997E+02  0.45594000000E+02  0.51100000000E-03 0.  1.
         11   -1    0    0    0    0 -0.00000000000E+00 -0.00000000000E+00 -0.45593999997E+02  0.45594000000E+02  0.51100000000E-03 0. -1.
    9900012    2    1    2    0    0  0.14256978051E+02 -0.26891332014E+02  0.30938940062E+02  0.47787272209E+02  0.20000005309E+02 0.  0.
         12    1    1    2    0    0 -0.14256978051E+02  0.26891332014E+02 -0.30938940062E+02  0.43400727791E+02  0.00000000000E+00 0. -1.
         11    1    3    3    0    0  0.95406105996E+01 -0.19127663695E+02  0.84816395028E+01  0.22996281829E+02  0.51100000000E-03 0.  1.
        -11    1    3    3    0    0  0.40827721907E+01 -0.17564099015E+01  0.88593661568E+01  0.99117290855E+01  0.51100000000E-03 0. -1.
        -12    1    3    3    0    0  0.63359526090E+00 -0.60072584172E+01  0.13597934402E+02  0.14879261294E+02  0.00000000000E+00 0.  1.
</event>
<event>
 7    1  0.1736465E-010  0.4778727E+02  0.7816164E-02  0.1312668E+00
        -11   -1    0    0    0    0  0.00000000000E+00  0.00000000000E+00  0.45593999997E+02  0.45594000000E+02  0.51100000000E-03 0.  1.
         11   -1    0    0    0    0 -0.00000000000E+00 -0.00000000000E+00 -0.45593999997E+02  0.45594000000E+02  0.51100000000E-03 0. -1.
    9900012    2    1    2    0    0 -0.30387045617E+02  0.11096696931E+02  0.28932922817E+02  0.47787271356E+02  0.20000001421E+02 0.  0.
         12    1    1    2    0    0  0.30387045617E+02 -0.11096696931E+02 -0.28932922817E+02  0.43400728644E+02  0.00000000000E+00 0. -1.
         11    1    3    3    0    0 -0.68622935331E+00 -0.12441952869E+01 -0.95717348789E+00  0.17132174364E+01  0.51100000000E-03 0. -1.
        -11    1    3    3    0    0 -0.14817733852E+02  0.90032002834E+00  0.19845701151E+02  0.24783616909E+02  0.51100000000E-03 0.  1.
        -12    1    3    3    0    0 -0.14883082411E+02  0.11440572189E+02  0.10044395154E+02  0.21290437010E+02  0.00000000000E+00 0.  1.
</event>
<event>
 7    1  0.1736465E-010  0.4778727E+02  0.7816164E-02  0.1312668E+00
        -11   -1    0    0    0    0  0.00000000000E+00  0.00000000000E+00  0.45593999997E+02  0.45594000000E+02  0.51100000000E-03 0. -1.
         11   -1    0    0    0    0 -0.00000000000E+00 -0.00000000000E+00 -0.45593999997E+02  0.45594000000E+02  0.51100000000E-03 0.  1.
    9900012    2    1    2    0    0  0.41536341505E+02  0.54323672420E+01  0.11350994074E+02  0.47787270214E+02  0.19999996214E+02 0.  0.
         12    1    1    2    0    0 -0.41536341505E+02 -0.54323672420E+01 -0.11350994074E+02  0.43400729786E+02  0.00000000000E+00 0. -1.
         11    1    3    3    0    0  0.21589836990E+01  0.61323696361E+01  0.94878693136E+00  0.65701875825E+01  0.51100000000E-03 0. -1.
        -11    1    3    3    0    0  0.20208078791E+02 -0.25850638322E+01  0.30496586929E+01  0.20599743247E+02  0.51100000000E-03 0.  1.
        -12    1    3    3    0    0  0.19169279015E+02  0.18850614381E+01  0.73525484494E+01  0.20617339384E+02  0.00000000000E+00 0.  1.
</event>
<event>
 7    1  0.1736465E-010  0.4778729E+02  0.7816164E-02  0.1312668E+00
        -11   -1    0    0    0    0  0.00000000000E+00  0.00000000000E+00  0.45593999997E+02  0.45594000000E+02  0.51100000000E-03 0.  1.
         11   -1    0    0    0    0 -0.00000000000E+00 -0.00000000000E+00 -0.45593999997E+02  0.45594000000E+02  0.51100000000E-03 0. -1.
    9900012    2    1    2    0    0  0.17841824803E+02  0.21642919887E+02  0.33119097785E+02  0.47787293420E+02  0.20000102019E+02 0.  0.
         12    1    1    2    0    0 -0.17841824803E+02 -0.21642919887E+02 -0.33119097785E+02  0.43400706580E+02  0.00000000000E+00 0. -1.
         11    1    3    3    0    0  0.57472555753E+01  0.19609768328E+02  0.19376402013E+02  0.28160591537E+02  0.51100000000E-03 0. -1.
        -11    1    3    3    0    0  0.42204577406E+01  0.27198746014E+01  0.18580535965E+01  0.53537225196E+01  0.51100000000E-03 0.  1.
        -12    1    3    3    0    0  0.78741114873E+01 -0.68672304200E+00  0.11884642176E+02  0.14272979363E+02  0.00000000000E+00 0.  1.
</event>
<event>
 7    1  0.1736465E-010  0.4778725E+02  0.7816164E-02  0.1312668E+00
        -11   -1    0    0    0    0  0.00000000000E+00  0.00000000000E+00  0.45593999997E+02  0.45594000000E+02  0.51100000000E-03 0. -1.
         11   -1    0    0    0    0 -0.00000000000E+00 -0.00000000000E+00 -0.45593999997E+02  0.45594000000E+02  0.51100000000E-03 0.  1.
    9900012    2    1    2    0    0 -0.32923480799E+02  0.26318071602E+02 -0.10345452495E+02  0.47787252679E+02  0.19999916263E+02 0.  0.
         12    1    1    2    0    0  0.32923480799E+02 -0.26318071602E+02  0.10345452495E+02  0.43400747321E+02  0.00000000000E+00 0. -1.
         11    1    3    3    0    0  0.12935655421E+01  0.19987079782E+01 -0.11536176527E+01  0.26455584181E+01  0.51100000000E-03 0. -1.
        -11    1    3    3    0    0 -0.35388472827E+02  0.24375270639E+02 -0.85806710377E+01  0.43819239421E+02  0.51100000000E-03 0.  1.
        -12    1    3    3    0    0  0.11714264860E+01 -0.55907015101E-01 -0.61116380467E+00  0.13224548395E+01  0.00000000000E+00 0.  1.
</event>
<event>
 7    1  0.1736465E-010  0.4778727E+02  0.7816164E-02  0.1312668E+00
        -11   -1    0    0    0    0  0.00000000000E+00  0.00000000000E+00  0.45593999997E+02  0.45594000000E+02  0.51100000000E-03 0.  1.
         11   -1    0    0    0    0 -0.00000000000E+00 -0.00000000000E+00 -0.45593999997E+02  0.45594000000E+02  0.51100000000E-03 0. -1.
    9900012    2    1    2    0    0  0.36155838750E+02  0.75267637937E+01  0.22797507649E+02  0.47787271850E+02  0.20000003673E+02 0.  0.
         12    1    1    2    0    0 -0.36155838750E+02 -0.75267637937E+01 -0.22797507649E+02  0.43400728150E+02  0.00000000000E+00 0. -1.
         11    1    3    3    0    0  0.20301807546E+02 -0.55366158472E+01  0.82337801599E+01  0.22596739602E+02  0.51100000000E-03 0. -1.
        -11    1    3    3    0    0  0.47398569326E+01  0.40414054729E+01  0.47776649556E+01  0.78501773628E+01  0.51100000000E-03 0.  1.
         12    1    3    3    0    0  0.11114174271E+02  0.90219741680E+01  0.97860625335E+01  0.17340354885E+02  0.00000000000E+00 0. -1.
</event>
<event>
 7    1  0.1736465E-010  0.4778727E+02  0.7816164E-02  0.1312668E+00
        -11   -1    0    0    0    0  0.00000000000E+00  0.00000000000E+00  0.45593999997E+02  0.45594000000E+02  0.51100000000E-03 0.  1.
         11   -1    0    0    0    0 -0.00000000000E+00 -0.00000000000E+00 -0.45593999997E+02  0.45594000000E+02  0.51100000000E-03 0. -1.
    9900012    2    1    2    0    0  0.25604132214E+02  0.81408491805E+01  0.34084868034E+02  0.47787271426E+02  0.20000001741E+02 0.  0.
         12    1    1    2    0    0 -0.25604132214E+02 -0.81408491805E+01 -0.34084868034E+02  0.43400728574E+02  0.00000000000E+00 0. -1.
         11    1    3    3    0    0  0.25332067081E+01  0.28351209539E+01  0.53221375385E+01  0.65406570992E+01  0.51100000000E-03 0. -1.
        -11    1    3    3    0    0  0.10856516706E+02  0.55637631268E+01  0.26001941136E+02  0.28721426814E+02  0.51100000000E-03 0.  1.
         12    1    3    3    0    0  0.12214408800E+02 -0.25803490021E+00  0.27607893595E+01  0.12525187513E+02  0.00000000000E+00 0. -1.
</event>
<event>
 7    1  0.1736465E-010  0.4778727E+02  0.7816164E-02  0.1312668E+00
        -11   -1    0    0    0    0  0.00000000000E+00  0.00000000000E+00  0.45593999997E+02  0.45594000000E+02  0.51100000000E-03 0.  1.
         11   -1    0    0    0    0 -0.00000000000E+00 -0.00000000000E+00 -0.45593999997E+02  0.45594000000E+02  0.51100000000E-03 0. -1.
    9900012    2    1    2    0    0  0.30750628744E+02 -0.24788821047E+02  0.17987122633E+02  0.47787269618E+02  0.19999993498E+02 0.  0.
         12    1    1    2    0    0 -0.30750628744E+02  0.24788821047E+02 -0.17987122633E+02  0.43400730382E+02  0.00000000000E+00 0. -1.
         11    1    3    3    0    0  0.21878832142E+02 -0.20709776653E+02  0.93443731225E+01  0.31541963386E+02  0.51100000000E-03 0. -1.
        -11    1    3    3    0    0  0.16598894963E+01 -0.10016606262E+01 -0.21564007644E+01  0.28997623468E+01  0.51100000000E-03 0.  1.
         12    1    3    3    0    0  0.72119071060E+01 -0.30773837674E+01  0.10799150274E+02  0.13345543886E+02  0.00000000000E+00 0. -1.
</event>
<event>
 7    1  0.1736465E-010  0.4778727E+02  0.7816164E-02  0.1312668E+00
        -11   -1    0    0    0    0  0.00000000000E+00  0.00000000000E+00  0.45593999997E+02  0.45594000000E+02  0.51100000000E-03 0.  1.
         11   -1    0    0    0    0 -0.00000000000E+00 -0.00000000000E+00 -0.45593999997E+02  0.45594000000E+02  0.51100000000E-03 0. -1.
    9900012    2    1    2    0    0  0.20299075543E+02  0.29814800989E+02  0.24138111826E+02  0.47787271107E+02  0.20000000285E+02 0.  0.
         12    1    1    2    0    0 -0.20299075543E+02 -0.29814800989E+02 -0.24138111826E+02  0.43400728893E+02  0.00000000000E+00 0. -1.
         11    1    3    3    0    0  0.61429508483E+01  0.68430630556E+01  0.18259526717E+01  0.93753645544E+01  0.51100000000E-03 0. -1.
        -11    1    3    3    0    0  0.10485022606E+02  0.91539636365E+01  0.27593537650E+01  0.14189601219E+02  0.51100000000E-03 0.  1.
        -12    1    3    3    0    0  0.36711020890E+01  0.13817774297E+02  0.19552805389E+02  0.24222305333E+02  0.00000000000E+00 0.  1.
</event>
<event>
 7    1  0.1736465E-010  0.4778727E+02  0.7816164E-02  0.1312668E+00
        -11   -1    0    0    0    0  0.00000000000E+00  0.00000000000E+00  0.45593999997E+02  0.45594000000E+02  0.51100000000E-03 0.  1.
         11   -1    0    0    0    0 -0.00000000000E+00 -0.00000000000E+00 -0.45593999997E+02  0.45594000000E+02  0.51100000000E-03 0. -1.
    9900012    2    1    2    0    0  0.30438777359E+02  0.14751849010E+02  0.27193513416E+02  0.47787269727E+02  0.19999993995E+02 0.  0.
         12    1    1    2    0    0 -0.30438777359E+02 -0.14751849010E+02 -0.27193513416E+02  0.43400730273E+02  0.00000000000E+00 0. -1.
         11    1    3    3    0    0  0.28906624503E+01  0.11353066700E+01  0.97133189196E+01  0.10197716182E+02  0.51100000000E-03 0.  1.
        -11    1    3    3    0    0  0.16268755460E+02  0.16428097532E+01  0.55450348783E+01  0.17266112480E+02  0.51100000000E-03 0. -1.
         12    1    3    3    0    0  0.11279359448E+02  0.11973732587E+02  0.11935159618E+02  0.20323441065E+02  0.00000000000E+00 0. -1.
</event>
<event>
 7    1  0.1736465E-010  0.4778727E+02  0.7816164E-02  0.1312668E+00
        -11   -1    0    0    0    0  0.00000000000E+00  0.00000000000E+00  0.45593999997E+02  0.45594000000E+02  0.51100000000E-03 0.  1.
         11   -1    0    0    0    0 -0.00000000000E+00 -0.00000000000E+00 -0.45593999997E+02  0.45594000000E+02  0.51100000000E-03 0. -1.
    9900012    2    1    2    0    0  0.92917872289E+01  0.23711161914E+02  0.35143511940E+02  0.47787274882E+02  0.20000017499E+02 0.  0.
         12    1    1    2    0    0 -0.92917872289E+01 -0.23711161914E+02 -0.35143511940E+02  0.43400725118E+02  0.00000000000E+00 0. -1.
         11    1    3    3    0    0 -0.10405475093E+01  0.17987704126E+01  0.12677695135E+02  0.12846877765E+02  0.51100000000E-03 0. -1.
        -11    1    3    3    0    0  0.37117354751E+01  0.32330660295E+01 -0.79559713017E-01  0.49230098718E+01  0.51100000000E-03 0.  1.
        -12    1    3    3    0    0  0.66205992631E+01  0.18679325472E+02  0.22545376518E+02  0.30017387245E+02  0.00000000000E+00 0.  1.
</event>
<event>
 7    1  0.1736465E-010  0.4778727E+02  0.7816164E-02  0.1312668E+00
        -11   -1    0    0    0    0  0.00000000000E+00  0.00000000000E+00  0.45593999997E+02  0.45594000000E+02  0.51100000000E-03 0.  1.
         11   -1    0    0    0    0 -0.00000000000E+00 -0.00000000000E+00 -0.45593999997E+02  0.45594000000E+02  0.51100000000E-03 0. -1.
    9900012    2    1    2    0    0 -0.23061055213E+02  0.26711411967E+02  0.25264828589E+02  0.47787270047E+02  0.19999995451E+02 0.  0.
         12    1    1    2    0    0  0.23061055213E+02 -0.26711411967E+02 -0.25264828589E+02  0.43400729953E+02  0.00000000000E+00 0. -1.
         11    1    3    3    0    0  0.13892910023E+01  0.12925537869E+01  0.42297593474E+01  0.46359129822E+01  0.51100000000E-03 0. -1.
        -11    1    3    3    0    0 -0.21264037927E+02  0.21906500657E+02  0.22786859461E+02  0.38095866500E+02  0.51100000000E-03 0.  1.
         12    1    3    3    0    0 -0.31863082878E+01  0.35123575238E+01 -0.17517902192E+01  0.50554905649E+01  0.00000000000E+00 0. -1.
</event>
<event>
 7    1  0.1736465E-010  0.4778727E+02  0.7816164E-02  0.1312668E+00
        -11   -1    0    0    0    0  0.00000000000E+00  0.00000000000E+00  0.45593999997E+02  0.45594000000E+02  0.51100000000E-03 0.  1.
         11   -1    0    0    0    0 -0.00000000000E+00 -0.00000000000E+00 -0.45593999997E+02  0.45594000000E+02  0.51100000000E-03 0. -1.
    9900012    2    1    2    0    0  0.95674095830E+01  0.23527985976E+02  0.35192641517E+02  0.47787268817E+02  0.19999989845E+02 0.  0.
         12    1    1    2    0    0 -0.95674095830E+01 -0.23527985976E+02 -0.35192641517E+02  0.43400731183E+02  0.00000000000E+00 0. -1.
         11    1    3    3    0    0 -0.15268834436E+01  0.72200698373E+01  0.10598266206E+02  0.12914489085E+02  0.51100000000E-03 0. -1.
        -11    1    3    3    0    0  0.36578485318E+01 -0.25196574088E+01  0.51965284907E+01  0.68361127810E+01  0.51100000000E-03 0.  1.
         12    1    3    3    0    0  0.74364444947E+01  0.18827573548E+02  0.19397846821E+02  0.28036666951E+02  0.00000000000E+00 0. -1.
</event>
<event>
 7    1  0.1736465E-010  0.4778727E+02  0.7816164E-02  0.1312668E+00
        -11   -1    0    0    0    0  0.00000000000E+00  0.00000000000E+00  0.45593999997E+02  0.45594000000E+02  0.51100000000E-03 0. -1.
         11   -1    0    0    0    0 -0.00000000000E+00 -0.00000000000E+00 -0.45593999997E+02  0.45594000000E+02  0.51100000000E-03 0.  1.
    9900012    2    1    2    0    0  0.23954939019E+02 -0.11899031805E+02 -0.34178906024E+02  0.47787266385E+02  0.19999978756E+02 0.  0.
         12    1    1    2    0    0 -0.23954939019E+02  0.11899031805E+02  0.34178906024E+02  0.43400733615E+02  0.00000000000E+00 0. -1.
         11    1    3    3    0    0  0.38655693772E+01 -0.67662414630E+01 -0.51909370665E+01  0.93632514670E+01  0.51100000000E-03 0. -1.
        -11    1    3    3    0    0  0.21231134704E+02 -0.14506191382E+01 -0.23332735453E+02  0.31579770751E+02  0.51100000000E-03 0.  1.
         12    1    3    3    0    0 -0.11417650617E+01 -0.36821712039E+01 -0.56552335046E+01  0.68442441674E+01  0.00000000000E+00 0. -1.
</event>
<event>
 7    1  0.1736465E-010  0.4778727E+02  0.7816164E-02  0.1312668E+00
        -11   -1    0    0    0    0  0.00000000000E+00  0.00000000000E+00  0.45593999997E+02  0.45594000000E+02  0.51100000000E-03 0. -1.
         11   -1    0    0    0    0 -0.00000000000E+00 -0.00000000000E+00 -0.45593999997E+02  0.45594000000E+02  0.51100000000E-03 0.  1.
    9900012    2    1    2    0    0 -0.84751757030E+01  0.16850009519E+02 -0.39088000841E+02  0.47787271507E+02  0.20000002110E+02 0.  0.
         12    1    1    2    0    0  0.84751757030E+01 -0.16850009519E+02  0.39088000841E+02  0.43400728493E+02  0.00000000000E+00 0. -1.
         11    1    3    3    0    0 -0.21308846077E+01  0.37319708527E+01 -0.74463473814E+00  0.43615085476E+01  0.51100000000E-03 0. -1.
        -11    1    3    3    0    0 -0.78036687279E+01  0.12887701488E+02 -0.20084981501E+02  0.25107699564E+02  0.51100000000E-03 0.  1.
        -12    1    3    3    0    0  0.14593776326E+01  0.23033717804E+00 -0.18258384602E+02  0.18318063395E+02  0.00000000000E+00 0.  1.
</event>
<event>
 7    1  0.1736465E-010  0.4778727E+02  0.7816164E-02  0.1312668E+00
        -11   -1    0    0    0    0  0.00000000000E+00  0.00000000000E+00  0.45593999997E+02  0.45594000000E+02  0.51100000000E-03 0. -1.
         11   -1    0    0    0    0 -0.00000000000E+00 -0.00000000000E+00 -0.45593999997E+02  0.45594000000E+02  0.51100000000E-03 0.  1.
    9900012    2    1    2    0    0  0.16847714412E+02  0.79616204636E+01 -0.39196812874E+02  0.47787273960E+02  0.20000013294E+02 0.  0.
         12    1    1    2    0    0 -0.16847714412E+02 -0.79616204636E+01  0.39196812874E+02  0.43400726040E+02  0.00000000000E+00 0. -1.
         11    1    3    3    0    0  0.11862811614E+02 -0.20904994408E+01 -0.13657558646E+02  0.18210584717E+02  0.51100000000E-03 0. -1.
        -11    1    3    3    0    0  0.75024957161E+01  0.80932313215E+01 -0.22960000330E+02  0.25474486268E+02  0.51100000000E-03 0.  1.
        -12    1    3    3    0    0 -0.25175929183E+01  0.19588885830E+01 -0.25792538982E+01  0.41022029757E+01  0.00000000000E+00 0.  1.
</event>
<event>
 7    1  0.1736465E-010  0.4778727E+02  0.7816164E-02  0.1312668E+00
        -11   -1    0    0    0    0  0.00000000000E+00  0.00000000000E+00  0.45593999997E+02  0.45594000000E+02  0.51100000000E-03 0. -1.
         11   -1    0    0    0    0 -0.00000000000E+00 -0.00000000000E+00 -0.45593999997E+02  0.45594000000E+02  0.51100000000E-03 0.  1.
    9900012    2    1    2    0    0 -0.24842771775E+02 -0.25408885737E+02 -0.24916833485E+02  0.47787269882E+02  0.19999994699E+02 0.  0.
         12    1    1    2    0    0  0.24842771775E+02  0.25408885737E+02  0.24916833485E+02  0.43400730118E+02  0.00000000000E+00 0. -1.
         11    1    3    3    0    0  0.62738104644E+00 -0.32853565400E+01 -0.52531775601E+01  0.62276038178E+01  0.51100000000E-03 0. -1.
        -11    1    3    3    0    0 -0.20304966537E+02 -0.14447132680E+02 -0.70158071366E+01  0.25888855880E+02  0.51100000000E-03 0.  1.
        -12    1    3    3    0    0 -0.51651862841E+01 -0.76763965175E+01 -0.12647848788E+02  0.15670810183E+02  0.00000000000E+00 0.  1.
</event>
<event>
 7    1  0.1736465E-010  0.4778727E+02  0.7816164E-02  0.1312668E+00
        -11   -1    0    0    0    0  0.00000000000E+00  0.00000000000E+00  0.45593999997E+02  0.45594000000E+02  0.51100000000E-03 0.  1.
         11   -1    0    0    0    0 -0.00000000000E+00 -0.00000000000E+00 -0.45593999997E+02  0.45594000000E+02  0.51100000000E-03 0. -1.
    9900012    2    1    2    0    0  0.47321115247E+01 -0.41927258252E+02  0.10165395935E+02  0.47787272604E+02  0.20000007109E+02 0.  0.
         12    1    1    2    0    0 -0.47321115247E+01  0.41927258252E+02 -0.10165395935E+02  0.43400727396E+02  0.00000000000E+00 0. -1.
         11    1    3    3    0    0  0.14296523497E+01 -0.84415916627E+01 -0.35889986752E+01  0.92836031470E+01  0.51100000000E-03 0.  1.
        -11    1    3    3    0    0 -0.18654957212E+01 -0.27889399729E+02  0.13067032038E+02  0.30855242959E+02  0.51100000000E-03 0. -1.
         12    1    3    3    0    0  0.51679548962E+01 -0.55962668605E+01  0.68736257216E+00  0.76484264975E+01  0.00000000000E+00 0. -1.
</event>
<event>
 7    1  0.1736465E-010  0.4778727E+02  0.7816164E-02  0.1312668E+00
        -11   -1    0    0    0    0  0.00000000000E+00  0.00000000000E+00  0.45593999997E+02  0.45594000000E+02  0.51100000000E-03 0.  1.
         11   -1    0    0    0    0 -0.00000000000E+00 -0.00000000000E+00 -0.45593999997E+02  0.45594000000E+02  0.51100000000E-03 0. -1.
    9900012    2    1    2    0    0  0.91268196159E+01  0.42153767929E+02  0.48357192448E+01  0.47787272270E+02  0.20000005587E+02 0.  0.
         12    1    1    2    0    0 -0.91268196159E+01 -0.42153767929E+02 -0.48357192448E+01  0.43400727730E+02  0.00000000000E+00 0. -1.
         11    1    3    3    0    0 -0.17755536637E+01  0.12752608685E+01 -0.52896893194E+00  0.22491530601E+01  0.51100000000E-03 0. -1.
        -11    1    3    3    0    0  0.11498675382E+02  0.18651526803E+02  0.75983107907E+01  0.23191233576E+02  0.51100000000E-03 0.  1.
        -12    1    3    3    0    0 -0.59630210240E+00  0.22226980257E+02 -0.22336226140E+01  0.22346885634E+02  0.00000000000E+00 0.  1.
</event>
<event>
 7    1  0.1736465E-010  0.4778727E+02  0.7816164E-02  0.1312668E+00
        -11   -1    0    0    0    0  0.00000000000E+00  0.00000000000E+00  0.45593999997E+02  0.45594000000E+02  0.51100000000E-03 0.  1.
         11   -1    0    0    0    0 -0.00000000000E+00 -0.00000000000E+00 -0.45593999997E+02  0.45594000000E+02  0.51100000000E-03 0. -1.
    9900012    2    1    2    0    0  0.18902726809E+02 -0.13913159802E+02  0.36506631861E+02  0.47787271131E+02  0.20000000395E+02 0.  0.
         12    1    1    2    0    0 -0.18902726809E+02  0.13913159802E+02 -0.36506631861E+02  0.43400728869E+02  0.00000000000E+00 0. -1.
         11    1    3    3    0    0  0.93791335273E+01 -0.86867374815E+01  0.33700332148E+02  0.36043583908E+02  0.51100000000E-03 0. -1.
        -11    1    3    3    0    0  0.59608463005E+01 -0.40654335950E+01  0.33540904594E+01  0.79567180423E+01  0.51100000000E-03 0.  1.
         12    1    3    3    0    0  0.35627469816E+01 -0.11609887252E+01 -0.54779074594E+00  0.37869691807E+01  0.00000000000E+00 0. -1.
</event>
<event>
 7    1  0.1736465E-010  0.4778727E+02  0.7816164E-02  0.1312668E+00
        -11   -1    0    0    0    0  0.00000000000E+00  0.00000000000E+00  0.45593999997E+02  0.45594000000E+02  0.51100000000E-03 0.  1.
         11   -1    0    0    0    0 -0.00000000000E+00 -0.00000000000E+00 -0.45593999997E+02  0.45594000000E+02  0.51100000000E-03 0. -1.
    9900012    2    1    2    0    0  0.16268655540E+02  0.49094035644E+01  0.39935594268E+02  0.47787273209E+02  0.20000009869E+02 0.  0.
         12    1    1    2    0    0 -0.16268655540E+02 -0.49094035644E+01 -0.39935594268E+02  0.43400726791E+02  0.00000000000E+00 0. -1.
         11    1    3    3    0    0  0.12445187141E+02 -0.41450168163E-01  0.73089021526E+01  0.14432756217E+02  0.51100000000E-03 0. -1.
        -11    1    3    3    0    0  0.84585410476E+00  0.20430929069E+01  0.58059831938E+01  0.62128205270E+01  0.51100000000E-03 0.  1.
         12    1    3    3    0    0  0.29776142938E+01  0.29077608257E+01  0.26820708922E+02  0.27141696464E+02  0.00000000000E+00 0. -1.
</event>
<event>
 7    1  0.1736465E-010  0.4778729E+02  0.7816164E-02  0.1312668E+00
        -11   -1    0    0    0    0  0.00000000000E+00  0.00000000000E+00  0.45593999997E+02  0.45594000000E+02  0.51100000000E-03 0.  1.
         11   -1    0    0    0    0 -0.00000000000E+00 -0.00000000000E+00 -0.45593999997E+02  0.45594000000E+02  0.51100000000E-03 0. -1.
    9900012    2    1    2    0    0  0.36665464310E+02 -0.18597557509E+02  0.13906682871E+02  0.47787294397E+02  0.20000106473E+02 0.  0.
         12    1    1    2    0    0 -0.36665464310E+02  0.18597557509E+02 -0.13906682871E+02  0.43400705603E+02  0.00000000000E+00 0. -1.
         11    1    3    3    0    0  0.81484510297E+01 -0.56969411483E+01 -0.13679475106E+01  0.10036118437E+02  0.51100000000E-03 0. -1.
        -11    1    3    3    0    0  0.10389458670E+02 -0.99945495572E+01  0.12699931208E+02  0.19212499193E+02  0.51100000000E-03 0.  1.
        -12    1    3    3    0    0  0.18127554611E+02 -0.29060668032E+01  0.25746991742E+01  0.18538676767E+02  0.00000000000E+00 0.  1.
</event>
<event>
 7    1  0.1736465E-010  0.4778727E+02  0.7816164E-02  0.1312668E+00
        -11   -1    0    0    0    0  0.00000000000E+00  0.00000000000E+00  0.45593999997E+02  0.45594000000E+02  0.51100000000E-03 0.  1.
         11   -1    0    0    0    0 -0.00000000000E+00 -0.00000000000E+00 -0.45593999997E+02  0.45594000000E+02  0.51100000000E-03 0. -1.
    9900012    2    1    2    0    0  0.21149619895E+02  0.34352145392E+02  0.16007715148E+02  0.47787271216E+02  0.20000000783E+02 0.  0.
         12    1    1    2    0    0 -0.21149619895E+02 -0.34352145392E+02 -0.16007715148E+02  0.43400728784E+02  0.00000000000E+00 0. -1.
         11    1    3    3    0    0  0.82264210047E+01  0.26000475811E+02  0.11251107216E+02  0.29500612854E+02  0.51100000000E-03 0.  1.
        -11    1    3    3    0    0  0.10943306028E+02  0.10146589881E+02  0.34742873058E+01  0.15322529347E+02  0.51100000000E-03 0. -1.
        -12    1    3    3    0    0  0.19798928625E+01 -0.17949203001E+01  0.12823206260E+01  0.29641290152E+01  0.00000000000E+00 0.  1.
</event>
<event>
 7    1  0.1736465E-010  0.4778727E+02  0.7816164E-02  0.1312668E+00
        -11   -1    0    0    0    0  0.00000000000E+00  0.00000000000E+00  0.45593999997E+02  0.45594000000E+02  0.51100000000E-03 0.  1.
         11   -1    0    0    0    0 -0.00000000000E+00 -0.00000000000E+00 -0.45593999997E+02  0.45594000000E+02  0.51100000000E-03 0. -1.
    9900012    2    1    2    0    0 -0.27674035065E+02  0.32864154126E+01  0.33271166196E+02  0.47787271399E+02  0.20000001618E+02 0.  0.
         12    1    1    2    0    0  0.27674035065E+02 -0.32864154126E+01 -0.33271166196E+02  0.43400728601E+02  0.00000000000E+00 0. -1.
         11    1    3    3    0    0 -0.92318621355E+01  0.31977284995E+01  0.13713869816E+02  0.16838140385E+02  0.51100000000E-03 0. -1.
        -11    1    3    3    0    0 -0.16333966853E+02  0.28956886907E+01  0.21326032172E+02  0.27018200062E+02  0.51100000000E-03 0.  1.
         12    1    3    3    0    0 -0.21082060769E+01 -0.28070017775E+01 -0.17687357926E+01  0.39309309516E+01  0.00000000000E+00 0. -1.
</event>
<event>
 7    1  0.1736465E-010  0.4778727E+02  0.7816164E-02  0.1312668E+00
        -11   -1    0    0    0    0  0.00000000000E+00  0.00000000000E+00  0.45593999997E+02  0.45594000000E+02  0.51100000000E-03 0.  1.
         11   -1    0    0    0    0 -0.00000000000E+00 -0.00000000000E+00 -0.45593999997E+02  0.45594000000E+02  0.51100000000E-03 0. -1.
    9900012    2    1    2    0    0  0.30701092853E+02 -0.54583202218E+00  0.30671947734E+02  0.47787269444E+02  0.19999992705E+02 0.  0.
         12    1    1    2    0    0 -0.30701092853E+02  0.54583202218E+00 -0.30671947734E+02  0.43400730556E+02  0.00000000000E+00 0. -1.
         11    1    3    3    0    0  0.57626334716E+01  0.46405133323E+01  0.25162148209E+01  0.78149629431E+01  0.51100000000E-03 0. -1.
        -11    1    3    3    0    0  0.21396001549E+02  0.72282820370E+00  0.22513084472E+02  0.31066868777E+02  0.51100000000E-03 0.  1.
         12    1    3    3    0    0  0.35424578320E+01 -0.59091735582E+01  0.56426484410E+01  0.89054377243E+01  0.00000000000E+00 0. -1.
</event>
<event>
 7    1  0.1736465E-010  0.4778727E+02  0.7816164E-02  0.1312668E+00
        -11   -1    0    0    0    0  0.00000000000E+00  0.00000000000E+00  0.45593999997E+02  0.45594000000E+02  0.51100000000E-03 0.  1.
         11   -1    0    0    0    0 -0.00000000000E+00 -0.00000000000E+00 -0.45593999997E+02  0.45594000000E+02  0.51100000000E-03 0. -1.
    9900012    2    1    2    0    0 -0.13907369432E+02  0.32155858506E+02  0.25616589006E+02  0.47787265063E+02  0.19999972726E+02 0.  0.
         12    1    1    2    0    0  0.13907369432E+02 -0.32155858506E+02 -0.25616589006E+02  0.43400734937E+02  0.00000000000E+00 0. -1.
         11    1    3    3    0    0 -0.10677919657E+01  0.12734509119E+02  0.15933279445E+02  0.20424918515E+02  0.51100000000E-03 0. -1.
        -11    1    3    3    0    0 -0.10345901530E+02  0.10432527912E+02  0.10408498945E+02  0.18005892582E+02  0.51100000000E-03 0.  1.
        -12    1    3    3    0    0 -0.24936759363E+01  0.89888214748E+01 -0.72518938392E+00  0.93564539664E+01  0.00000000000E+00 0.  1.
</event>
<event>
 7    1  0.1736465E-010  0.4778727E+02  0.7816164E-02  0.1312668E+00
        -11   -1    0    0    0    0  0.00000000000E+00  0.00000000000E+00  0.45593999997E+02  0.45594000000E+02  0.51100000000E-03 0.  1.
         11   -1    0    0    0    0 -0.00000000000E+00 -0.00000000000E+00 -0.45593999997E+02  0.45594000000E+02  0.51100000000E-03 0. -1.
    9900012    2    1    2    0    0  0.24333722014E+02 -0.52052770144E+01  0.35558380240E+02  0.47787270269E+02  0.19999996464E+02 0.  0.
         12    1    1    2    0    0 -0.24333722014E+02  0.52052770144E+01 -0.35558380240E+02  0.43400729731E+02  0.00000000000E+00 0. -1.
         11    1    3    3    0    0  0.12518031827E+02  0.37746939710E-01  0.12466231690E+02  0.17666620460E+02  0.51100000000E-03 0.  1.
        -11    1    3    3    0    0 -0.10863087821E+00  0.10120502595E+01 -0.16575205346E+01  0.19451017915E+01  0.51100000000E-03 0. -1.
         12    1    3    3    0    0  0.11924321066E+02 -0.62550742137E+01  0.24749669085E+02  0.28175548018E+02  0.00000000000E+00 0. -1.
</event>
<event>
 7    1  0.1736465E-010  0.4778727E+02  0.7816164E-02  0.1312668E+00
        -11   -1    0    0    0    0  0.00000000000E+00  0.00000000000E+00  0.45593999997E+02  0.45594000000E+02  0.51100000000E-03 0.  1.
         11   -1    0    0    0    0 -0.00000000000E+00 -0.00000000000E+00 -0.45593999997E+02  0.45594000000E+02  0.51100000000E-03 0. -1.
    9900012    2    1    2    0    0  0.33993614508E+02  0.22907310014E+02  0.14258761521E+02  0.47787274666E+02  0.20000016513E+02 0.  0.
         12    1    1    2    0    0 -0.33993614508E+02 -0.22907310014E+02 -0.14258761521E+02  0.43400725334E+02  0.00000000000E+00 0. -1.
         11    1    3    3    0    0  0.59995519537E+01  0.22776285979E+01 -0.17986563003E+01  0.66646365560E+01  0.51100000000E-03 0. -1.
        -11    1    3    3    0    0  0.16769643318E+01  0.37708197669E+01 -0.24506158358E+01  0.47996676260E+01  0.51100000000E-03 0.  1.
        -12    1    3    3    0    0  0.26317098222E+02  0.16858861649E+02  0.18508033657E+02  0.36322970484E+02  0.00000000000E+00 0.  1.
</event>
<event>
 7    1  0.1736465E-010  0.4778726E+02  0.7816164E-02  0.1312668E+00
        -11   -1    0    0    0    0  0.00000000000E+00  0.00000000000E+00  0.45593999997E+02  0.45594000000E+02  0.51100000000E-03 0. -1.
         11   -1    0    0    0    0 -0.00000000000E+00 -0.00000000000E+00 -0.45593999997E+02  0.45594000000E+02  0.51100000000E-03 0.  1.
    9900012    2    1    2    0    0 -0.41723274745E+02  0.68280690488E+01 -0.98066496673E+01  0.47787256227E+02  0.19999932440E+02 0.  0.
         12    1    1    2    0    0  0.41723274745E+02 -0.68280690488E+01  0.98066496673E+01  0.43400743773E+02  0.00000000000E+00 0. -1.
         11    1    3    3    0    0 -0.90825116785E+01 -0.37306576052E+01 -0.37607352064E+01  0.10514416489E+02  0.51100000000E-03 0. -1.
        -11    1    3    3    0    0 -0.24501844916E+02  0.66895305235E+01  0.16078112662E+01  0.25449465225E+02  0.51100000000E-03 0.  1.
         12    1    3    3    0    0 -0.81389181508E+01  0.38691961304E+01 -0.76537257271E+01  0.11823374513E+02  0.00000000000E+00 0. -1.
</event>
<event>
 7    1  0.1736465E-010  0.4778727E+02  0.7816164E-02  0.1312668E+00
        -11   -1    0    0    0    0  0.00000000000E+00  0.00000000000E+00  0.45593999997E+02  0.45594000000E+02  0.51100000000E-03 0.  1.
         11   -1    0    0    0    0 -0.00000000000E+00 -0.00000000000E+00 -0.45593999997E+02  0.45594000000E+02  0.51100000000E-03 0. -1.
    9900012    2    1    2    0    0 -0.24329131217E+02 -0.13562889471E+02  0.33283100585E+02  0.47787269809E+02  0.19999994366E+02 0.  0.
         12    1    1    2    0    0  0.24329131217E+02  0.13562889471E+02 -0.33283100585E+02  0.43400730191E+02  0.00000000000E+00 0. -1.
         11    1    3    3    0    0 -0.27075973854E+01 -0.68751721254E+01  0.87019391334E+01  0.11415902080E+02  0.51100000000E-03 0. -1.
        -11    1    3    3    0    0 -0.22086118462E+02 -0.72639151139E+01  0.17118780864E+02  0.28872370010E+02  0.51100000000E-03 0.  1.
         12    1    3    3    0    0  0.46458463042E+00  0.57619776790E+00  0.74623805877E+01  0.74989977185E+01  0.00000000000E+00 0. -1.
</event>
<event>
 7    1  0.1736465E-010  0.4778727E+02  0.7816164E-02  0.1312668E+00
        -11   -1    0    0    0    0  0.00000000000E+00  0.00000000000E+00  0.45593999997E+02  0.45594000000E+02  0.51100000000E-03 0.  1.
         11   -1    0    0    0    0 -0.00000000000E+00 -0.00000000000E+00 -0.45593999997E+02  0.45594000000E+02  0.51100000000E-03 0. -1.
    9900012    2    1    2    0    0  0.34900435080E+02  0.22989213342E+02 -0.11708070922E+02  0.47787271624E+02  0.20000002641E+02 0.  0.
         12    1    1    2    0    0 -0.34900435080E+02 -0.22989213342E+02  0.11708070922E+02  0.43400728376E+02  0.00000000000E+00 0. -1.
         11    1    3    3    0    0 -0.16113194609E-01  0.13007958190E+01  0.11715400824E+01  0.17506672509E+01  0.51100000000E-03 0. -1.
        -11    1    3    3    0    0  0.31596610459E+02  0.18827624328E+02 -0.16538051895E+02  0.40327811632E+02  0.51100000000E-03 0.  1.
        -12    1    3    3    0    0  0.33199378160E+01  0.28607931952E+01  0.36584408902E+01  0.57087927406E+01  0.00000000000E+00 0.  1.
</event>
<event>
 7    1  0.1736465E-010  0.4778727E+02  0.7816164E-02  0.1312668E+00
        -11   -1    0    0    0    0  0.00000000000E+00  0.00000000000E+00  0.45593999997E+02  0.45594000000E+02  0.51100000000E-03 0. -1.
         11   -1    0    0    0    0 -0.00000000000E+00 -0.00000000000E+00 -0.45593999997E+02  0.45594000000E+02  0.51100000000E-03 0.  1.
    9900012    2    1    2    0    0  0.30810256534E+02 -0.24445718481E+02 -0.18350967066E+02  0.47787273601E+02  0.20000011655E+02 0.  0.
         12    1    1    2    0    0 -0.30810256534E+02  0.24445718481E+02  0.18350967066E+02  0.43400726399E+02  0.00000000000E+00 0. -1.
         11    1    3    3    0    0  0.10197948671E+02 -0.18492697423E+02 -0.68977887536E+01  0.22216154146E+02  0.51100000000E-03 0. -1.
        -11    1    3    3    0    0  0.38324449536E+01 -0.33765257088E+00 -0.58666651049E+01  0.70156541602E+01  0.51100000000E-03 0.  1.
         12    1    3    3    0    0  0.16779862909E+02 -0.56153684869E+01 -0.55865132076E+01  0.18555465295E+02  0.00000000000E+00 0. -1.
</event>
<event>
 7    1  0.1736465E-010  0.4778727E+02  0.7816164E-02  0.1312668E+00
        -11   -1    0    0    0    0  0.00000000000E+00  0.00000000000E+00  0.45593999997E+02  0.45594000000E+02  0.51100000000E-03 0. -1.
         11   -1    0    0    0    0 -0.00000000000E+00 -0.00000000000E+00 -0.45593999997E+02  0.45594000000E+02  0.51100000000E-03 0.  1.
    9900012    2    1    2    0    0 -0.16591096003E+02 -0.35598165288E+02 -0.18469692514E+02  0.47787269822E+02  0.19999994426E+02 0.  0.
         12    1    1    2    0    0  0.16591096003E+02  0.35598165288E+02  0.18469692514E+02  0.43400730178E+02  0.00000000000E+00 0. -1.
         11    1    3    3    0    0 -0.46546206909E+00  0.33979058511E+00  0.14153011651E+01  0.15281329224E+01  0.51100000000E-03 0. -1.
        -11    1    3    3    0    0 -0.54103759901E+01 -0.25304741525E+02 -0.16798357331E+02  0.30851044087E+02  0.51100000000E-03 0.  1.
         12    1    3    3    0    0 -0.10715257944E+02 -0.10633214348E+02 -0.30866363480E+01  0.15408092812E+02  0.00000000000E+00 0. -1.
</event>
<event>
 7    1  0.1736465E-010  0.4778727E+02  0.7816164E-02  0.1312668E+00
        -11   -1    0    0    0    0  0.00000000000E+00  0.00000000000E+00  0.45593999997E+02  0.45594000000E+02  0.51100000000E-03 0. -1.
         11   -1    0    0    0    0 -0.00000000000E+00 -0.00000000000E+00 -0.45593999997E+02  0.45594000000E+02  0.51100000000E-03 0.  1.
    9900012    2    1    2    0    0 -0.21448917999E+02 -0.20016594352E+02 -0.31982863075E+02  0.47787266559E+02  0.19999979547E+02 0.  0.
         12    1    1    2    0    0  0.21448917999E+02  0.20016594352E+02  0.31982863075E+02  0.43400733441E+02  0.00000000000E+00 0. -1.
         11    1    3    3    0    0  0.74509399811E+00  0.12654851361E+01 -0.23075055277E+01  0.27351781874E+01  0.51100000000E-03 0. -1.
        -11    1    3    3    0    0 -0.52319675163E+01  0.12219845035E+01 -0.73256001527E+01  0.90846655456E+01  0.51100000000E-03 0.  1.
         12    1    3    3    0    0 -0.16962044481E+02 -0.22504063991E+02 -0.22349757395E+02  0.35967422825E+02  0.00000000000E+00 0. -1.
</event>
<event>
 7    1  0.1736465E-010  0.4778723E+02  0.7816164E-02  0.1312668E+00
        -11   -1    0    0    0    0  0.00000000000E+00  0.00000000000E+00  0.45593999997E+02  0.45594000000E+02  0.51100000000E-03 0. -1.
         11   -1    0    0    0    0 -0.00000000000E+00 -0.00000000000E+00 -0.45593999997E+02  0.45594000000E+02  0.51100000000E-03 0.  1.
    9900012    2    1    2    0    0 -0.31110802674E+02  0.15187335727E+01 -0.30223143196E+02  0.47787228356E+02  0.19999805364E+02 0.  0.
         12    1    1    2    0    0  0.31110802674E+02 -0.15187335727E+01  0.30223143196E+02  0.43400771644E+02  0.00000000000E+00 0. -1.
         11    1    3    3    0    0 -0.10205302548E+02 -0.19885987784E+00 -0.81326556323E+01  0.13050970586E+02  0.51100000000E-03 0. -1.
        -11    1    3    3    0    0 -0.71010680540E+01 -0.58446410243E+01 -0.14717749263E+02  0.17355032118E+02  0.51100000000E-03 0.  1.
         12    1    3    3    0    0 -0.13804432072E+02  0.75622344748E+01 -0.73727383010E+01  0.17381225651E+02  0.00000000000E+00 0. -1.
</event>
<event>
 7    1  0.1736465E-010  0.4778728E+02  0.7816164E-02  0.1312668E+00
        -11   -1    0    0    0    0  0.00000000000E+00  0.00000000000E+00  0.45593999997E+02  0.45594000000E+02  0.51100000000E-03 0.  1.
         11   -1    0    0    0    0 -0.00000000000E+00 -0.00000000000E+00 -0.45593999997E+02  0.45594000000E+02  0.51100000000E-03 0. -1.
    9900012    2    1    2    0    0  0.19997549073E+02 -0.33776464395E+02  0.18516785909E+02  0.47787275624E+02  0.20000020882E+02 0.  0.
         12    1    1    2    0    0 -0.19997549073E+02  0.33776464395E+02 -0.18516785909E+02  0.43400724376E+02  0.00000000000E+00 0. -1.
         11    1    3    3    0    0  0.10429635508E+02 -0.38858223266E+01  0.10097587216E+02  0.15027913356E+02  0.51100000000E-03 0.  1.
        -11    1    3    3    0    0  0.13464039782E+01 -0.10527257543E+02  0.24449348673E+01  0.10890989938E+02  0.51100000000E-03 0. -1.
        -12    1    3    3    0    0  0.82215095865E+01 -0.19363384525E+02  0.59742638258E+01  0.21868372331E+02  0.00000000000E+00 0.  1.
</event>
<event>
 7    1  0.1736465E-010  0.4778726E+02  0.7816164E-02  0.1312668E+00
        -11   -1    0    0    0    0  0.00000000000E+00  0.00000000000E+00  0.45593999997E+02  0.45594000000E+02  0.51100000000E-03 0.  1.
         11   -1    0    0    0    0 -0.00000000000E+00 -0.00000000000E+00 -0.45593999997E+02  0.45594000000E+02  0.51100000000E-03 0. -1.
    9900012    2    1    2    0    0 -0.11954223091E+02 -0.20918871035E+02  0.36098770910E+02  0.47787264104E+02  0.19999968356E+02 0.  0.
         12    1    1    2    0    0  0.11954223091E+02  0.20918871035E+02 -0.36098770910E+02  0.43400735896E+02  0.00000000000E+00 0. -1.
         11    1    3    3    0    0  0.26750411833E+01 -0.30233254986E+01  0.30576586816E+01  0.50641504003E+01  0.51100000000E-03 0.  1.
        -11    1    3    3    0    0 -0.92335570756E+01 -0.13158620103E+02  0.31521926936E+02  0.35384173543E+02  0.51100000000E-03 0. -1.
         12    1    3    3    0    0 -0.53957071985E+01 -0.47369254335E+01  0.15191852924E+01  0.73389401610E+01  0.00000000000E+00 0. -1.
</event>
<event>
 7    1  0.1736465E-010  0.4778727E+02  0.7816164E-02  0.1312668E+00
        -11   -1    0    0    0    0  0.00000000000E+00  0.00000000000E+00  0.45593999997E+02  0.45594000000E+02  0.51100000000E-03 0.  1.
         11   -1    0    0    0    0 -0.00000000000E+00 -0.00000000000E+00 -0.45593999997E+02  0.45594000000E+02  0.51100000000E-03 0. -1.
    9900012    2    1    2    0    0 -0.28440346556E+02  0.62694783114E+01  0.32178626051E+02  0.47787266768E+02  0.19999980502E+02 0.  0.
         12    1    1    2    0    0  0.28440346556E+02 -0.62694783114E+01 -0.32178626051E+02  0.43400733232E+02  0.00000000000E+00 0. -1.
         11    1    3    3    0    0 -0.78265976397E+01  0.73907337259E+00  0.18096489630E+02  0.19730301500E+02  0.51100000000E-03 0. -1.
        -11    1    3    3    0    0 -0.19287620563E+02  0.67467483921E+01  0.15596017225E+02  0.25705382207E+02  0.51100000000E-03 0.  1.
         12    1    3    3    0    0 -0.13261283535E+01 -0.12163434533E+01 -0.15138808041E+01  0.23515830616E+01  0.00000000000E+00 0. -1.
</event>
<event>
 7    1  0.1736465E-010  0.4778727E+02  0.7816164E-02  0.1312668E+00
        -11   -1    0    0    0    0  0.00000000000E+00  0.00000000000E+00  0.45593999997E+02  0.45594000000E+02  0.51100000000E-03 0. -1.
         11   -1    0    0    0    0 -0.00000000000E+00 -0.00000000000E+00 -0.45593999997E+02  0.45594000000E+02  0.51100000000E-03 0.  1.
    9900012    2    1    2    0    0  0.39716913697E+02 -0.17084068209E+02  0.37847597784E+01  0.47787273891E+02  0.20000012978E+02 0.  0.
         12    1    1    2    0    0 -0.39716913697E+02  0.17084068209E+02 -0.37847597784E+01  0.43400726109E+02  0.00000000000E+00 0. -1.
         11    1    3    3    0    0  0.44986535119E+01 -0.54475357769E+01  0.20424363278E+01  0.73542556302E+01  0.51100000000E-03 0. -1.
        -11    1    3    3    0    0  0.32334271217E+02 -0.62639667508E+01 -0.24605477151E+01  0.33027211053E+02  0.51100000000E-03 0.  1.
         12    1    3    3    0    0  0.28839889686E+01 -0.53725656812E+01  0.42028711656E+01  0.74058072082E+01  0.00000000000E+00 0. -1.
</event>
<event>
 7    1  0.1736465E-010  0.4778726E+02  0.7816164E-02  0.1312668E+00
        -11   -1    0    0    0    0  0.00000000000E+00  0.00000000000E+00  0.45593999997E+02  0.45594000000E+02  0.51100000000E-03 0.  1.
         11   -1    0    0    0    0 -0.00000000000E+00 -0.00000000000E+00 -0.45593999997E+02  0.45594000000E+02  0.51100000000E-03 0. -1.
    9900012    2    1    2    0    0  0.11103683387E+02  0.37639326940E+02  0.18536803470E+02  0.47787264981E+02  0.19999972355E+02 0.  0.
         12    1    1    2    0    0 -0.11103683387E+02 -0.37639326940E+02 -0.18536803470E+02  0.43400735019E+02  0.00000000000E+00 0. -1.
         11    1    3    3    0    0  0.18423391526E+01  0.17235788581E+02  0.84692830760E+01  0.19292365787E+02  0.51100000000E-03 0. -1.
        -11    1    3    3    0    0  0.41872200247E+01  0.33109087711E+01  0.92091018701E+01  0.10644364046E+02  0.51100000000E-03 0.  1.
        -12    1    3    3    0    0  0.50741242099E+01  0.17092629588E+02  0.85841852402E+00  0.17850535148E+02  0.00000000000E+00 0.  1.
</event>
<event>
 7    1  0.1736465E-010  0.4778726E+02  0.7816164E-02  0.1312668E+00
        -11   -1    0    0    0    0  0.00000000000E+00  0.00000000000E+00  0.45593999997E+02  0.45594000000E+02  0.51100000000E-03 0.  1.
         11   -1    0    0    0    0 -0.00000000000E+00 -0.00000000000E+00 -0.45593999997E+02  0.45594000000E+02  0.51100000000E-03 0. -1.
    9900012    2    1    2    0    0 -0.41007749431E+02  0.13319298637E+02  0.49582833884E+01  0.47787264941E+02  0.19999972170E+02 0.  0.
         12    1    1    2    0    0  0.41007749431E+02 -0.13319298637E+02 -0.49582833884E+01  0.43400735059E+02  0.00000000000E+00 0. -1.
         11    1    3    3    0    0  0.14461256411E+01  0.22140304302E+01 -0.14411004338E+01  0.30116408878E+01  0.51100000000E-03 0. -1.
        -11    1    3    3    0    0 -0.27251597761E+02  0.95914575022E+01  0.24379453113E+01  0.28992916638E+02  0.51100000000E-03 0.  1.
        -12    1    3    3    0    0 -0.15202277310E+02  0.15138107048E+01  0.39614385108E+01  0.15782707415E+02  0.00000000000E+00 0.  1.
</event>
<event>
 7    1  0.1736465E-010  0.4778727E+02  0.7816164E-02  0.1312668E+00
        -11   -1    0    0    0    0  0.00000000000E+00  0.00000000000E+00  0.45593999997E+02  0.45594000000E+02  0.51100000000E-03 0.  1.
         11   -1    0    0    0    0 -0.00000000000E+00 -0.00000000000E+00 -0.45593999997E+02  0.45594000000E+02  0.51100000000E-03 0. -1.
    9900012    2    1    2    0    0 -0.17466879985E+02 -0.16489719882E+02  0.36147202462E+02  0.47787274153E+02  0.20000014175E+02 0.  0.
         12    1    1    2    0    0  0.17466879985E+02  0.16489719882E+02 -0.36147202462E+02  0.43400725847E+02  0.00000000000E+00 0. -1.
         11    1    3    3    0    0  0.51459062523E+00 -0.69975860362E+01  0.11547033982E+02  0.13511661921E+02  0.51100000000E-03 0. -1.
        -11    1    3    3    0    0 -0.13715197268E+02 -0.11331217044E+02  0.13789477766E+02  0.22508949622E+02  0.51100000000E-03 0.  1.
         12    1    3    3    0    0 -0.42662733424E+01  0.18390831977E+01  0.10810690715E+02  0.11766662610E+02  0.00000000000E+00 0. -1.
</event>
<event>
 7    1  0.1736465E-010  0.4778727E+02  0.7816164E-02  0.1312668E+00
        -11   -1    0    0    0    0  0.00000000000E+00  0.00000000000E+00  0.45593999997E+02  0.45594000000E+02  0.51100000000E-03 0.  1.
         11   -1    0    0    0    0 -0.00000000000E+00 -0.00000000000E+00 -0.45593999997E+02  0.45594000000E+02  0.51100000000E-03 0. -1.
    9900012    2    1    2    0    0 -0.14618671286E+02  0.26335218039E+02  0.31246984365E+02  0.47787270845E+02  0.19999999089E+02 0.  0.
         12    1    1    2    0    0  0.14618671286E+02 -0.26335218039E+02 -0.31246984365E+02  0.43400729155E+02  0.00000000000E+00 0. -1.
         11    1    3    3    0    0 -0.64756464895E+01  0.18257007342E+02  0.91071717130E+01  0.21405440696E+02  0.51100000000E-03 0. -1.
        -11    1    3    3    0    0 -0.14959879591E+01 -0.17632842508E+01  0.23149771898E+01  0.32720438526E+01  0.51100000000E-03 0.  1.
        -12    1    3    3    0    0 -0.66470368375E+01  0.98414949480E+01  0.19824835462E+02  0.23109786295E+02  0.00000000000E+00 0.  1.
</event>
<event>
 7    1  0.1736465E-010  0.4778727E+02  0.7816164E-02  0.1312668E+00
        -11   -1    0    0    0    0  0.00000000000E+00  0.00000000000E+00  0.45593999997E+02  0.45594000000E+02  0.51100000000E-03 0.  1.
         11   -1    0    0    0    0 -0.00000000000E+00 -0.00000000000E+00 -0.45593999997E+02  0.45594000000E+02  0.51100000000E-03 0. -1.
    9900012    2    1    2    0    0  0.14233931745E+02  0.59521329915E+00  0.40995904160E+02  0.47787271323E+02  0.20000001269E+02 0.  0.
         12    1    1    2    0    0 -0.14233931745E+02 -0.59521329915E+00 -0.40995904160E+02  0.43400728677E+02  0.00000000000E+00 0. -1.
         11    1    3    3    0    0  0.11811359657E+02 -0.20696150857E+01  0.18031942399E+02  0.21655079555E+02  0.51100000000E-03 0. -1.
        -11    1    3    3    0    0 -0.72007792373E+00  0.10543531427E+00 -0.13226880514E+01  0.15096796893E+01  0.51100000000E-03 0.  1.
        -12    1    3    3    0    0  0.31426500117E+01  0.25593930706E+01  0.24286649812E+02  0.24622512079E+02  0.00000000000E+00 0.  1.
</event>
<event>
 7    1  0.1736465E-010  0.4778728E+02  0.7816164E-02  0.1312668E+00
        -11   -1    0    0    0    0  0.00000000000E+00  0.00000000000E+00  0.45593999997E+02  0.45594000000E+02  0.51100000000E-03 0.  1.
         11   -1    0    0    0    0 -0.00000000000E+00 -0.00000000000E+00 -0.45593999997E+02  0.45594000000E+02  0.51100000000E-03 0. -1.
    9900012    2    1    2    0    0  0.40699362113E+02  0.91914973092E+01 -0.11945760160E+02  0.47787275525E+02  0.20000020426E+02 0.  0.
         12    1    1    2    0    0 -0.40699362113E+02 -0.91914973092E+01  0.11945760160E+02  0.43400724475E+02  0.00000000000E+00 0. -1.
         11    1    3    3    0    0  0.28221662294E+02  0.48213408385E+01 -0.10437188885E+02  0.30473635527E+02  0.51100000000E-03 0. -1.
        -11    1    3    3    0    0  0.12776642339E+01  0.21721246800E+01 -0.48116449384E+01  0.54316184323E+01  0.51100000000E-03 0.  1.
        -12    1    3    3    0    0  0.11200035585E+02  0.21980317907E+01  0.33030736634E+01  0.11882021566E+02  0.00000000000E+00 0.  1.
</event>
<event>
 7    1  0.1736465E-010  0.4778727E+02  0.7816164E-02  0.1312668E+00
        -11   -1    0    0    0    0  0.00000000000E+00  0.00000000000E+00  0.45593999997E+02  0.45594000000E+02  0.51100000000E-03 0. -1.
         11   -1    0    0    0    0 -0.00000000000E+00 -0.00000000000E+00 -0.45593999997E+02  0.45594000000E+02  0.51100000000E-03 0.  1.
    9900012    2    1    2    0    0  0.27028414645E+01  0.26969419633E+02 -0.33896437817E+02  0.47787269084E+02  0.19999991061E+02 0.  0.
         12    1    1    2    0    0 -0.27028414645E+01 -0.26969419633E+02  0.33896437817E+02  0.43400730916E+02  0.00000000000E+00 0. -1.
         11    1    3    3    0    0  0.47225857745E+01  0.16683116711E+02 -0.70882541268E+01  0.18731592202E+02  0.51100000000E-03 0. -1.
        -11    1    3    3    0    0 -0.77443259858E-01  0.79385690397E+00 -0.65639598182E+01  0.66122443238E+01  0.51100000000E-03 0.  1.
         12    1    3    3    0    0 -0.19423010502E+01  0.94924460183E+01 -0.20244223873E+02  0.22443432558E+02  0.00000000000E+00 0. -1.
</event>
<event>
 7    1  0.1736465E-010  0.4778729E+02  0.7816164E-02  0.1312668E+00
        -11   -1    0    0    0    0  0.00000000000E+00  0.00000000000E+00  0.45593999997E+02  0.45594000000E+02  0.51100000000E-03 0.  1.
         11   -1    0    0    0    0 -0.00000000000E+00 -0.00000000000E+00 -0.45593999997E+02  0.45594000000E+02  0.51100000000E-03 0. -1.
    9900012    2    1    2    0    0 -0.31214304068E+02 -0.11534881516E+02  0.27861000013E+02  0.47787290423E+02  0.20000088355E+02 0.  0.
         12    1    1    2    0    0  0.31214304068E+02  0.11534881516E+02 -0.27861000013E+02  0.43400709577E+02  0.00000000000E+00 0. -1.
         11    1    3    3    0    0 -0.54545894128E+01 -0.66341794061E+01  0.12661918572E+02  0.15299969420E+02  0.51100000000E-03 0. -1.
        -11    1    3    3    0    0 -0.26036109723E+02 -0.64479296934E+01  0.13060764010E+02  0.29833510749E+02  0.51100000000E-03 0.  1.
         12    1    3    3    0    0  0.27639506788E+00  0.15472275834E+01  0.21383174308E+01  0.26538102538E+01  0.00000000000E+00 0. -1.
</event>
<event>
 7    1  0.1736465E-010  0.4778727E+02  0.7816164E-02  0.1312668E+00
        -11   -1    0    0    0    0  0.00000000000E+00  0.00000000000E+00  0.45593999997E+02  0.45594000000E+02  0.51100000000E-03 0.  1.
         11   -1    0    0    0    0 -0.00000000000E+00 -0.00000000000E+00 -0.45593999997E+02  0.45594000000E+02  0.51100000000E-03 0. -1.
    9900012    2    1    2    0    0  0.35768097839E+02  0.24188985769E+02 -0.43771301759E+01  0.47787272769E+02  0.20000007864E+02 0.  0.
         12    1    1    2    0    0 -0.35768097839E+02 -0.24188985769E+02  0.43771301759E+01  0.43400727231E+02  0.00000000000E+00 0. -1.
         11    1    3    3    0    0  0.64288482358E+01  0.11042028086E+02  0.41831037677E+01  0.13444509336E+02  0.51100000000E-03 0. -1.
        -11    1    3    3    0    0  0.20049263829E+02  0.91500547338E+01 -0.16625382773E+01  0.22101142855E+02  0.51100000000E-03 0.  1.
        -12    1    3    3    0    0  0.92899857742E+01  0.39969029492E+01 -0.68976956662E+01  0.12241620578E+02  0.00000000000E+00 0.  1.
</event>
<event>
 7    1  0.1736465E-010  0.4778727E+02  0.7816164E-02  0.1312668E+00
        -11   -1    0    0    0    0  0.00000000000E+00  0.00000000000E+00  0.45593999997E+02  0.45594000000E+02  0.51100000000E-03 0. -1.
         11   -1    0    0    0    0 -0.00000000000E+00 -0.00000000000E+00 -0.45593999997E+02  0.45594000000E+02  0.51100000000E-03 0.  1.
    9900012    2    1    2    0    0  0.13743838380E+02 -0.38051850173E+02 -0.15709448880E+02  0.47787272136E+02  0.20000004978E+02 0.  0.
         12    1    1    2    0    0 -0.13743838380E+02  0.38051850173E+02  0.15709448880E+02  0.43400727864E+02  0.00000000000E+00 0. -1.
         11    1    3    3    0    0 -0.47657907598E+01 -0.69301150632E+01 -0.19010740166E+01  0.86228382238E+01  0.51100000000E-03 0. -1.
        -11    1    3    3    0    0  0.85315455782E+01 -0.19378224685E+02 -0.91492457341E+01  0.23065375776E+02  0.51100000000E-03 0.  1.
         12    1    3    3    0    0  0.99780835612E+01 -0.11743510424E+02 -0.46591291293E+01  0.16099058137E+02  0.00000000000E+00 0. -1.
</event>
<event>
 7    1  0.1736465E-010  0.4778729E+02  0.7816164E-02  0.1312668E+00
        -11   -1    0    0    0    0  0.00000000000E+00  0.00000000000E+00  0.45593999997E+02  0.45594000000E+02  0.51100000000E-03 0. -1.
         11   -1    0    0    0    0 -0.00000000000E+00 -0.00000000000E+00 -0.45593999997E+02  0.45594000000E+02  0.51100000000E-03 0.  1.
    9900012    2    1    2    0    0 -0.11632845428E+02 -0.41031940589E+01 -0.41610848951E+02  0.47787285205E+02  0.20000064565E+02 0.  0.
         12    1    1    2    0    0  0.11632845428E+02  0.41031940589E+01  0.41610848951E+02  0.43400714795E+02  0.00000000000E+00 0. -1.
         11    1    3    3    0    0 -0.96044800459E+00 -0.50233165925E+01 -0.27071936524E+01  0.57866283526E+01  0.51100000000E-03 0. -1.
        -11    1    3    3    0    0 -0.11842705146E+02 -0.20530605096E+01 -0.25063702218E+02  0.27796652528E+02  0.51100000000E-03 0.  1.
         12    1    3    3    0    0  0.11703077225E+01  0.29731830431E+01 -0.13839953081E+02  0.14204004325E+02  0.00000000000E+00 0. -1.
</event>
<event>
 7    1  0.1736465E-010  0.4778727E+02  0.7816164E-02  0.1312668E+00
        -11   -1    0    0    0    0  0.00000000000E+00  0.00000000000E+00  0.45593999997E+02  0.45594000000E+02  0.51100000000E-03 0.  1.
         11   -1    0    0    0    0 -0.00000000000E+00 -0.00000000000E+00 -0.45593999997E+02  0.45594000000E+02  0.51100000000E-03 0. -1.
    9900012    2    1    2    0    0  0.66551130395E+01 -0.74870653238E+01  0.42228859834E+02  0.47787270978E+02  0.19999999699E+02 0.  0.
         12    1    1    2    0    0 -0.66551130395E+01  0.74870653238E+01 -0.42228859834E+02  0.43400729022E+02  0.00000000000E+00 0. -1.
         11    1    3    3    0    0 -0.23015197596E+01 -0.55400552076E+01  0.14268441653E+02  0.15478295525E+02  0.51100000000E-03 0. -1.
        -11    1    3    3    0    0  0.74994353425E+00  0.52025212147E+01  0.79625319342E+01  0.95409935205E+01  0.51100000000E-03 0.  1.
        -12    1    3    3    0    0  0.82066892648E+01 -0.71495313309E+01  0.19997886247E+02  0.22767981933E+02  0.00000000000E+00 0.  1.
</event>
<event>
 7    1  0.1736465E-010  0.4778727E+02  0.7816164E-02  0.1312668E+00
        -11   -1    0    0    0    0  0.00000000000E+00  0.00000000000E+00  0.45593999997E+02  0.45594000000E+02  0.51100000000E-03 0.  1.
         11   -1    0    0    0    0 -0.00000000000E+00 -0.00000000000E+00 -0.45593999997E+02  0.45594000000E+02  0.51100000000E-03 0. -1.
    9900012    2    1    2    0    0 -0.90852236835E+01 -0.20264314109E+02  0.37288596166E+02  0.47787272820E+02  0.20000008097E+02 0.  0.
         12    1    1    2    0    0  0.90852236835E+01  0.20264314109E+02 -0.37288596166E+02  0.43400727180E+02  0.00000000000E+00 0. -1.
         11    1    3    3    0    0  0.36670788697E+01 -0.94421329222E+01  0.15551345145E+02  0.18559247766E+02  0.51100000000E-03 0. -1.
        -11    1    3    3    0    0 -0.58665705901E+01 -0.35388830920E+01  0.16614743107E+02  0.17971923459E+02  0.51100000000E-03 0.  1.
        -12    1    3    3    0    0 -0.68857319631E+01 -0.72832980945E+01  0.51225079144E+01  0.11256101596E+02  0.00000000000E+00 0.  1.
</event>
<event>
 7    1  0.1736465E-010  0.4778728E+02  0.7816164E-02  0.1312668E+00
        -11   -1    0    0    0    0  0.00000000000E+00  0.00000000000E+00  0.45593999997E+02  0.45594000000E+02  0.51100000000E-03 0.  1.
         11   -1    0    0    0    0 -0.00000000000E+00 -0.00000000000E+00 -0.45593999997E+02  0.45594000000E+02  0.51100000000E-03 0. -1.
    9900012    2    1    2    0    0 -0.14108862169E+02 -0.29877325520E+02  0.28140863434E+02  0.47787276887E+02  0.20000026639E+02 0.  0.
         12    1    1    2    0    0  0.14108862169E+02  0.29877325520E+02 -0.28140863434E+02  0.43400723113E+02  0.00000000000E+00 0. -1.
         11    1    3    3    0    0 -0.38429014874E+01 -0.51267127818E+01  0.10463791761E+02  0.12269556393E+02  0.51100000000E-03 0. -1.
        -11    1    3    3    0    0  0.17137070714E+01 -0.57214351116E+00  0.57292428242E+01  0.60073591306E+01  0.51100000000E-03 0.  1.
         12    1    3    3    0    0 -0.11979667753E+02 -0.24178469227E+02  0.11947828848E+02  0.29510361364E+02  0.00000000000E+00 0. -1.
</event>
<event>
 7    1  0.1736465E-010  0.4778727E+02  0.7816164E-02  0.1312668E+00
        -11   -1    0    0    0    0  0.00000000000E+00  0.00000000000E+00  0.45593999997E+02  0.45594000000E+02  0.51100000000E-03 0.  1.
         11   -1    0    0    0    0 -0.00000000000E+00 -0.00000000000E+00 -0.45593999997E+02  0.45594000000E+02  0.51100000000E-03 0. -1.
    9900012    2    1    2    0    0  0.42130521772E+02  0.81460450031E+01  0.65026386448E+01  0.47787271627E+02  0.20000002658E+02 0.  0.
         12    1    1    2    0    0 -0.42130521772E+02 -0.81460450031E+01 -0.65026386448E+01  0.43400728373E+02  0.00000000000E+00 0. -1.
         11    1    3    3    0    0  0.16525737655E+02 -0.24534563630E+01  0.88574184220E+01  0.18909609053E+02  0.51100000000E-03 0. -1.
        -11    1    3    3    0    0  0.18565607273E+02  0.63024266471E+01  0.17149777424E+01  0.19681044281E+02  0.51100000000E-03 0.  1.
         12    1    3    3    0    0  0.70391768437E+01  0.42970747190E+01 -0.40697575196E+01  0.91966182940E+01  0.00000000000E+00 0. -1.
</event>
<event>
 7    1  0.1736465E-010  0.4778727E+02  0.7816164E-02  0.1312668E+00
        -11   -1    0    0    0    0  0.00000000000E+00  0.00000000000E+00  0.45593999997E+02  0.45594000000E+02  0.51100000000E-03 0.  1.
         11   -1    0    0    0    0 -0.00000000000E+00 -0.00000000000E+00 -0.45593999997E+02  0.45594000000E+02  0.51100000000E-03 0. -1.
    9900012    2    1    2    0    0  0.40499295670E+02 -0.18061807558E+01  0.15497364033E+02  0.47787268086E+02  0.19999986513E+02 0.  0.
         12    1    1    2    0    0 -0.40499295670E+02  0.18061807558E+01 -0.15497364033E+02  0.43400731914E+02  0.00000000000E+00 0. -1.
         11    1    3    3    0    0  0.21814657321E+02  0.61096346875E+01  0.20065630497E+01  0.22742761608E+02  0.51100000000E-03 0. -1.
        -11    1    3    3    0    0  0.39656060848E+00  0.75860587274E+00  0.63724535459E+00  0.10671574811E+01  0.51100000000E-03 0.  1.
        -12    1    3    3    0    0  0.18288077741E+02 -0.86744213160E+01  0.12853555629E+02  0.23977348997E+02  0.00000000000E+00 0.  1.
</event>
<event>
 7    1  0.1736465E-010  0.4778727E+02  0.7816164E-02  0.1312668E+00
        -11   -1    0    0    0    0  0.00000000000E+00  0.00000000000E+00  0.45593999997E+02  0.45594000000E+02  0.51100000000E-03 0.  1.
         11   -1    0    0    0    0 -0.00000000000E+00 -0.00000000000E+00 -0.45593999997E+02  0.45594000000E+02  0.51100000000E-03 0. -1.
    9900012    2    1    2    0    0 -0.13638384603E+02 -0.11520040069E+02  0.39558897192E+02  0.47787271839E+02  0.20000003625E+02 0.  0.
         12    1    1    2    0    0  0.13638384603E+02  0.11520040069E+02 -0.39558897192E+02  0.43400728161E+02  0.00000000000E+00 0. -1.
         11    1    3    3    0    0  0.98814561727E-02 -0.54758268158E+01  0.17877765737E+01  0.57602883867E+01  0.51100000000E-03 0.  1.
        -11    1    3    3    0    0 -0.52328058236E+01  0.29742575539E+01  0.10666111158E+02  0.12247219778E+02  0.51100000000E-03 0. -1.
        -12    1    3    3    0    0 -0.84154602358E+01 -0.90184708073E+01  0.27105009461E+02  0.29779763675E+02  0.00000000000E+00 0.  1.
</event>
<event>
 7    1  0.1736465E-010  0.4778727E+02  0.7816164E-02  0.1312668E+00
        -11   -1    0    0    0    0  0.00000000000E+00  0.00000000000E+00  0.45593999997E+02  0.45594000000E+02  0.51100000000E-03 0. -1.
         11   -1    0    0    0    0 -0.00000000000E+00 -0.00000000000E+00 -0.45593999997E+02  0.45594000000E+02  0.51100000000E-03 0.  1.
    9900012    2    1    2    0    0 -0.11005968316E+02 -0.29367028992E+02 -0.30001161015E+02  0.47787269676E+02  0.19999993761E+02 0.  0.
         12    1    1    2    0    0  0.11005968316E+02  0.29367028992E+02  0.30001161015E+02  0.43400730324E+02  0.00000000000E+00 0. -1.
         11    1    3    3    0    0 -0.49491261679E+01 -0.27848198708E+01 -0.11210151092E+02  0.12566485559E+02  0.51100000000E-03 0. -1.
        -11    1    3    3    0    0 -0.89299223823E+01 -0.14892555119E+02 -0.82698050414E+01  0.19233340516E+02  0.51100000000E-03 0.  1.
         12    1    3    3    0    0  0.28730802345E+01 -0.11689654003E+02 -0.10521204881E+02  0.15987443601E+02  0.00000000000E+00 0. -1.
</event>
<event>
 7    1  0.1736465E-010  0.4778726E+02  0.7816164E-02  0.1312668E+00
        -11   -1    0    0    0    0  0.00000000000E+00  0.00000000000E+00  0.45593999997E+02  0.45594000000E+02  0.51100000000E-03 0. -1.
         11   -1    0    0    0    0 -0.00000000000E+00 -0.00000000000E+00 -0.45593999997E+02  0.45594000000E+02  0.51100000000E-03 0.  1.
    9900012    2    1    2    0    0  0.33707217921E+02  0.26421911773E+02 -0.70235635344E+01  0.47787257997E+02  0.19999940510E+02 0.  0.
         12    1    1    2    0    0 -0.33707217921E+02 -0.26421911773E+02  0.70235635344E+01  0.43400742003E+02  0.00000000000E+00 0. -1.
         11    1    3    3    0    0  0.28977107937E+01  0.46033915643E+01 -0.39622846296E+01  0.67296093115E+01  0.51100000000E-03 0.  1.
        -11    1    3    3    0    0  0.13125648075E+02  0.12175722174E+02  0.61216865882E+01  0.18921043702E+02  0.51100000000E-03 0. -1.
         12    1    3    3    0    0  0.17683859052E+02  0.96427980346E+01 -0.91829654930E+01  0.22136604983E+02  0.00000000000E+00 0. -1.
</event>
<event>
 7    1  0.1736465E-010  0.4778727E+02  0.7816164E-02  0.1312668E+00
        -11   -1    0    0    0    0  0.00000000000E+00  0.00000000000E+00  0.45593999997E+02  0.45594000000E+02  0.51100000000E-03 0.  1.
         11   -1    0    0    0    0 -0.00000000000E+00 -0.00000000000E+00 -0.45593999997E+02  0.45594000000E+02  0.51100000000E-03 0. -1.
    9900012    2    1    2    0    0 -0.20324827528E+02  0.36587443106E+01  0.38172480238E+02  0.47787271072E+02  0.20000000124E+02 0.  0.
         12    1    1    2    0    0  0.20324827528E+02 -0.36587443106E+01 -0.38172480238E+02  0.43400728928E+02  0.00000000000E+00 0. -1.
         11    1    3    3    0    0 -0.13029729893E+02  0.24505945349E+01  0.17630885443E+02  0.22059632736E+02  0.51100000000E-03 0. -1.
        -11    1    3    3    0    0 -0.32711081082E+01 -0.43333465175E+00  0.21090620634E+02  0.21347182628E+02  0.51100000000E-03 0.  1.
         12    1    3    3    0    0 -0.40239895270E+01  0.16414844275E+01 -0.54902583857E+00  0.43804557081E+01  0.00000000000E+00 0. -1.
</event>
<event>
 7    1  0.1736465E-010  0.4778727E+02  0.7816164E-02  0.1312668E+00
        -11   -1    0    0    0    0  0.00000000000E+00  0.00000000000E+00  0.45593999997E+02  0.45594000000E+02  0.51100000000E-03 0. -1.
         11   -1    0    0    0    0 -0.00000000000E+00 -0.00000000000E+00 -0.45593999997E+02  0.45594000000E+02  0.51100000000E-03 0.  1.
    9900012    2    1    2    0    0 -0.40945678477E+02  0.14084732001E+02 -0.29487202559E+01  0.47787271750E+02  0.20000003215E+02 0.  0.
         12    1    1    2    0    0  0.40945678477E+02 -0.14084732001E+02  0.29487202559E+01  0.43400728250E+02  0.00000000000E+00 0. -1.
         11    1    3    3    0    0 -0.86487554913E+01  0.87166793744E+01 -0.21729017782E+01  0.12470083130E+02  0.51100000000E-03 0. -1.
        -11    1    3    3    0    0 -0.22319638801E+02  0.29628319569E+01 -0.66691517197E+01  0.23482381359E+02  0.51100000000E-03 0.  1.
         12    1    3    3    0    0 -0.99772841855E+01  0.24052206697E+01  0.58933332420E+01  0.11834807260E+02  0.00000000000E+00 0. -1.
</event>
<event>
 7    1  0.1736465E-010  0.4778727E+02  0.7816164E-02  0.1312668E+00
        -11   -1    0    0    0    0  0.00000000000E+00  0.00000000000E+00  0.45593999997E+02  0.45594000000E+02  0.51100000000E-03 0. -1.
         11   -1    0    0    0    0 -0.00000000000E+00 -0.00000000000E+00 -0.45593999997E+02  0.45594000000E+02  0.51100000000E-03 0.  1.
    9900012    2    1    2    0    0 -0.37679374074E+01  0.42318023060E+02 -0.88662621382E+01  0.47787273828E+02  0.20000012690E+02 0.  0.
         12    1    1    2    0    0  0.37679374074E+01 -0.42318023060E+02  0.88662621382E+01  0.43400726172E+02  0.00000000000E+00 0. -1.
         11    1    3    3    0    0  0.87815702917E+00  0.63202935175E+01  0.21818963206E+01  0.67437335156E+01  0.51100000000E-03 0. -1.
        -11    1    3    3    0    0 -0.70288696263E+01  0.20509088871E+02 -0.12956918185E+02  0.25256869633E+02  0.51100000000E-03 0.  1.
        -12    1    3    3    0    0  0.23827751898E+01  0.15488640671E+02  0.19087597259E+01  0.15786670679E+02  0.00000000000E+00 0.  1.
</event>
<event>
 7    1  0.1736465E-010  0.4778727E+02  0.7816164E-02  0.1312668E+00
        -11   -1    0    0    0    0  0.00000000000E+00  0.00000000000E+00  0.45593999997E+02  0.45594000000E+02  0.51100000000E-03 0.  1.
         11   -1    0    0    0    0 -0.00000000000E+00 -0.00000000000E+00 -0.45593999997E+02  0.45594000000E+02  0.51100000000E-03 0. -1.
    9900012    2    1    2    0    0 -0.39630904254E+02  0.38101035092E+01  0.17277084368E+02  0.47787272990E+02  0.20000008871E+02 0.  0.
         12    1    1    2    0    0  0.39630904254E+02 -0.38101035092E+01 -0.17277084368E+02  0.43400727010E+02  0.00000000000E+00 0. -1.
         11    1    3    3    0    0 -0.79261204006E+01  0.31011237181E+01  0.46864894665E+00  0.85240826495E+01  0.51100000000E-03 0. -1.
        -11    1    3    3    0    0 -0.27627660091E+02 -0.41309038418E+01  0.92967982166E+01  0.29441168896E+02  0.51100000000E-03 0.  1.
         12    1    3    3    0    0 -0.40771237628E+01  0.48398836329E+01  0.75116372048E+01  0.98220214444E+01  0.00000000000E+00 0. -1.
</event>
<event>
 7    1  0.1736465E-010  0.4778727E+02  0.7816164E-02  0.1312668E+00
        -11   -1    0    0    0    0  0.00000000000E+00  0.00000000000E+00  0.45593999997E+02  0.45594000000E+02  0.51100000000E-03 0.  1.
         11   -1    0    0    0    0 -0.00000000000E+00 -0.00000000000E+00 -0.45593999997E+02  0.45594000000E+02  0.51100000000E-03 0. -1.
    9900012    2    1    2    0    0 -0.12635877405E+01  0.31651221031E+02  0.29668612096E+02  0.47787274310E+02  0.20000014887E+02 0.  0.
         12    1    1    2    0    0  0.12635877405E+01 -0.31651221031E+02 -0.29668612096E+02  0.43400725690E+02  0.00000000000E+00 0. -1.
         11    1    3    3    0    0 -0.60124282699E+01  0.27956163045E+01  0.76773828340E+01  0.10144307353E+02  0.51100000000E-03 0.  1.
        -11    1    3    3    0    0  0.30023551403E+01  0.50239846010E+01  0.12131770917E+01  0.59771528821E+01  0.51100000000E-03 0. -1.
        -12    1    3    3    0    0  0.17464853892E+01  0.23831620126E+02  0.20778052170E+02  0.31665814075E+02  0.00000000000E+00 0.  1.
</event>
<event>
 7    1  0.1736465E-010  0.4778727E+02  0.7816164E-02  0.1312668E+00
        -11   -1    0    0    0    0  0.00000000000E+00  0.00000000000E+00  0.45593999997E+02  0.45594000000E+02  0.51100000000E-03 0.  1.
         11   -1    0    0    0    0 -0.00000000000E+00 -0.00000000000E+00 -0.45593999997E+02  0.45594000000E+02  0.51100000000E-03 0. -1.
    9900012    2    1    2    0    0  0.12524912833E+02  0.22074263536E+02  0.35206202993E+02  0.47787270959E+02  0.19999999609E+02 0.  0.
         12    1    1    2    0    0 -0.12524912833E+02 -0.22074263536E+02 -0.35206202993E+02  0.43400729041E+02  0.00000000000E+00 0. -1.
         11    1    3    3    0    0  0.10337341302E+02  0.10785750621E+02  0.16073156644E+02  0.21944006161E+02  0.51100000000E-03 0. -1.
        -11    1    3    3    0    0  0.72529451593E+01  0.41426046300E+01  0.11575509948E+02  0.14274411281E+02  0.51100000000E-03 0.  1.
         12    1    3    3    0    0 -0.50653736285E+01  0.71459082857E+01  0.75575364007E+01  0.11568853516E+02  0.00000000000E+00 0. -1.
</event>
<event>
 7    1  0.1736465E-010  0.4778727E+02  0.7816164E-02  0.1312668E+00
        -11   -1    0    0    0    0  0.00000000000E+00  0.00000000000E+00  0.45593999997E+02  0.45594000000E+02  0.51100000000E-03 0.  1.
         11   -1    0    0    0    0 -0.00000000000E+00 -0.00000000000E+00 -0.45593999997E+02  0.45594000000E+02  0.51100000000E-03 0. -1.
    9900012    2    1    2    0    0  0.39188466084E+01  0.43216846100E+02  0.75533155699E+00  0.47787266466E+02  0.19999979124E+02 0.  0.
         12    1    1    2    0    0 -0.39188466084E+01 -0.43216846100E+02 -0.75533155699E+00  0.43400733534E+02  0.00000000000E+00 0. -1.
         11    1    3    3    0    0 -0.21732340761E+01  0.34545377836E+01 -0.35072772955E+01  0.53812426015E+01  0.51100000000E-03 0. -1.
        -11    1    3    3    0    0  0.39454169832E+01  0.67484287502E+01  0.50616443514E+01  0.93127788318E+01  0.51100000000E-03 0.  1.
         12    1    3    3    0    0  0.21466637013E+01  0.33013879566E+02 -0.79903549889E+00  0.33093245032E+02  0.00000000000E+00 0. -1.
</event>
<event>
 7    1  0.1736465E-010  0.4778727E+02  0.7816164E-02  0.1312668E+00
        -11   -1    0    0    0    0  0.00000000000E+00  0.00000000000E+00  0.45593999997E+02  0.45594000000E+02  0.51100000000E-03 0.  1.
         11   -1    0    0    0    0 -0.00000000000E+00 -0.00000000000E+00 -0.45593999997E+02  0.45594000000E+02  0.51100000000E-03 0. -1.
    9900012    2    1    2    0    0 -0.12784823016E+02 -0.39109216801E+02  0.13807283981E+02  0.47787266950E+02  0.19999981332E+02 0.  0.
         12    1    1    2    0    0  0.12784823016E+02  0.39109216801E+02 -0.13807283981E+02  0.43400733050E+02  0.00000000000E+00 0. -1.
         11    1    3    3    0    0 -0.16404220005E+02 -0.19032009664E+02  0.83696611369E+01  0.26483335395E+02  0.51100000000E-03 0.  1.
        -11    1    3    3    0    0  0.18522635920E+00 -0.86113781699E+01  0.26884334262E+01  0.90231822178E+01  0.51100000000E-03 0. -1.
        -12    1    3    3    0    0  0.34341706301E+01 -0.11465828968E+02  0.27491894181E+01  0.12280749337E+02  0.00000000000E+00 0.  1.
</event>
<event>
 7    1  0.1736465E-010  0.4778728E+02  0.7816164E-02  0.1312668E+00
        -11   -1    0    0    0    0  0.00000000000E+00  0.00000000000E+00  0.45593999997E+02  0.45594000000E+02  0.51100000000E-03 0.  1.
         11   -1    0    0    0    0 -0.00000000000E+00 -0.00000000000E+00 -0.45593999997E+02  0.45594000000E+02  0.51100000000E-03 0. -1.
    9900012    2    1    2    0    0  0.50464756008E+01  0.37032804013E+02  0.22061882069E+02  0.47787284229E+02  0.20000060112E+02 0.  0.
         12    1    1    2    0    0 -0.50464756008E+01 -0.37032804013E+02 -0.22061882069E+02  0.43400715771E+02  0.00000000000E+00 0. -1.
         11    1    3    3    0    0 -0.30764694045E+01  0.30937842964E+01  0.53786016151E+01  0.69257144660E+01  0.51100000000E-03 0. -1.
        -11    1    3    3    0    0 -0.31070054577E+01  0.12819531248E+02  0.79291116667E+01  0.15390408585E+02  0.51100000000E-03 0.  1.
        -12    1    3    3    0    0  0.11229950463E+02  0.21119488469E+02  0.87541687875E+01  0.25471161178E+02  0.00000000000E+00 0.  1.
</event>
<event>
 7    1  0.1736465E-010  0.4778727E+02  0.7816164E-02  0.1312668E+00
        -11   -1    0    0    0    0  0.00000000000E+00  0.00000000000E+00  0.45593999997E+02  0.45594000000E+02  0.51100000000E-03 0.  1.
         11   -1    0    0    0    0 -0.00000000000E+00 -0.00000000000E+00 -0.45593999997E+02  0.45594000000E+02  0.51100000000E-03 0. -1.
    9900012    2    1    2    0    0 -0.30532028948E+02  0.28932826498E+02 -0.10691579769E+02  0.47787272831E+02  0.20000008147E+02 0.  0.
         12    1    1    2    0    0  0.30532028948E+02 -0.28932826498E+02  0.10691579769E+02  0.43400727169E+02  0.00000000000E+00 0. -1.
         11    1    3    3    0    0 -0.52869375630E+01  0.16287763305E+01  0.12806415017E+00  0.55336264617E+01  0.51100000000E-03 0. -1.
        -11    1    3    3    0    0 -0.14787072802E+02  0.24557978847E+02 -0.12568715426E+02  0.31300550391E+02  0.51100000000E-03 0.  1.
        -12    1    3    3    0    0 -0.10458018582E+02  0.27460713207E+01  0.17490715066E+01  0.10953095978E+02  0.00000000000E+00 0.  1.
</event>
<event>
 7    1  0.1736465E-010  0.4778727E+02  0.7816164E-02  0.1312668E+00
        -11   -1    0    0    0    0  0.00000000000E+00  0.00000000000E+00  0.45593999997E+02  0.45594000000E+02  0.51100000000E-03 0.  1.
         11   -1    0    0    0    0 -0.00000000000E+00 -0.00000000000E+00 -0.45593999997E+02  0.45594000000E+02  0.51100000000E-03 0. -1.
    9900012    2    1    2    0    0 -0.26143821455E+02 -0.32530401097E+02  0.11912044028E+02  0.47787272025E+02  0.20000004471E+02 0.  0.
         12    1    1    2    0    0  0.26143821455E+02  0.32530401097E+02 -0.11912044028E+02  0.43400727975E+02  0.00000000000E+00 0. -1.
         11    1    3    3    0    0 -0.16360011307E+02 -0.16512450913E+02  0.11222059340E+02  0.25811734177E+02  0.51100000000E-03 0. -1.
        -11    1    3    3    0    0 -0.11579903709E+02 -0.16287355227E+02 -0.12545537246E+00  0.19984690378E+02  0.51100000000E-03 0.  1.
         12    1    3    3    0    0  0.17960935608E+01  0.26940504293E+00  0.81544006061E+00  0.19908474699E+01  0.00000000000E+00 0. -1.
</event>
<event>
 7    1  0.1736465E-010  0.4778727E+02  0.7816164E-02  0.1312668E+00
        -11   -1    0    0    0    0  0.00000000000E+00  0.00000000000E+00  0.45593999997E+02  0.45594000000E+02  0.51100000000E-03 0. -1.
         11   -1    0    0    0    0 -0.00000000000E+00 -0.00000000000E+00 -0.45593999997E+02  0.45594000000E+02  0.51100000000E-03 0.  1.
    9900012    2    1    2    0    0  0.42348851326E+02  0.94775600388E+01  0.61140543028E+00  0.47787272247E+02  0.20000005483E+02 0.  0.
         12    1    1    2    0    0 -0.42348851326E+02 -0.94775600388E+01 -0.61140543028E+00  0.43400727753E+02  0.00000000000E+00 0. -1.
         11    1    3    3    0    0  0.16931304373E+01  0.28140691664E+01 -0.40874930835E+01  0.52434030857E+01  0.51100000000E-03 0. -1.
        -11    1    3    3    0    0  0.17179916667E+02  0.41942419443E+01  0.65677662451E+01  0.18864696019E+02  0.51100000000E-03 0.  1.
        -12    1    3    3    0    0  0.23475804221E+02  0.24692489281E+01 -0.18688677313E+01  0.23679173142E+02  0.00000000000E+00 0.  1.
</event>
<event>
 7    1  0.1736465E-010  0.4778727E+02  0.7816164E-02  0.1312668E+00
        -11   -1    0    0    0    0  0.00000000000E+00  0.00000000000E+00  0.45593999997E+02  0.45594000000E+02  0.51100000000E-03 0.  1.
         11   -1    0    0    0    0 -0.00000000000E+00 -0.00000000000E+00 -0.45593999997E+02  0.45594000000E+02  0.51100000000E-03 0. -1.
    9900012    2    1    2    0    0 -0.10105685851E+02  0.21795943733E+02  0.36144638345E+02  0.47787274997E+02  0.20000018021E+02 0.  0.
         12    1    1    2    0    0  0.10105685851E+02 -0.21795943733E+02 -0.36144638345E+02  0.43400725003E+02  0.00000000000E+00 0. -1.
         11    1    3    3    0    0 -0.87543319272E+01  0.44910707832E+01  0.23370001438E+02  0.25356754756E+02  0.51100000000E-03 0.  1.
        -11    1    3    3    0    0  0.19563699785E+01  0.48740449959E+01  0.56972380410E+01  0.77486914813E+01  0.51100000000E-03 0. -1.
        -12    1    3    3    0    0 -0.33077239019E+01  0.12430827954E+02  0.70773988661E+01  0.14681828760E+02  0.00000000000E+00 0.  1.
</event>
<event>
 7    1  0.1736465E-010  0.4778727E+02  0.7816164E-02  0.1312668E+00
        -11   -1    0    0    0    0  0.00000000000E+00  0.00000000000E+00  0.45593999997E+02  0.45594000000E+02  0.51100000000E-03 0.  1.
         11   -1    0    0    0    0 -0.00000000000E+00 -0.00000000000E+00 -0.45593999997E+02  0.45594000000E+02  0.51100000000E-03 0. -1.
    9900012    2    1    2    0    0 -0.29894598437E+02  0.31370848751E+02  0.24095973976E+01  0.47787270436E+02  0.19999997226E+02 0.  0.
         12    1    1    2    0    0  0.29894598437E+02 -0.31370848751E+02 -0.24095973976E+01  0.43400729564E+02  0.00000000000E+00 0. -1.
         11    1    3    3    0    0 -0.11146388238E+02  0.20284139288E+02  0.47058904289E+01  0.23618502967E+02  0.51100000000E-03 0. -1.
        -11    1    3    3    0    0 -0.11617783859E+02  0.11027300955E+02 -0.46168178576E+01  0.16670011264E+02  0.51100000000E-03 0.  1.
         12    1    3    3    0    0 -0.71304263400E+01  0.59408508630E-01  0.23205248262E+01  0.74987562055E+01  0.00000000000E+00 0. -1.
</event>
<event>
 7    1  0.1736465E-010  0.4778727E+02  0.7816164E-02  0.1312668E+00
        -11   -1    0    0    0    0  0.00000000000E+00  0.00000000000E+00  0.45593999997E+02  0.45594000000E+02  0.51100000000E-03 0.  1.
         11   -1    0    0    0    0 -0.00000000000E+00 -0.00000000000E+00 -0.45593999997E+02  0.45594000000E+02  0.51100000000E-03 0. -1.
    9900012    2    1    2    0    0  0.31568811535E+02  0.62323977339E+01  0.29123715531E+02  0.47787269020E+02  0.19999990769E+02 0.  0.
         12    1    1    2    0    0 -0.31568811535E+02 -0.62323977339E+01 -0.29123715531E+02  0.43400730980E+02  0.00000000000E+00 0. -1.
         11    1    3    3    0    0  0.11131673285E+02  0.13657426803E+01  0.10868678737E+02  0.15617540810E+02  0.51100000000E-03 0. -1.
        -11    1    3    3    0    0  0.16490209420E+02  0.78509976769E+01  0.19847127115E+02  0.26971719007E+02  0.51100000000E-03 0.  1.
         12    1    3    3    0    0  0.39469288300E+01 -0.29843426232E+01 -0.15920903205E+01  0.51980092026E+01  0.00000000000E+00 0. -1.
</event>
<event>
 7    1  0.1736465E-010  0.4778727E+02  0.7816164E-02  0.1312668E+00
        -11   -1    0    0    0    0  0.00000000000E+00  0.00000000000E+00  0.45593999997E+02  0.45594000000E+02  0.51100000000E-03 0. -1.
         11   -1    0    0    0    0 -0.00000000000E+00 -0.00000000000E+00 -0.45593999997E+02  0.45594000000E+02  0.51100000000E-03 0.  1.
    9900012    2    1    2    0    0 -0.84037292923E+01 -0.42571810889E+02  0.80127407091E+00  0.47787265115E+02  0.19999972966E+02 0.  0.
         12    1    1    2    0    0  0.84037292923E+01  0.42571810889E+02 -0.80127407091E+00  0.43400734885E+02  0.00000000000E+00 0. -1.
         11    1    3    3    0    0 -0.47083367276E+01 -0.10427384686E+02 -0.18111883649E+01  0.11583574133E+02  0.51100000000E-03 0. -1.
        -11    1    3    3    0    0  0.57335921219E+01 -0.18072035097E+02 -0.56888611361E+00  0.18968293619E+02  0.51100000000E-03 0.  1.
        -12    1    3    3    0    0 -0.94289846866E+01 -0.14072391107E+02  0.31813485494E+01  0.17235397363E+02  0.00000000000E+00 0.  1.
</event>
<event>
 7    1  0.1736465E-010  0.4778727E+02  0.7816164E-02  0.1312668E+00
        -11   -1    0    0    0    0  0.00000000000E+00  0.00000000000E+00  0.45593999997E+02  0.45594000000E+02  0.51100000000E-03 0.  1.
         11   -1    0    0    0    0 -0.00000000000E+00 -0.00000000000E+00 -0.45593999997E+02  0.45594000000E+02  0.51100000000E-03 0. -1.
    9900012    2    1    2    0    0  0.89911647435E+01 -0.23607206554E+02  0.35291385061E+02  0.47787272999E+02  0.20000008910E+02 0.  0.
         12    1    1    2    0    0 -0.89911647435E+01  0.23607206554E+02 -0.35291385061E+02  0.43400727001E+02  0.00000000000E+00 0. -1.
         11    1    3    3    0    0  0.39954455512E+01 -0.77893508752E+01  0.15249897624E+02  0.17583996987E+02  0.51100000000E-03 0. -1.
        -11    1    3    3    0    0  0.53061229920E+01 -0.14970633403E+02  0.22524531869E+02  0.27561374092E+02  0.51100000000E-03 0.  1.
         12    1    3    3    0    0 -0.31040379976E+00 -0.84722227520E+00 -0.24830444319E+01  0.26419019197E+01  0.00000000000E+00 0. -1.
</event>
<event>
 7    1  0.1736465E-010  0.4778727E+02  0.7816164E-02  0.1312668E+00
        -11   -1    0    0    0    0  0.00000000000E+00  0.00000000000E+00  0.45593999997E+02  0.45594000000E+02  0.51100000000E-03 0.  1.
         11   -1    0    0    0    0 -0.00000000000E+00 -0.00000000000E+00 -0.45593999997E+02  0.45594000000E+02  0.51100000000E-03 0. -1.
    9900012    2    1    2    0    0 -0.14135534226E+02  0.18748691763E+02  0.36500636805E+02  0.47787271229E+02  0.20000000842E+02 0.  0.
         12    1    1    2    0    0  0.14135534226E+02 -0.18748691763E+02 -0.36500636805E+02  0.43400728771E+02  0.00000000000E+00 0. -1.
         11    1    3    3    0    0 -0.63239931609E+01 -0.15496134552E+00  0.21843298739E+01  0.66923986564E+01  0.51100000000E-03 0. -1.
        -11    1    3    3    0    0 -0.87569367094E+01  0.89519032039E+01  0.17248342557E+02  0.21314920425E+02  0.51100000000E-03 0.  1.
        -12    1    3    3    0    0  0.94539564383E+00  0.99517499048E+01  0.17067964374E+02  0.19779952147E+02  0.00000000000E+00 0.  1.
</event>
<event>
 7    1  0.1736465E-010  0.4778727E+02  0.7816164E-02  0.1312668E+00
        -11   -1    0    0    0    0  0.00000000000E+00  0.00000000000E+00  0.45593999997E+02  0.45594000000E+02  0.51100000000E-03 0.  1.
         11   -1    0    0    0    0 -0.00000000000E+00 -0.00000000000E+00 -0.45593999997E+02  0.45594000000E+02  0.51100000000E-03 0. -1.
    9900012    2    1    2    0    0 -0.82524828338E+01 -0.16213318617E+02  0.39403657357E+02  0.47787269746E+02  0.19999994080E+02 0.  0.
         12    1    1    2    0    0  0.82524828338E+01  0.16213318617E+02 -0.39403657357E+02  0.43400730254E+02  0.00000000000E+00 0. -1.
         11    1    3    3    0    0  0.27686821708E+01 -0.36290269448E+01  0.42441949370E+01  0.62328667925E+01  0.51100000000E-03 0. -1.
        -11    1    3    3    0    0  0.82315962677E+00 -0.94308166877E+01  0.19428118346E+02  0.21611794879E+02  0.51100000000E-03 0.  1.
         12    1    3    3    0    0 -0.11844324631E+02 -0.31534749846E+01  0.15731344073E+02  0.19942608074E+02  0.00000000000E+00 0. -1.
</event>
<event>
 7    1  0.1736465E-010  0.4778727E+02  0.7816164E-02  0.1312668E+00
        -11   -1    0    0    0    0  0.00000000000E+00  0.00000000000E+00  0.45593999997E+02  0.45594000000E+02  0.51100000000E-03 0. -1.
         11   -1    0    0    0    0 -0.00000000000E+00 -0.00000000000E+00 -0.45593999997E+02  0.45594000000E+02  0.51100000000E-03 0.  1.
    9900012    2    1    2    0    0  0.39493422415E+01 -0.38241197947E+02 -0.20140431321E+02  0.47787268458E+02  0.19999988208E+02 0.  0.
         12    1    1    2    0    0 -0.39493422415E+01  0.38241197947E+02  0.20140431321E+02  0.43400731542E+02  0.00000000000E+00 0. -1.
         11    1    3    3    0    0  0.48183792200E+01 -0.83651681454E+01 -0.95720607782E+01  0.13594747670E+02  0.51100000000E-03 0. -1.
        -11    1    3    3    0    0 -0.57886313428E+01 -0.13897564929E+02 -0.86530580134E+01  0.17364503362E+02  0.51100000000E-03 0.  1.
         12    1    3    3    0    0  0.49195943643E+01 -0.15978464873E+02 -0.19153125297E+01  0.16828017426E+02  0.00000000000E+00 0. -1.
</event>
<event>
 7    1  0.1736465E-010  0.4778727E+02  0.7816164E-02  0.1312668E+00
        -11   -1    0    0    0    0  0.00000000000E+00  0.00000000000E+00  0.45593999997E+02  0.45594000000E+02  0.51100000000E-03 0.  1.
         11   -1    0    0    0    0 -0.00000000000E+00 -0.00000000000E+00 -0.45593999997E+02  0.45594000000E+02  0.51100000000E-03 0. -1.
    9900012    2    1    2    0    0  0.21036322928E+02 -0.57054902174E+01  0.37530571192E+02  0.47787271032E+02  0.19999999942E+02 0.  0.
         12    1    1    2    0    0 -0.21036322928E+02  0.57054902174E+01 -0.37530571192E+02  0.43400728968E+02  0.00000000000E+00 0. -1.
         11    1    3    3    0    0 -0.10451695600E+01  0.31529096551E+01  0.33163248870E+01  0.46937436785E+01  0.51100000000E-03 0. -1.
        -11    1    3    3    0    0  0.12827140116E+02 -0.16943222016E-01  0.12640375421E+02  0.18008745145E+02  0.51100000000E-03 0.  1.
        -12    1    3    3    0    0  0.92543523720E+01 -0.88414566505E+01  0.21573870884E+02  0.25084782209E+02  0.00000000000E+00 0.  1.
</event>
<event>
 7    1  0.1736465E-010  0.4778729E+02  0.7816164E-02  0.1312668E+00
        -11   -1    0    0    0    0  0.00000000000E+00  0.00000000000E+00  0.45593999997E+02  0.45594000000E+02  0.51100000000E-03 0.  1.
         11   -1    0    0    0    0 -0.00000000000E+00 -0.00000000000E+00 -0.45593999997E+02  0.45594000000E+02  0.51100000000E-03 0. -1.
    9900012    2    1    2    0    0 -0.16328179421E+02  0.29181175097E+02  0.27667157492E+02  0.47787285410E+02  0.20000065500E+02 0.  0.
         12    1    1    2    0    0  0.16328179421E+02 -0.29181175097E+02 -0.27667157492E+02  0.43400714590E+02  0.00000000000E+00 0. -1.
         11    1    3    3    0    0 -0.15555040804E+01 -0.62902418695E+00  0.24208025478E+01  0.29454285950E+01  0.51100000000E-03 0. -1.
        -11    1    3    3    0    0 -0.51276052092E+01  0.58293339805E+01  0.15280006133E+02  0.17139196525E+02  0.51100000000E-03 0.  1.
         12    1    3    3    0    0 -0.96450701316E+01  0.23980865303E+02  0.99663488105E+01  0.27702660290E+02  0.00000000000E+00 0. -1.
</event>
<event>
 7    1  0.1736465E-010  0.4778727E+02  0.7816164E-02  0.1312668E+00
        -11   -1    0    0    0    0  0.00000000000E+00  0.00000000000E+00  0.45593999997E+02  0.45594000000E+02  0.51100000000E-03 0. -1.
         11   -1    0    0    0    0 -0.00000000000E+00 -0.00000000000E+00 -0.45593999997E+02  0.45594000000E+02  0.51100000000E-03 0.  1.
    9900012    2    1    2    0    0 -0.26755415460E+02 -0.33996293946E+02  0.34674118458E+01  0.47787271856E+02  0.20000003702E+02 0.  0.
         12    1    1    2    0    0  0.26755415460E+02  0.33996293946E+02 -0.34674118458E+01  0.43400728144E+02  0.00000000000E+00 0. -1.
         11    1    3    3    0    0  0.87520630883E-02 -0.11377353265E+01  0.67904568285E+00  0.13249987065E+01  0.51100000000E-03 0. -1.
        -11    1    3    3    0    0 -0.17737080956E+02 -0.71767691039E+01  0.18624730932E+01  0.19224433981E+02  0.51100000000E-03 0.  1.
         12    1    3    3    0    0 -0.90270865668E+01 -0.25681789515E+02  0.92589306973E+00  0.27237839169E+02  0.00000000000E+00 0. -1.
</event>
<event>
 7    1  0.1736465E-010  0.4778726E+02  0.7816164E-02  0.1312668E+00
        -11   -1    0    0    0    0  0.00000000000E+00  0.00000000000E+00  0.45593999997E+02  0.45594000000E+02  0.51100000000E-03 0. -1.
         11   -1    0    0    0    0 -0.00000000000E+00 -0.00000000000E+00 -0.45593999997E+02  0.45594000000E+02  0.51100000000E-03 0.  1.
    9900012    2    1    2    0    0 -0.15290661793E+01  0.19603468717E+02 -0.38690956945E+02  0.47787260624E+02  0.19999952488E+02 0.  0.
         12    1    1    2    0    0  0.15290661793E+01 -0.19603468717E+02  0.38690956945E+02  0.43400739376E+02  0.00000000000E+00 0. -1.
         11    1    3    3    0    0 -0.26585319742E+01  0.42019345671E+01 -0.13048769573E+02  0.13964040747E+02  0.51100000000E-03 0. -1.
        -11    1    3    3    0    0  0.83664648827E+01  0.66066745936E+01 -0.12803522963E+02  0.16660614765E+02  0.51100000000E-03 0.  1.
        -12    1    3    3    0    0 -0.72369990878E+01  0.87948595561E+01 -0.12838664409E+02  0.17162605111E+02  0.00000000000E+00 0.  1.
</event>
<event>
 7    1  0.1736465E-010  0.4778728E+02  0.7816164E-02  0.1312668E+00
        -11   -1    0    0    0    0  0.00000000000E+00  0.00000000000E+00  0.45593999997E+02  0.45594000000E+02  0.51100000000E-03 0.  1.
         11   -1    0    0    0    0 -0.00000000000E+00 -0.00000000000E+00 -0.45593999997E+02  0.45594000000E+02  0.51100000000E-03 0. -1.
    9900012    2    1    2    0    0  0.37393876435E+02  0.12892290907E+02  0.17863633505E+02  0.47787279249E+02  0.20000037408E+02 0.  0.
         12    1    1    2    0    0 -0.37393876435E+02 -0.12892290907E+02 -0.17863633505E+02  0.43400720751E+02  0.00000000000E+00 0. -1.
         11    1    3    3    0    0  0.13465102002E+02  0.26423618305E+01  0.11484350824E+01  0.13769892933E+02  0.51100000000E-03 0. -1.
        -11    1    3    3    0    0  0.22417630114E+02  0.11238382605E+02  0.98888890784E+01  0.26956288895E+02  0.51100000000E-03 0.  1.
         12    1    3    3    0    0  0.15111443186E+01 -0.98845352861E+00  0.68263093444E+01  0.70610974215E+01  0.00000000000E+00 0. -1.
</event>
<event>
 7    1  0.1736465E-010  0.4778727E+02  0.7816164E-02  0.1312668E+00
        -11   -1    0    0    0    0  0.00000000000E+00  0.00000000000E+00  0.45593999997E+02  0.45594000000E+02  0.51100000000E-03 0.  1.
         11   -1    0    0    0    0 -0.00000000000E+00 -0.00000000000E+00 -0.45593999997E+02  0.45594000000E+02  0.51100000000E-03 0. -1.
    9900012    2    1    2    0    0  0.22900406475E+02 -0.35714007966E+02  0.91490025722E+01  0.47787271552E+02  0.20000002316E+02 0.  0.
         12    1    1    2    0    0 -0.22900406475E+02  0.35714007966E+02 -0.91490025722E+01  0.43400728448E+02  0.00000000000E+00 0. -1.
         11    1    3    3    0    0  0.46177016741E+01 -0.49958621755E+01 -0.25281013229E+01  0.72576238665E+01  0.51100000000E-03 0. -1.
        -11    1    3    3    0    0  0.17192656372E+01 -0.14519295931E+02  0.90940293096E+01  0.17218222847E+02  0.51100000000E-03 0.  1.
        -12    1    3    3    0    0  0.16563439164E+02 -0.16198849860E+02  0.25830745856E+01  0.23311424839E+02  0.00000000000E+00 0.  1.
</event>
<event>
 7    1  0.1736465E-010  0.4778727E+02  0.7816164E-02  0.1312668E+00
        -11   -1    0    0    0    0  0.00000000000E+00  0.00000000000E+00  0.45593999997E+02  0.45594000000E+02  0.51100000000E-03 0.  1.
         11   -1    0    0    0    0 -0.00000000000E+00 -0.00000000000E+00 -0.45593999997E+02  0.45594000000E+02  0.51100000000E-03 0. -1.
    9900012    2    1    2    0    0 -0.12085093603E+02  0.37544608515E+02  0.18110110396E+02  0.47787271729E+02  0.20000003119E+02 0.  0.
         12    1    1    2    0    0  0.12085093603E+02 -0.37544608515E+02 -0.18110110396E+02  0.43400728271E+02  0.00000000000E+00 0. -1.
         11    1    3    3    0    0 -0.85090368819E+01  0.35049819665E+02  0.12499687848E+02  0.38172447705E+02  0.51100000000E-03 0.  1.
        -11    1    3    3    0    0  0.14340224251E+01 -0.51933016237E+00  0.19831223399E-01  0.15252926512E+01  0.51100000000E-03 0. -1.
        -12    1    3    3    0    0 -0.50100791459E+01  0.30141190124E+01  0.55905913248E+01  0.80895313727E+01  0.00000000000E+00 0.  1.
</event>
<event>
 7    1  0.1736465E-010  0.4778728E+02  0.7816164E-02  0.1312668E+00
        -11   -1    0    0    0    0  0.00000000000E+00  0.00000000000E+00  0.45593999997E+02  0.45594000000E+02  0.51100000000E-03 0.  1.
         11   -1    0    0    0    0 -0.00000000000E+00 -0.00000000000E+00 -0.45593999997E+02  0.45594000000E+02  0.51100000000E-03 0. -1.
    9900012    2    1    2    0    0 -0.38512616602E+02 -0.18338550753E+02 -0.80061736624E+01  0.47787275375E+02  0.20000019745E+02 0.  0.
         12    1    1    2    0    0  0.38512616602E+02  0.18338550753E+02  0.80061736624E+01  0.43400724625E+02  0.00000000000E+00 0. -1.
         11    1    3    3    0    0 -0.16221409965E+02 -0.77762974435E+01 -0.54910010335E+01  0.18808403330E+02  0.51100000000E-03 0.  1.
        -11    1    3    3    0    0 -0.81439989369E+01 -0.70575508970E+01 -0.79839102111E+01  0.13411806958E+02  0.51100000000E-03 0. -1.
         12    1    3    3    0    0 -0.14147207700E+02 -0.35047024121E+01  0.54687375823E+01  0.15567065088E+02  0.00000000000E+00 0. -1.
</event>
<event>
 7    1  0.1736465E-010  0.4778728E+02  0.7816164E-02  0.1312668E+00
        -11   -1    0    0    0    0  0.00000000000E+00  0.00000000000E+00  0.45593999997E+02  0.45594000000E+02  0.51100000000E-03 0. -1.
         11   -1    0    0    0    0 -0.00000000000E+00 -0.00000000000E+00 -0.45593999997E+02  0.45594000000E+02  0.51100000000E-03 0.  1.
    9900012    2    1    2    0    0 -0.30949728288E+01 -0.30875867500E+02 -0.30343447839E+02  0.47787275611E+02  0.20000020822E+02 0.  0.
         12    1    1    2    0    0  0.30949728288E+01  0.30875867500E+02  0.30343447839E+02  0.43400724389E+02  0.00000000000E+00 0. -1.
         11    1    3    3    0    0 -0.45804155246E+01 -0.20396226213E+02 -0.13390957998E+02  0.24825470921E+02  0.51100000000E-03 0. -1.
        -11    1    3    3    0    0 -0.29990069529E+01 -0.10390661444E+02 -0.10274225083E+02  0.14917090510E+02  0.51100000000E-03 0.  1.
         12    1    3    3    0    0  0.44844496487E+01 -0.88979843137E-01 -0.66782647584E+01  0.80447141806E+01  0.00000000000E+00 0. -1.
</event>
<event>
 7    1  0.1736465E-010  0.4778727E+02  0.7816164E-02  0.1312668E+00
        -11   -1    0    0    0    0  0.00000000000E+00  0.00000000000E+00  0.45593999997E+02  0.45594000000E+02  0.51100000000E-03 0.  1.
         11   -1    0    0    0    0 -0.00000000000E+00 -0.00000000000E+00 -0.45593999997E+02  0.45594000000E+02  0.51100000000E-03 0. -1.
    9900012    2    1    2    0    0  0.15177835285E+02 -0.22376516548E+02  0.33949200520E+02  0.47787269675E+02  0.19999993756E+02 0.  0.
         12    1    1    2    0    0 -0.15177835285E+02  0.22376516548E+02 -0.33949200520E+02  0.43400730325E+02  0.00000000000E+00 0. -1.
         11    1    3    3    0    0  0.10906419429E+02 -0.15520840378E+02  0.13758744971E+02  0.23433939793E+02  0.51100000000E-03 0. -1.
        -11    1    3    3    0    0  0.17898241843E+00 -0.88950292803E+01  0.14964182327E+02  0.17409202555E+02  0.51100000000E-03 0.  1.
        -12    1    3    3    0    0  0.40924334379E+01  0.20393531096E+01  0.52262732218E+01  0.69441273273E+01  0.00000000000E+00 0.  1.
</event>
<event>
 7    1  0.1736465E-010  0.4778727E+02  0.7816164E-02  0.1312668E+00
        -11   -1    0    0    0    0  0.00000000000E+00  0.00000000000E+00  0.45593999997E+02  0.45594000000E+02  0.51100000000E-03 0.  1.
         11   -1    0    0    0    0 -0.00000000000E+00 -0.00000000000E+00 -0.45593999997E+02  0.45594000000E+02  0.51100000000E-03 0. -1.
    9900012    2    1    2    0    0 -0.19452824110E+02  0.27116564118E+02  0.27747125520E+02  0.47787269706E+02  0.19999993900E+02 0.  0.
         12    1    1    2    0    0  0.19452824110E+02 -0.27116564118E+02 -0.27747125520E+02  0.43400730294E+02  0.00000000000E+00 0. -1.
         11    1    3    3    0    0 -0.28224958384E+01  0.48528071759E+01 -0.12468342892E+01  0.57507231067E+01  0.51100000000E-03 0. -1.
        -11    1    3    3    0    0 -0.44998678734E+01  0.41114643249E+00  0.12366045272E+01  0.46847671538E+01  0.51100000000E-03 0.  1.
        -12    1    3    3    0    0 -0.12130460398E+02  0.21852610510E+02  0.27757355282E+02  0.37351779446E+02  0.00000000000E+00 0.  1.
</event>
<event>
 7    1  0.1736465E-010  0.4778729E+02  0.7816164E-02  0.1312668E+00
        -11   -1    0    0    0    0  0.00000000000E+00  0.00000000000E+00  0.45593999997E+02  0.45594000000E+02  0.51100000000E-03 0.  1.
         11   -1    0    0    0    0 -0.00000000000E+00 -0.00000000000E+00 -0.45593999997E+02  0.45594000000E+02  0.51100000000E-03 0. -1.
    9900012    2    1    2    0    0  0.21840675247E+02 -0.16421792220E+02  0.33718414227E+02  0.47787287875E+02  0.20000076739E+02 0.  0.
         12    1    1    2    0    0 -0.21840675247E+02  0.16421792220E+02 -0.33718414227E+02  0.43400712125E+02  0.00000000000E+00 0. -1.
         11    1    3    3    0    0  0.13536239839E+02 -0.64988975536E+01  0.85052064088E+01  0.17256998427E+02  0.51100000000E-03 0. -1.
        -11    1    3    3    0    0  0.10929982326E+02 -0.91546701314E+01  0.22754159776E+02  0.26851895394E+02  0.51100000000E-03 0.  1.
         12    1    3    3    0    0 -0.26255469173E+01 -0.76822453513E+00  0.24590480413E+01  0.36783940546E+01  0.00000000000E+00 0. -1.
</event>
<event>
 7    1  0.1736465E-010  0.4778727E+02  0.7816164E-02  0.1312668E+00
        -11   -1    0    0    0    0  0.00000000000E+00  0.00000000000E+00  0.45593999997E+02  0.45594000000E+02  0.51100000000E-03 0.  1.
         11   -1    0    0    0    0 -0.00000000000E+00 -0.00000000000E+00 -0.45593999997E+02  0.45594000000E+02  0.51100000000E-03 0. -1.
    9900012    2    1    2    0    0 -0.36309237302E+02  0.85432177451E+01  0.22187296213E+02  0.47787269635E+02  0.19999993576E+02 0.  0.
         12    1    1    2    0    0  0.36309237302E+02 -0.85432177451E+01 -0.22187296213E+02  0.43400730365E+02  0.00000000000E+00 0. -1.
         11    1    3    3    0    0 -0.13971303208E+02 -0.37259511784E+01  0.62041443437E+01  0.15734402843E+02  0.51100000000E-03 0. -1.
        -11    1    3    3    0    0 -0.21917391396E+02  0.13082839128E+02  0.12443655912E+02  0.28396783233E+02  0.51100000000E-03 0.  1.
        -12    1    3    3    0    0 -0.42054269793E+00 -0.81367020428E+00  0.35394959575E+01  0.36560835596E+01  0.00000000000E+00 0.  1.
</event>
<event>
 7    1  0.1736465E-010  0.4778727E+02  0.7816164E-02  0.1312668E+00
        -11   -1    0    0    0    0  0.00000000000E+00  0.00000000000E+00  0.45593999997E+02  0.45594000000E+02  0.51100000000E-03 0.  1.
         11   -1    0    0    0    0 -0.00000000000E+00 -0.00000000000E+00 -0.45593999997E+02  0.45594000000E+02  0.51100000000E-03 0. -1.
    9900012    2    1    2    0    0  0.11892087642E+02 -0.30443843792E+02  0.28554754418E+02  0.47787269900E+02  0.19999994782E+02 0.  0.
         12    1    1    2    0    0 -0.11892087642E+02  0.30443843792E+02 -0.28554754418E+02  0.43400730100E+02  0.00000000000E+00 0. -1.
         11    1    3    3    0    0 -0.15961892156E+01 -0.10056097635E+02  0.90336069854E+01  0.13611721974E+02  0.51100000000E-03 0. -1.
        -11    1    3    3    0    0  0.15600336637E+02 -0.19362566264E+02  0.14888139927E+02  0.28981652580E+02  0.51100000000E-03 0.  1.
         12    1    3    3    0    0 -0.21120597788E+01 -0.10251798927E+01  0.46330075062E+01  0.51938953469E+01  0.00000000000E+00 0. -1.
</event>
<event>
 7    1  0.1736465E-010  0.4778727E+02  0.7816164E-02  0.1312668E+00
        -11   -1    0    0    0    0  0.00000000000E+00  0.00000000000E+00  0.45593999997E+02  0.45594000000E+02  0.51100000000E-03 0.  1.
         11   -1    0    0    0    0 -0.00000000000E+00 -0.00000000000E+00 -0.45593999997E+02  0.45594000000E+02  0.51100000000E-03 0. -1.
    9900012    2    1    2    0    0  0.18033949894E+01  0.41812379031E+02  0.11493295094E+02  0.47787272980E+02  0.20000008826E+02 0.  0.
         12    1    1    2    0    0 -0.18033949894E+01 -0.41812379031E+02 -0.11493295094E+02  0.43400727020E+02  0.00000000000E+00 0. -1.
         11    1    3    3    0    0 -0.73899607832E+01  0.30272233302E+02  0.52852372249E+01  0.31606223474E+02  0.51100000000E-03 0. -1.
        -11    1    3    3    0    0  0.11736947561E+01  0.15192895529E+01 -0.87656652063E-02  0.19198638556E+01  0.51100000000E-03 0.  1.
        -12    1    3    3    0    0  0.80196610165E+01  0.10020856176E+02  0.62168235341E+01  0.14261185651E+02  0.00000000000E+00 0.  1.
</event>
<event>
 7    1  0.1736465E-010  0.4778727E+02  0.7816164E-02  0.1312668E+00
        -11   -1    0    0    0    0  0.00000000000E+00  0.00000000000E+00  0.45593999997E+02  0.45594000000E+02  0.51100000000E-03 0.  1.
         11   -1    0    0    0    0 -0.00000000000E+00 -0.00000000000E+00 -0.45593999997E+02  0.45594000000E+02  0.51100000000E-03 0. -1.
    9900012    2    1    2    0    0 -0.30675998270E+02 -0.27544591664E+02  0.13561057734E+02  0.47787266289E+02  0.19999978318E+02 0.  0.
         12    1    1    2    0    0  0.30675998270E+02  0.27544591664E+02 -0.13561057734E+02  0.43400733711E+02  0.00000000000E+00 0. -1.
         11    1    3    3    0    0  0.57948240662E+00 -0.49207688754E+01  0.33886688398E+01  0.60027362887E+01  0.51100000000E-03 0. -1.
        -11    1    3    3    0    0 -0.22433513911E+02 -0.18879119206E+02  0.12576444490E+02  0.31903771637E+02  0.51100000000E-03 0.  1.
         12    1    3    3    0    0 -0.88219667651E+01 -0.37447035826E+01 -0.24040555958E+01  0.98807583633E+01  0.00000000000E+00 0. -1.
</event>
<event>
 7    1  0.1736465E-010  0.4778727E+02  0.7816164E-02  0.1312668E+00
        -11   -1    0    0    0    0  0.00000000000E+00  0.00000000000E+00  0.45593999997E+02  0.45594000000E+02  0.51100000000E-03 0.  1.
         11   -1    0    0    0    0 -0.00000000000E+00 -0.00000000000E+00 -0.45593999997E+02  0.45594000000E+02  0.51100000000E-03 0. -1.
    9900012    2    1    2    0    0  0.35826112345E+02  0.23324786024E+02  0.74877968504E+01  0.47787273388E+02  0.20000010685E+02 0.  0.
         12    1    1    2    0    0 -0.35826112345E+02 -0.23324786024E+02 -0.74877968504E+01  0.43400726612E+02  0.00000000000E+00 0. -1.
         11    1    3    3    0    0  0.13145895781E+01  0.28303087627E+01  0.16522884371E+01  0.35311259948E+01  0.51100000000E-03 0. -1.
        -11    1    3    3    0    0  0.20200226492E+02  0.20782902194E+02  0.72406249617E+01  0.29873145532E+02  0.51100000000E-03 0.  1.
         12    1    3    3    0    0  0.14311296275E+02 -0.28842493264E+00 -0.14051165485E+01  0.14383001861E+02  0.00000000000E+00 0. -1.
</event>
<event>
 7    1  0.1736465E-010  0.4778727E+02  0.7816164E-02  0.1312668E+00
        -11   -1    0    0    0    0  0.00000000000E+00  0.00000000000E+00  0.45593999997E+02  0.45594000000E+02  0.51100000000E-03 0.  1.
         11   -1    0    0    0    0 -0.00000000000E+00 -0.00000000000E+00 -0.45593999997E+02  0.45594000000E+02  0.51100000000E-03 0. -1.
    9900012    2    1    2    0    0  0.20445054126E+02 -0.74913441315E+01  0.37543344229E+02  0.47787272229E+02  0.20000005402E+02 0.  0.
         12    1    1    2    0    0 -0.20445054126E+02  0.74913441315E+01 -0.37543344229E+02  0.43400727771E+02  0.00000000000E+00 0. -1.
         11    1    3    3    0    0  0.12006618247E+01  0.83446282009E+00  0.64831107432E+01  0.66459493065E+01  0.51100000000E-03 0. -1.
        -11    1    3    3    0    0  0.11870168681E+02 -0.54684610637E+01  0.51437231704E+01  0.14045029699E+02  0.51100000000E-03 0.  1.
        -12    1    3    3    0    0  0.73742236198E+01 -0.28573458879E+01  0.25916510316E+02  0.27096293224E+02  0.00000000000E+00 0.  1.
</event>
<event>
 7    1  0.1736465E-010  0.4778727E+02  0.7816164E-02  0.1312668E+00
        -11   -1    0    0    0    0  0.00000000000E+00  0.00000000000E+00  0.45593999997E+02  0.45594000000E+02  0.51100000000E-03 0. -1.
         11   -1    0    0    0    0 -0.00000000000E+00 -0.00000000000E+00 -0.45593999997E+02  0.45594000000E+02  0.51100000000E-03 0.  1.
    9900012    2    1    2    0    0  0.12133493413E+02 -0.41623358006E+02 -0.19741710066E+01  0.47787274830E+02  0.20000017260E+02 0.  0.
         12    1    1    2    0    0 -0.12133493413E+02  0.41623358006E+02  0.19741710066E+01  0.43400725170E+02  0.00000000000E+00 0. -1.
         11    1    3    3    0    0  0.26558595673E+01 -0.34677496287E+01 -0.41355826763E+01  0.60151410509E+01  0.51100000000E-03 0. -1.
        -11    1    3    3    0    0  0.10539936566E+02 -0.22053833919E+02  0.60348087961E+01  0.25176988915E+02  0.51100000000E-03 0.  1.
         12    1    3    3    0    0 -0.10623027197E+01 -0.16101774458E+02 -0.38733971264E+01  0.16595144864E+02  0.00000000000E+00 0. -1.
</event>
<event>
 7    1  0.1736465E-010  0.4778727E+02  0.7816164E-02  0.1312668E+00
        -11   -1    0    0    0    0  0.00000000000E+00  0.00000000000E+00  0.45593999997E+02  0.45594000000E+02  0.51100000000E-03 0.  1.
         11   -1    0    0    0    0 -0.00000000000E+00 -0.00000000000E+00 -0.45593999997E+02  0.45594000000E+02  0.51100000000E-03 0. -1.
    9900012    2    1    2    0    0 -0.39094191851E+02 -0.68802332100E+01  0.17547922332E+02  0.47787273927E+02  0.20000013141E+02 0.  0.
         12    1    1    2    0    0  0.39094191851E+02  0.68802332100E+01 -0.17547922332E+02  0.43400726073E+02  0.00000000000E+00 0. -1.
         11    1    3    3    0    0 -0.26020835115E+02  0.44497144046E+01  0.85028622297E+01  0.27734139336E+02  0.51100000000E-03 0. -1.
        -11    1    3    3    0    0 -0.89331309742E+01 -0.56266672461E+01  0.36254130835E+01  0.11162608727E+02  0.51100000000E-03 0.  1.
        -12    1    3    3    0    0 -0.41402257620E+01 -0.57032803686E+01  0.54196470187E+01  0.88905258635E+01  0.00000000000E+00 0.  1.
</event>
<event>
 7    1  0.1736465E-010  0.4778727E+02  0.7816164E-02  0.1312668E+00
        -11   -1    0    0    0    0  0.00000000000E+00  0.00000000000E+00  0.45593999997E+02  0.45594000000E+02  0.51100000000E-03 0. -1.
         11   -1    0    0    0    0 -0.00000000000E+00 -0.00000000000E+00 -0.45593999997E+02  0.45594000000E+02  0.51100000000E-03 0.  1.
    9900012    2    1    2    0    0 -0.34803816422E+02  0.17038306076E+02 -0.19545172835E+02  0.47787270829E+02  0.19999999016E+02 0.  0.
         12    1    1    2    0    0  0.34803816422E+02 -0.17038306076E+02  0.19545172835E+02  0.43400729171E+02  0.00000000000E+00 0. -1.
         11    1    3    3    0    0 -0.13593366681E+02  0.39251248948E+01 -0.33479538465E+01  0.14539429782E+02  0.51100000000E-03 0. -1.
        -11    1    3    3    0    0 -0.18322641846E+02  0.14372362729E+02 -0.18164556029E+02  0.29533626777E+02  0.51100000000E-03 0.  1.
        -12    1    3    3    0    0 -0.28878078948E+01 -0.12591815484E+01  0.19673370402E+01  0.37142142693E+01  0.00000000000E+00 0.  1.
</event>
<event>
 7    1  0.1736465E-010  0.4778727E+02  0.7816164E-02  0.1312668E+00
        -11   -1    0    0    0    0  0.00000000000E+00  0.00000000000E+00  0.45593999997E+02  0.45594000000E+02  0.51100000000E-03 0. -1.
         11   -1    0    0    0    0 -0.00000000000E+00 -0.00000000000E+00 -0.45593999997E+02  0.45594000000E+02  0.51100000000E-03 0.  1.
    9900012    2    1    2    0    0  0.25356776153E+02  0.32392446458E+02 -0.13834251363E+02  0.47787271951E+02  0.20000004133E+02 0.  0.
         12    1    1    2    0    0 -0.25356776153E+02 -0.32392446458E+02  0.13834251363E+02  0.43400728049E+02  0.00000000000E+00 0. -1.
         11    1    3    3    0    0  0.18033629849E+02  0.28444997480E+02 -0.50914855582E+01  0.34062485414E+02  0.51100000000E-03 0. -1.
        -11    1    3    3    0    0  0.70994356820E+01  0.55033178594E+01 -0.70873372574E+01  0.11441977282E+02  0.51100000000E-03 0.  1.
         12    1    3    3    0    0  0.22371062276E+00 -0.15558688813E+01 -0.16554285471E+01  0.22828092547E+01  0.00000000000E+00 0. -1.
</event>
<event>
 7    1  0.1736465E-010  0.4778727E+02  0.7816164E-02  0.1312668E+00
        -11   -1    0    0    0    0  0.00000000000E+00  0.00000000000E+00  0.45593999997E+02  0.45594000000E+02  0.51100000000E-03 0.  1.
         11   -1    0    0    0    0 -0.00000000000E+00 -0.00000000000E+00 -0.45593999997E+02  0.45594000000E+02  0.51100000000E-03 0. -1.
    9900012    2    1    2    0    0  0.75472853776E+01 -0.21268153337E+02  0.37071922117E+02  0.47787271061E+02  0.20000000077E+02 0.  0.
         12    1    1    2    0    0 -0.75472853776E+01  0.21268153337E+02 -0.37071922117E+02  0.43400728939E+02  0.00000000000E+00 0. -1.
         11    1    3    3    0    0  0.90804335830E+01 -0.61465151346E+01  0.13268601279E+02  0.17213067784E+02  0.51100000000E-03 0. -1.
        -11    1    3    3    0    0  0.54883315681E+00 -0.16550400585E+02  0.21641240486E+02  0.27249959035E+02  0.51100000000E-03 0.  1.
        -12    1    3    3    0    0 -0.20819813621E+01  0.14287623829E+01  0.21620803521E+01  0.33242442432E+01  0.00000000000E+00 0.  1.
</event>
<event>
 7    1  0.1736465E-010  0.4778727E+02  0.7816164E-02  0.1312668E+00
        -11   -1    0    0    0    0  0.00000000000E+00  0.00000000000E+00  0.45593999997E+02  0.45594000000E+02  0.51100000000E-03 0. -1.
         11   -1    0    0    0    0 -0.00000000000E+00 -0.00000000000E+00 -0.45593999997E+02  0.45594000000E+02  0.51100000000E-03 0.  1.
    9900012    2    1    2    0    0 -0.10946468893E+02 -0.67178559980E+01 -0.41456827338E+02  0.47787270705E+02  0.19999998452E+02 0.  0.
         12    1    1    2    0    0  0.10946468893E+02  0.67178559980E+01  0.41456827338E+02  0.43400729295E+02  0.00000000000E+00 0. -1.
         11    1    3    3    0    0  0.26944744377E+01  0.92448949633E+00 -0.73232222226E+01  0.78577641418E+01  0.51100000000E-03 0. -1.
        -11    1    3    3    0    0 -0.69339901860E+01 -0.74343754371E+01 -0.30804923319E+02  0.32439073029E+02  0.51100000000E-03 0.  1.
        -12    1    3    3    0    0 -0.67069531447E+01 -0.20797005730E+00 -0.33286817961E+01  0.74904335342E+01  0.00000000000E+00 0.  1.
</event>
<event>
 7    1  0.1736465E-010  0.4778727E+02  0.7816164E-02  0.1312668E+00
        -11   -1    0    0    0    0  0.00000000000E+00  0.00000000000E+00  0.45593999997E+02  0.45594000000E+02  0.51100000000E-03 0. -1.
         11   -1    0    0    0    0 -0.00000000000E+00 -0.00000000000E+00 -0.45593999997E+02  0.45594000000E+02  0.51100000000E-03 0.  1.
    9900012    2    1    2    0    0  0.37357154251E+02  0.22090286716E+02 -0.29194442432E+00  0.47787274517E+02  0.20000015832E+02 0.  0.
         12    1    1    2    0    0 -0.37357154251E+02 -0.22090286716E+02  0.29194442432E+00  0.43400725483E+02  0.00000000000E+00 0. -1.
         11    1    3    3    0    0  0.12230258517E+02  0.61888751799E+01 -0.52077205162E+01  0.14662938063E+02  0.51100000000E-03 0.  1.
        -11    1    3    3    0    0  0.15825051423E+01 -0.40694810812E+00 -0.29943707607E+01  0.34111853954E+01  0.51100000000E-03 0. -1.
         12    1    3    3    0    0  0.23544390591E+02  0.16308359644E+02  0.79101468526E+01  0.29713151059E+02  0.00000000000E+00 0. -1.
</event>
<event>
 7    1  0.1736465E-010  0.4778727E+02  0.7816164E-02  0.1312668E+00
        -11   -1    0    0    0    0  0.00000000000E+00  0.00000000000E+00  0.45593999997E+02  0.45594000000E+02  0.51100000000E-03 0. -1.
         11   -1    0    0    0    0 -0.00000000000E+00 -0.00000000000E+00 -0.45593999997E+02  0.45594000000E+02  0.51100000000E-03 0.  1.
    9900012    2    1    2    0    0  0.15570784801E+02  0.27596737007E+02 -0.29657959504E+02  0.47787265045E+02  0.19999972644E+02 0.  0.
         12    1    1    2    0    0 -0.15570784801E+02 -0.27596737007E+02  0.29657959504E+02  0.43400734955E+02  0.00000000000E+00 0. -1.
         11    1    3    3    0    0  0.55077640884E+01  0.89423903947E-01 -0.74111736213E+01  0.92341191563E+01  0.51100000000E-03 0. -1.
        -11    1    3    3    0    0 -0.67206894820E+00  0.13271398279E+02 -0.66274171206E+01  0.14849388772E+02  0.51100000000E-03 0.  1.
         12    1    3    3    0    0  0.10735089661E+02  0.14235914824E+02 -0.15619368762E+02  0.23703757116E+02  0.00000000000E+00 0. -1.
</event>
<event>
 7    1  0.1871935E-010  0.4778727E+02  0.7816164E-02  0.1312668E+00
        -11   -1    0    0    0    0  0.00000000000E+00  0.00000000000E+00  0.45593999997E+02  0.45594000000E+02  0.51100000000E-03 0. -1.
         11   -1    0    0    0    0 -0.00000000000E+00 -0.00000000000E+00 -0.45593999997E+02  0.45594000000E+02  0.51100000000E-03 0.  1.
    9900012    2    1    2    0    0 -0.11145735571E+02  0.29698045065E+02 -0.29621310948E+02  0.47787270002E+02  0.19999995248E+02 0.  0.
         12    1    1    2    0    0  0.11145735571E+02 -0.29698045065E+02  0.29621310948E+02  0.43400729998E+02  0.00000000000E+00 0. -1.
         11    1    3    3    0    0 -0.54146159574E+01  0.18173044453E+02 -0.91150644969E+01  0.21039534494E+02  0.51100000000E-03 0. -1.
        -11    1    3    3    0    0 -0.44027183759E+01  0.12749436817E+02 -0.20922822011E+02  0.24893705015E+02  0.51100000000E-03 0.  1.
         12    1    3    3    0    0 -0.13284012381E+01 -0.12244362056E+01  0.41657556009E+00  0.18540304928E+01  0.00000000000E+00 0. -1.
</event>
<event>
 7    1  0.1736465E-010  0.4778727E+02  0.7816164E-02  0.1312668E+00
        -11   -1    0    0    0    0  0.00000000000E+00  0.00000000000E+00  0.45593999997E+02  0.45594000000E+02  0.51100000000E-03 0. -1.
         11   -1    0    0    0    0 -0.00000000000E+00 -0.00000000000E+00 -0.45593999997E+02  0.45594000000E+02  0.51100000000E-03 0.  1.
    9900012    2    1    2    0    0 -0.36196758964E+02 -0.23360929322E+02 -0.52616467212E+01  0.47787270692E+02  0.19999998392E+02 0.  0.
         12    1    1    2    0    0  0.36196758964E+02  0.23360929322E+02  0.52616467212E+01  0.43400729308E+02  0.00000000000E+00 0. -1.
         11    1    3    3    0    0 -0.20508073223E+01 -0.88240228881E+01  0.17932446369E+01  0.92349833347E+01  0.51100000000E-03 0. -1.
        -11    1    3    3    0    0 -0.69021975703E+01 -0.35534725021E+01  0.16060973608E+01  0.79276129520E+01  0.51100000000E-03 0.  1.
        -12    1    3    3    0    0 -0.27243754071E+02 -0.10983433932E+02 -0.86609887189E+01  0.30624674405E+02  0.00000000000E+00 0.  1.
</event>
<event>
 7    1  0.1736465E-010  0.4778727E+02  0.7816164E-02  0.1312668E+00
        -11   -1    0    0    0    0  0.00000000000E+00  0.00000000000E+00  0.45593999997E+02  0.45594000000E+02  0.51100000000E-03 0.  1.
         11   -1    0    0    0    0 -0.00000000000E+00 -0.00000000000E+00 -0.45593999997E+02  0.45594000000E+02  0.51100000000E-03 0. -1.
    9900012    2    1    2    0    0 -0.15323973611E+02  0.25947636103E+02  0.31233304067E+02  0.47787271094E+02  0.20000000228E+02 0.  0.
         12    1    1    2    0    0  0.15323973611E+02 -0.25947636103E+02 -0.31233304067E+02  0.43400728906E+02  0.00000000000E+00 0. -1.
         11    1    3    3    0    0  0.52249768086E+00  0.33114026310E+01 -0.14908138514E+01  0.36689122927E+01  0.51100000000E-03 0. -1.
        -11    1    3    3    0    0 -0.55401879100E+01  0.37782637239E+01  0.14366560692E+02  0.15854558500E+02  0.51100000000E-03 0.  1.
        -12    1    3    3    0    0 -0.10306283382E+02  0.18857969749E+02  0.18357557226E+02  0.28263800301E+02  0.00000000000E+00 0.  1.
</event>
<event>
 7    1  0.1736465E-010  0.4778727E+02  0.7816164E-02  0.1312668E+00
        -11   -1    0    0    0    0  0.00000000000E+00  0.00000000000E+00  0.45593999997E+02  0.45594000000E+02  0.51100000000E-03 0.  1.
         11   -1    0    0    0    0 -0.00000000000E+00 -0.00000000000E+00 -0.45593999997E+02  0.45594000000E+02  0.51100000000E-03 0. -1.
    9900012    2    1    2    0    0  0.17010275429E+02  0.12896812806E+02  0.37788173877E+02  0.47787270332E+02  0.19999996752E+02 0.  0.
         12    1    1    2    0    0 -0.17010275429E+02 -0.12896812806E+02 -0.37788173877E+02  0.43400729668E+02  0.00000000000E+00 0. -1.
         11    1    3    3    0    0  0.66097123841E+01  0.15932704257E+01  0.67659019475E+01  0.95918839585E+01  0.51100000000E-03 0.  1.
        -11    1    3    3    0    0  0.22167606710E+01  0.13426577865E+02  0.16462582322E+02  0.21358924083E+02  0.51100000000E-03 0. -1.
         12    1    3    3    0    0  0.81838023743E+01 -0.21230354843E+01  0.14559689608E+02  0.16836462290E+02  0.00000000000E+00 0. -1.
</event>
<event>
 7    1  0.1736465E-010  0.4778727E+02  0.7816164E-02  0.1312668E+00
        -11   -1    0    0    0    0  0.00000000000E+00  0.00000000000E+00  0.45593999997E+02  0.45594000000E+02  0.51100000000E-03 0.  1.
         11   -1    0    0    0    0 -0.00000000000E+00 -0.00000000000E+00 -0.45593999997E+02  0.45594000000E+02  0.51100000000E-03 0. -1.
    9900012    2    1    2    0    0  0.14980844044E+02 -0.30490197538E+01  0.40618972821E+02  0.47787272325E+02  0.20000005837E+02 0.  0.
         12    1    1    2    0    0 -0.14980844044E+02  0.30490197538E+01 -0.40618972821E+02  0.43400727675E+02  0.00000000000E+00 0. -1.
         11    1    3    3    0    0  0.50223641641E+01 -0.81863626103E+01  0.91743011586E+01  0.13281885280E+02  0.51100000000E-03 0. -1.
        -11    1    3    3    0    0 -0.19660377236E+00  0.14577450141E+01  0.13359856884E+02  0.13440589637E+02  0.51100000000E-03 0.  1.
        -12    1    3    3    0    0  0.10155083652E+02  0.36795978424E+01  0.18084814778E+02  0.21064797408E+02  0.00000000000E+00 0.  1.
</event>
<event>
 7    1  0.1736465E-010  0.4778726E+02  0.7816164E-02  0.1312668E+00
        -11   -1    0    0    0    0  0.00000000000E+00  0.00000000000E+00  0.45593999997E+02  0.45594000000E+02  0.51100000000E-03 0. -1.
         11   -1    0    0    0    0 -0.00000000000E+00 -0.00000000000E+00 -0.45593999997E+02  0.45594000000E+02  0.51100000000E-03 0.  1.
    9900012    2    1    2    0    0 -0.17910798312E+02  0.14977339073E+02 -0.36585609999E+02  0.47787259904E+02  0.19999949207E+02 0.  0.
         12    1    1    2    0    0  0.17910798312E+02 -0.14977339073E+02  0.36585609999E+02  0.43400740096E+02  0.00000000000E+00 0. -1.
         11    1    3    3    0    0 -0.18428244295E+01  0.12191749673E+02 -0.19502107494E+02  0.23073078662E+02  0.51100000000E-03 0. -1.
        -11    1    3    3    0    0 -0.83343510326E+01  0.23936132293E+01 -0.13811061294E+02  0.16307550575E+02  0.51100000000E-03 0.  1.
         12    1    3    3    0    0 -0.77336228499E+01  0.39197617118E+00 -0.32724412106E+01  0.84066306675E+01  0.00000000000E+00 0. -1.
</event>
<event>
 7    1  0.1736465E-010  0.4778727E+02  0.7816164E-02  0.1312668E+00
        -11   -1    0    0    0    0  0.00000000000E+00  0.00000000000E+00  0.45593999997E+02  0.45594000000E+02  0.51100000000E-03 0. -1.
         11   -1    0    0    0    0 -0.00000000000E+00 -0.00000000000E+00 -0.45593999997E+02  0.45594000000E+02  0.51100000000E-03 0.  1.
    9900012    2    1    2    0    0  0.16024323189E+02  0.39590530022E+02  0.77093705120E+01  0.47787269651E+02  0.19999993648E+02 0.  0.
         12    1    1    2    0    0 -0.16024323189E+02 -0.39590530022E+02 -0.77093705120E+01  0.43400730349E+02  0.00000000000E+00 0. -1.
         11    1    3    3    0    0  0.77794274175E+01  0.13592197640E+02  0.64342600495E+00  0.15674224859E+02  0.51100000000E-03 0. -1.
        -11    1    3    3    0    0  0.10536582830E+02  0.22965405048E+02  0.10138365271E+02  0.27225279748E+02  0.51100000000E-03 0.  1.
         12    1    3    3    0    0 -0.22916870577E+01  0.30329273341E+01 -0.30724207634E+01  0.48877650447E+01  0.00000000000E+00 0. -1.
</event>
<event>
 7    1  0.1736465E-010  0.4778727E+02  0.7816164E-02  0.1312668E+00
        -11   -1    0    0    0    0  0.00000000000E+00  0.00000000000E+00  0.45593999997E+02  0.45594000000E+02  0.51100000000E-03 0. -1.
         11   -1    0    0    0    0 -0.00000000000E+00 -0.00000000000E+00 -0.45593999997E+02  0.45594000000E+02  0.51100000000E-03 0.  1.
    9900012    2    1    2    0    0  0.52519878291E+00 -0.28916122750E+02 -0.32360551448E+02  0.47787270989E+02  0.19999999749E+02 0.  0.
         12    1    1    2    0    0 -0.52519878291E+00  0.28916122750E+02  0.32360551448E+02  0.43400729011E+02  0.00000000000E+00 0. -1.
         11    1    3    3    0    0  0.51428666480E+01 -0.20594508213E+01 -0.11465866103E+02  0.12734068509E+02  0.51100000000E-03 0. -1.
        -11    1    3    3    0    0 -0.54568549346E+01 -0.11131238476E+02 -0.92856072078E+01  0.15488842347E+02  0.51100000000E-03 0.  1.
        -12    1    3    3    0    0  0.83918706949E+00 -0.15725433452E+02 -0.11609078137E+02  0.19564360133E+02  0.00000000000E+00 0.  1.
</event>
<event>
 7    1  0.1736465E-010  0.4778727E+02  0.7816164E-02  0.1312668E+00
        -11   -1    0    0    0    0  0.00000000000E+00  0.00000000000E+00  0.45593999997E+02  0.45594000000E+02  0.51100000000E-03 0. -1.
         11   -1    0    0    0    0 -0.00000000000E+00 -0.00000000000E+00 -0.45593999997E+02  0.45594000000E+02  0.51100000000E-03 0.  1.
    9900012    2    1    2    0    0 -0.81359952390E+01 -0.22475847693E+02 -0.36225198575E+02  0.47787272358E+02  0.20000005991E+02 0.  0.
         12    1    1    2    0    0  0.81359952390E+01  0.22475847693E+02  0.36225198575E+02  0.43400727642E+02  0.00000000000E+00 0. -1.
         11    1    3    3    0    0 -0.22526063068E+01 -0.32815000649E+00 -0.49771260654E+01  0.54729975089E+01  0.51100000000E-03 0.  1.
        -11    1    3    3    0    0  0.54906569403E+01 -0.91648541342E+01 -0.79404509115E+01  0.13311372051E+02  0.51100000000E-03 0. -1.
        -12    1    3    3    0    0 -0.11374045873E+02 -0.12982843552E+02 -0.23307621598E+02  0.29002902799E+02  0.00000000000E+00 0.  1.
</event>
<event>
 7    1  0.1736465E-010  0.4778727E+02  0.7816164E-02  0.1312668E+00
        -11   -1    0    0    0    0  0.00000000000E+00  0.00000000000E+00  0.45593999997E+02  0.45594000000E+02  0.51100000000E-03 0.  1.
         11   -1    0    0    0    0 -0.00000000000E+00 -0.00000000000E+00 -0.45593999997E+02  0.45594000000E+02  0.51100000000E-03 0. -1.
    9900012    2    1    2    0    0 -0.21214117765E+02  0.34804142948E+02  0.14908257918E+02  0.47787270593E+02  0.19999997943E+02 0.  0.
         12    1    1    2    0    0  0.21214117765E+02 -0.34804142948E+02 -0.14908257918E+02  0.43400729407E+02  0.00000000000E+00 0. -1.
         11    1    3    3    0    0 -0.14729400401E+02  0.10571715533E+02  0.29615240549E+01  0.18370820082E+02  0.51100000000E-03 0. -1.
        -11    1    3    3    0    0 -0.55092832994E+01  0.14245326257E+02  0.11932028010E+02  0.19381816616E+02  0.51100000000E-03 0.  1.
        -12    1    3    3    0    0 -0.97543406469E+00  0.99871011582E+01  0.14705852640E-01  0.10034633896E+02  0.00000000000E+00 0.  1.
</event>
<event>
 7    1  0.1736465E-010  0.4778727E+02  0.7816164E-02  0.1312668E+00
        -11   -1    0    0    0    0  0.00000000000E+00  0.00000000000E+00  0.45593999997E+02  0.45594000000E+02  0.51100000000E-03 0.  1.
         11   -1    0    0    0    0 -0.00000000000E+00 -0.00000000000E+00 -0.45593999997E+02  0.45594000000E+02  0.51100000000E-03 0. -1.
    9900012    2    1    2    0    0  0.39548838346E+02  0.85817365585E+01  0.15680137604E+02  0.47787268069E+02  0.19999986435E+02 0.  0.
         12    1    1    2    0    0 -0.39548838346E+02 -0.85817365585E+01 -0.15680137604E+02  0.43400731931E+02  0.00000000000E+00 0. -1.
         11    1    3    3    0    0  0.48175063404E+01 -0.20183620774E+01  0.73664348059E+01  0.90303108931E+01  0.51100000000E-03 0.  1.
        -11    1    3    3    0    0  0.44904974586E+01  0.45742425398E+01 -0.11279286407E+01  0.65084933370E+01  0.51100000000E-03 0. -1.
         12    1    3    3    0    0  0.30240834547E+02  0.60258560961E+01  0.94416314386E+01  0.32248463839E+02  0.00000000000E+00 0. -1.
</event>
<event>
 7    1  0.1736465E-010  0.4778727E+02  0.7816164E-02  0.1312668E+00
        -11   -1    0    0    0    0  0.00000000000E+00  0.00000000000E+00  0.45593999997E+02  0.45594000000E+02  0.51100000000E-03 0. -1.
         11   -1    0    0    0    0 -0.00000000000E+00 -0.00000000000E+00 -0.45593999997E+02  0.45594000000E+02  0.51100000000E-03 0.  1.
    9900012    2    1    2    0    0  0.89130072448E+01 -0.11362758582E+02 -0.40927610564E+02  0.47787270891E+02  0.19999999299E+02 0.  0.
         12    1    1    2    0    0 -0.89130072448E+01  0.11362758582E+02  0.40927610564E+02  0.43400729109E+02  0.00000000000E+00 0. -1.
         11    1    3    3    0    0  0.26060626232E+01 -0.81116589901E+01 -0.24392232989E+02  0.25837407077E+02  0.51100000000E-03 0. -1.
        -11    1    3    3    0    0  0.54251994157E+00 -0.60259594379E+01 -0.13651883955E+02  0.14932529954E+02  0.51100000000E-03 0.  1.
         12    1    3    3    0    0  0.57644246800E+01  0.27748598457E+01 -0.28834936193E+01  0.70173338604E+01  0.00000000000E+00 0. -1.
</event>
<event>
 7    1  0.1736465E-010  0.4778727E+02  0.7816164E-02  0.1312668E+00
        -11   -1    0    0    0    0  0.00000000000E+00  0.00000000000E+00  0.45593999997E+02  0.45594000000E+02  0.51100000000E-03 0.  1.
         11   -1    0    0    0    0 -0.00000000000E+00 -0.00000000000E+00 -0.45593999997E+02  0.45594000000E+02  0.51100000000E-03 0. -1.
    9900012    2    1    2    0    0 -0.17471277563E+02  0.19387030831E+02  0.34677379400E+02  0.47787272515E+02  0.20000006705E+02 0.  0.
         12    1    1    2    0    0  0.17471277563E+02 -0.19387030831E+02 -0.34677379400E+02  0.43400727485E+02  0.00000000000E+00 0. -1.
         11    1    3    3    0    0 -0.85119238091E+01  0.83769375338E+01  0.14817374225E+02  0.19031040659E+02  0.51100000000E-03 0. -1.
        -11    1    3    3    0    0 -0.13138248138E+02  0.90519075232E+01  0.17061611096E+02  0.23359134560E+02  0.51100000000E-03 0.  1.
         12    1    3    3    0    0  0.41788943840E+01  0.19581857739E+01  0.27983940799E+01  0.53970972962E+01  0.00000000000E+00 0. -1.
</event>
<event>
 7    1  0.1736465E-010  0.4778727E+02  0.7816164E-02  0.1312668E+00
        -11   -1    0    0    0    0  0.00000000000E+00  0.00000000000E+00  0.45593999997E+02  0.45594000000E+02  0.51100000000E-03 0. -1.
         11   -1    0    0    0    0 -0.00000000000E+00 -0.00000000000E+00 -0.45593999997E+02  0.45594000000E+02  0.51100000000E-03 0.  1.
    9900012    2    1    2    0    0  0.36012039666E+02 -0.18736511555E+02  0.15352504601E+02  0.47787271162E+02  0.20000000536E+02 0.  0.
         12    1    1    2    0    0 -0.36012039666E+02  0.18736511555E+02 -0.15352504601E+02  0.43400728838E+02  0.00000000000E+00 0. -1.
         11    1    3    3    0    0  0.12244142839E+02 -0.36348332366E+01  0.10754819910E+02  0.16697221268E+02  0.51100000000E-03 0. -1.
        -11    1    3    3    0    0  0.20706864277E+02 -0.72805282569E+01  0.10556070189E+01  0.21974863511E+02  0.51100000000E-03 0.  1.
         12    1    3    3    0    0  0.30610325496E+01 -0.78211500615E+01  0.35420776716E+01  0.91151863824E+01  0.00000000000E+00 0. -1.
</event>
<event>
 7    1  0.1736465E-010  0.4778726E+02  0.7816164E-02  0.1312668E+00
        -11   -1    0    0    0    0  0.00000000000E+00  0.00000000000E+00  0.45593999997E+02  0.45594000000E+02  0.51100000000E-03 0.  1.
         11   -1    0    0    0    0 -0.00000000000E+00 -0.00000000000E+00 -0.45593999997E+02  0.45594000000E+02  0.51100000000E-03 0. -1.
    9900012    2    1    2    0    0 -0.16768668075E+02  0.39965565369E+02 -0.22779902355E+01  0.47787264018E+02  0.19999967965E+02 0.  0.
         12    1    1    2    0    0  0.16768668075E+02 -0.39965565369E+02  0.22779902355E+01  0.43400735982E+02  0.00000000000E+00 0. -1.
         11    1    3    3    0    0 -0.19109961145E+00  0.15011421066E+02  0.27829676712E+01  0.15268404985E+02  0.51100000000E-03 0. -1.
        -11    1    3    3    0    0 -0.12850397696E+02  0.25252748525E+02 -0.50435520860E+01  0.28779705470E+02  0.51100000000E-03 0.  1.
         12    1    3    3    0    0 -0.37271707671E+01 -0.29860422191E+00 -0.17405820771E-01  0.37391535634E+01  0.00000000000E+00 0. -1.
</event>
<event>
 7    1  0.1736465E-010  0.4778727E+02  0.7816164E-02  0.1312668E+00
        -11   -1    0    0    0    0  0.00000000000E+00  0.00000000000E+00  0.45593999997E+02  0.45594000000E+02  0.51100000000E-03 0. -1.
         11   -1    0    0    0    0 -0.00000000000E+00 -0.00000000000E+00 -0.45593999997E+02  0.45594000000E+02  0.51100000000E-03 0.  1.
    9900012    2    1    2    0    0 -0.93252895805E+01 -0.36598852342E+02 -0.21381909110E+02  0.47787273558E+02  0.20000011461E+02 0.  0.
         12    1    1    2    0    0  0.93252895805E+01  0.36598852342E+02  0.21381909110E+02  0.43400726442E+02  0.00000000000E+00 0. -1.
         11    1    3    3    0    0 -0.24880914632E+01 -0.19049131534E+02 -0.40481196706E+01  0.19632811425E+02  0.51100000000E-03 0. -1.
        -11    1    3    3    0    0  0.30369487982E+01 -0.67496277264E+01 -0.74106649516E+01  0.10473704585E+02  0.51100000000E-03 0.  1.
         12    1    3    3    0    0 -0.98741469155E+01 -0.10800093081E+02 -0.99231244877E+01  0.17680757548E+02  0.00000000000E+00 0. -1.
</event>
<event>
 7    1  0.1736465E-010  0.4778727E+02  0.7816164E-02  0.1312668E+00
        -11   -1    0    0    0    0  0.00000000000E+00  0.00000000000E+00  0.45593999997E+02  0.45594000000E+02  0.51100000000E-03 0.  1.
         11   -1    0    0    0    0 -0.00000000000E+00 -0.00000000000E+00 -0.45593999997E+02  0.45594000000E+02  0.51100000000E-03 0. -1.
    9900012    2    1    2    0    0  0.18558964997E+01  0.35749320666E+02  0.24539048490E+02  0.47787272118E+02  0.20000004896E+02 0.  0.
         12    1    1    2    0    0 -0.18558964997E+01 -0.35749320666E+02 -0.24539048490E+02  0.43400727882E+02  0.00000000000E+00 0. -1.
         11    1    3    3    0    0 -0.33232027704E+01  0.60360853123E+01  0.78399576281E+01  0.10437573397E+02  0.51100000000E-03 0. -1.
        -11    1    3    3    0    0 -0.28124592594E+01  0.18409999138E+02  0.13868946656E+02  0.23220372025E+02  0.51100000000E-03 0.  1.
         12    1    3    3    0    0  0.79915585295E+01  0.11303236215E+02  0.28301442061E+01  0.14129326696E+02  0.00000000000E+00 0. -1.
</event>
<event>
 7    1  0.1736465E-010  0.4778727E+02  0.7816164E-02  0.1312668E+00
        -11   -1    0    0    0    0  0.00000000000E+00  0.00000000000E+00  0.45593999997E+02  0.45594000000E+02  0.51100000000E-03 0.  1.
         11   -1    0    0    0    0 -0.00000000000E+00 -0.00000000000E+00 -0.45593999997E+02  0.45594000000E+02  0.51100000000E-03 0. -1.
    9900012    2    1    2    0    0  0.26433356565E+02  0.99316113846E+01  0.32958516301E+02  0.47787273730E+02  0.20000012245E+02 0.  0.
         12    1    1    2    0    0 -0.26433356565E+02 -0.99316113846E+01 -0.32958516301E+02  0.43400726270E+02  0.00000000000E+00 0. -1.
         11    1    3    3    0    0  0.46979287886E+01  0.63847239141E+01  0.93777142168E+01  0.12279118802E+02  0.51100000000E-03 0. -1.
        -11    1    3    3    0    0  0.57307019552E+01 -0.56248397001E-01  0.16810837586E+02  0.17760866234E+02  0.51100000000E-03 0.  1.
         12    1    3    3    0    0  0.16004725821E+02  0.36031358675E+01  0.67699644989E+01  0.17747288694E+02  0.00000000000E+00 0. -1.
</event>
<event>
 7    1  0.1736465E-010  0.4778727E+02  0.7816164E-02  0.1312668E+00
        -11   -1    0    0    0    0  0.00000000000E+00  0.00000000000E+00  0.45593999997E+02  0.45594000000E+02  0.51100000000E-03 0.  1.
         11   -1    0    0    0    0 -0.00000000000E+00 -0.00000000000E+00 -0.45593999997E+02  0.45594000000E+02  0.51100000000E-03 0. -1.
    9900012    2    1    2    0    0  0.89810332163E+01 -0.21033317083E+02  0.36885824662E+02  0.47787269060E+02  0.19999990951E+02 0.  0.
         12    1    1    2    0    0 -0.89810332163E+01  0.21033317083E+02 -0.36885824662E+02  0.43400730940E+02  0.00000000000E+00 0. -1.
         11    1    3    3    0    0 -0.58749692652E+01 -0.82662342858E+01  0.11657842573E+02  0.15451575546E+02  0.51100000000E-03 0. -1.
        -11    1    3    3    0    0  0.70042764814E+01 -0.29785147216E+01  0.10825680095E+02  0.13233547852E+02  0.51100000000E-03 0.  1.
        -12    1    3    3    0    0  0.78517260001E+01 -0.97885680752E+01  0.14402301995E+02  0.19102145662E+02  0.00000000000E+00 0.  1.
</event>
<event>
 7    1  0.1736465E-010  0.4778727E+02  0.7816164E-02  0.1312668E+00
        -11   -1    0    0    0    0  0.00000000000E+00  0.00000000000E+00  0.45593999997E+02  0.45594000000E+02  0.51100000000E-03 0. -1.
         11   -1    0    0    0    0 -0.00000000000E+00 -0.00000000000E+00 -0.45593999997E+02  0.45594000000E+02  0.51100000000E-03 0.  1.
    9900012    2    1    2    0    0 -0.11499940465E+02  0.41433586032E+02  0.58849278781E+01  0.47787273528E+02  0.20000011325E+02 0.  0.
         12    1    1    2    0    0  0.11499940465E+02 -0.41433586032E+02 -0.58849278781E+01  0.43400726472E+02  0.00000000000E+00 0. -1.
         11    1    3    3    0    0 -0.18032994726E+01  0.60490412721E+01 -0.42812016174E+01  0.76270228037E+01  0.51100000000E-03 0. -1.
        -11    1    3    3    0    0 -0.44957212650E+01  0.30987542084E+02  0.52222111096E+01  0.31744460355E+02  0.51100000000E-03 0.  1.
        -12    1    3    3    0    0 -0.52009197269E+01  0.43970026759E+01  0.49439183858E+01  0.84157903695E+01  0.00000000000E+00 0.  1.
</event>
<event>
 7    1  0.1736465E-010  0.4778727E+02  0.7816164E-02  0.1312668E+00
        -11   -1    0    0    0    0  0.00000000000E+00  0.00000000000E+00  0.45593999997E+02  0.45594000000E+02  0.51100000000E-03 0. -1.
         11   -1    0    0    0    0 -0.00000000000E+00 -0.00000000000E+00 -0.45593999997E+02  0.45594000000E+02  0.51100000000E-03 0.  1.
    9900012    2    1    2    0    0 -0.53086595926E+01 -0.37176976353E+02 -0.21755775321E+02  0.47787271928E+02  0.20000004027E+02 0.  0.
         12    1    1    2    0    0  0.53086595926E+01  0.37176976353E+02  0.21755775321E+02  0.43400728072E+02  0.00000000000E+00 0. -1.
         11    1    3    3    0    0 -0.96309666419E+01 -0.16042407059E+02 -0.75509046860E+01  0.20177475177E+02  0.51100000000E-03 0. -1.
        -11    1    3    3    0    0  0.29779770217E+01 -0.53115126880E+00 -0.19670664262E+01  0.36082986847E+01  0.51100000000E-03 0.  1.
        -12    1    3    3    0    0  0.13443300276E+01 -0.20603418025E+02 -0.12237804208E+02  0.24001498066E+02  0.00000000000E+00 0.  1.
</event>
<event>
 7    1  0.1736465E-010  0.4778728E+02  0.7816164E-02  0.1312668E+00
        -11   -1    0    0    0    0  0.00000000000E+00  0.00000000000E+00  0.45593999997E+02  0.45594000000E+02  0.51100000000E-03 0.  1.
         11   -1    0    0    0    0 -0.00000000000E+00 -0.00000000000E+00 -0.45593999997E+02  0.45594000000E+02  0.51100000000E-03 0. -1.
    9900012    2    1    2    0    0  0.39551457144E+01 -0.42873727971E+02 -0.54610424966E+01  0.47787277507E+02  0.20000029466E+02 0.  0.
         12    1    1    2    0    0 -0.39551457144E+01  0.42873727971E+02  0.54610424966E+01  0.43400722493E+02  0.00000000000E+00 0. -1.
         11    1    3    3    0    0  0.25132712862E+00 -0.10890271842E+02  0.32134825239E+01  0.11357273278E+02  0.51100000000E-03 0. -1.
        -11    1    3    3    0    0  0.69374496265E+01 -0.19246642533E+02  0.39603037873E+00  0.20462607274E+02  0.51100000000E-03 0.  1.
         12    1    3    3    0    0 -0.32336310408E+01 -0.12736813595E+02 -0.90705553992E+01  0.15967396955E+02  0.00000000000E+00 0. -1.
</event>
<event>
 7    1  0.1736465E-010  0.4778726E+02  0.7816164E-02  0.1312668E+00
        -11   -1    0    0    0    0  0.00000000000E+00  0.00000000000E+00  0.45593999997E+02  0.45594000000E+02  0.51100000000E-03 0.  1.
         11   -1    0    0    0    0 -0.00000000000E+00 -0.00000000000E+00 -0.45593999997E+02  0.45594000000E+02  0.51100000000E-03 0. -1.
    9900012    2    1    2    0    0 -0.13087593384E+02  0.13732401870E+02  0.39035371442E+02  0.47787260544E+02  0.19999952123E+02 0.  0.
         12    1    1    2    0    0  0.13087593384E+02 -0.13732401870E+02 -0.39035371442E+02  0.43400739456E+02  0.00000000000E+00 0. -1.
         11    1    3    3    0    0 -0.49475602365E+01 -0.18016845490E+01  0.64765771082E+01  0.83468838981E+01  0.51100000000E-03 0. -1.
        -11    1    3    3    0    0 -0.31030186700E+01 -0.60078093150E+00  0.13938678923E+02  0.14292530671E+02  0.51100000000E-03 0.  1.
         12    1    3    3    0    0 -0.50370144774E+01  0.16134867350E+02  0.18620115411E+02  0.25147845975E+02  0.00000000000E+00 0. -1.
</event>
<event>
 7    1  0.1736465E-010  0.4778727E+02  0.7816164E-02  0.1312668E+00
        -11   -1    0    0    0    0  0.00000000000E+00  0.00000000000E+00  0.45593999997E+02  0.45594000000E+02  0.51100000000E-03 0. -1.
         11   -1    0    0    0    0 -0.00000000000E+00 -0.00000000000E+00 -0.45593999997E+02  0.45594000000E+02  0.51100000000E-03 0.  1.
    9900012    2    1    2    0    0  0.19817451480E+02 -0.25108440378E+01 -0.38530346708E+02  0.47787270301E+02  0.19999996610E+02 0.  0.
         12    1    1    2    0    0 -0.19817451480E+02  0.25108440378E+01  0.38530346708E+02  0.43400729699E+02  0.00000000000E+00 0. -1.
         11    1    3    3    0    0  0.15045559193E+02 -0.41991816841E+01 -0.20243410689E+02  0.25569467238E+02  0.51100000000E-03 0. -1.
        -11    1    3    3    0    0  0.77824036960E+01 -0.24758696657E+00 -0.16438770887E+02  0.18189565556E+02  0.51100000000E-03 0.  1.
         12    1    3    3    0    0 -0.30105114094E+01  0.19359246129E+01 -0.18481651327E+01  0.40282375067E+01  0.00000000000E+00 0. -1.
</event>
<event>
 7    1  0.1736465E-010  0.4778727E+02  0.7816164E-02  0.1312668E+00
        -11   -1    0    0    0    0  0.00000000000E+00  0.00000000000E+00  0.45593999997E+02  0.45594000000E+02  0.51100000000E-03 0.  1.
         11   -1    0    0    0    0 -0.00000000000E+00 -0.00000000000E+00 -0.45593999997E+02  0.45594000000E+02  0.51100000000E-03 0. -1.
    9900012    2    1    2    0    0  0.13013016439E+02 -0.30299523434E+02  0.28217441633E+02  0.47787265795E+02  0.19999976067E+02 0.  0.
         12    1    1    2    0    0 -0.13013016439E+02  0.30299523434E+02 -0.28217441633E+02  0.43400734205E+02  0.00000000000E+00 0. -1.
         11    1    3    3    0    0  0.60312764940E+01 -0.12531135425E+02  0.45608116325E+01  0.14635800429E+02  0.51100000000E-03 0. -1.
        -11    1    3    3    0    0  0.67056190289E+01 -0.19845279853E+02  0.22563863749E+02  0.30788445991E+02  0.51100000000E-03 0.  1.
         12    1    3    3    0    0  0.27612091568E+00  0.20768918432E+01  0.10927662516E+01  0.23630193756E+01  0.00000000000E+00 0. -1.
</event>
<event>
 7    1  0.1736465E-010  0.4778727E+02  0.7816164E-02  0.1312668E+00
        -11   -1    0    0    0    0  0.00000000000E+00  0.00000000000E+00  0.45593999997E+02  0.45594000000E+02  0.51100000000E-03 0.  1.
         11   -1    0    0    0    0 -0.00000000000E+00 -0.00000000000E+00 -0.45593999997E+02  0.45594000000E+02  0.51100000000E-03 0. -1.
    9900012    2    1    2    0    0 -0.24944041450E+01  0.73556740506E+01  0.42700058953E+02  0.47787273884E+02  0.20000012949E+02 0.  0.
         12    1    1    2    0    0  0.24944041450E+01 -0.73556740506E+01 -0.42700058953E+02  0.43400726116E+02  0.00000000000E+00 0. -1.
         11    1    3    3    0    0  0.31776184748E+01  0.57334749700E+01  0.21236969318E+02  0.22225635210E+02  0.51100000000E-03 0. -1.
        -11    1    3    3    0    0 -0.74039845038E+01  0.49636715674E+01  0.95298373267E+01  0.13048939485E+02  0.51100000000E-03 0.  1.
         12    1    3    3    0    0  0.17319618841E+01 -0.33414724868E+01  0.11933252308E+02  0.12512699189E+02  0.00000000000E+00 0. -1.
</event>
<event>
 7    1  0.1736465E-010  0.4778726E+02  0.7816164E-02  0.1312668E+00
        -11   -1    0    0    0    0  0.00000000000E+00  0.00000000000E+00  0.45593999997E+02  0.45594000000E+02  0.51100000000E-03 0.  1.
         11   -1    0    0    0    0 -0.00000000000E+00 -0.00000000000E+00 -0.45593999997E+02  0.45594000000E+02  0.51100000000E-03 0. -1.
    9900012    2    1    2    0    0 -0.28338653568E+02  0.10966894498E+02  0.30988254778E+02  0.47787262735E+02  0.19999962115E+02 0.  0.
         12    1    1    2    0    0  0.28338653568E+02 -0.10966894498E+02 -0.30988254778E+02  0.43400737265E+02  0.00000000000E+00 0. -1.
         11    1    3    3    0    0 -0.45059122134E+01  0.46189913691E+01  0.16916645777E+02  0.18105558007E+02  0.51100000000E-03 0.  1.
        -11    1    3    3    0    0 -0.90356318751E+01  0.67823183130E+01  0.53570684496E+01  0.12503626183E+02  0.51100000000E-03 0. -1.
        -12    1    3    3    0    0 -0.14797109479E+02 -0.43441518437E+00  0.87145405511E+01  0.17178078545E+02  0.00000000000E+00 0.  1.
</event>
<event>
 7    1  0.1736465E-010  0.4778727E+02  0.7816164E-02  0.1312668E+00
        -11   -1    0    0    0    0  0.00000000000E+00  0.00000000000E+00  0.45593999997E+02  0.45594000000E+02  0.51100000000E-03 0. -1.
         11   -1    0    0    0    0 -0.00000000000E+00 -0.00000000000E+00 -0.45593999997E+02  0.45594000000E+02  0.51100000000E-03 0.  1.
    9900012    2    1    2    0    0  0.82278658968E+01  0.22984314628E+02 -0.35883796103E+02  0.47787270525E+02  0.19999997634E+02 0.  0.
         12    1    1    2    0    0 -0.82278658968E+01 -0.22984314628E+02  0.35883796103E+02  0.43400729475E+02  0.00000000000E+00 0. -1.
         11    1    3    3    0    0 -0.31730626738E+01  0.97378466652E+00 -0.12570934611E+02  0.13001729906E+02  0.51100000000E-03 0. -1.
        -11    1    3    3    0    0  0.68344226003E+01  0.94390628201E+01 -0.15159884092E+02  0.19121383976E+02  0.51100000000E-03 0.  1.
         12    1    3    3    0    0  0.45665059702E+01  0.12571467141E+02 -0.81529774010E+01  0.15664156644E+02  0.00000000000E+00 0. -1.
</event>
<event>
 7    1  0.1736465E-010  0.4778727E+02  0.7816164E-02  0.1312668E+00
        -11   -1    0    0    0    0  0.00000000000E+00  0.00000000000E+00  0.45593999997E+02  0.45594000000E+02  0.51100000000E-03 0.  1.
         11   -1    0    0    0    0 -0.00000000000E+00 -0.00000000000E+00 -0.45593999997E+02  0.45594000000E+02  0.51100000000E-03 0. -1.
    9900012    2    1    2    0    0  0.13674503250E+02  0.31303137252E+02  0.26772090170E+02  0.47787271285E+02  0.20000001095E+02 0.  0.
         12    1    1    2    0    0 -0.13674503250E+02 -0.31303137252E+02 -0.26772090170E+02  0.43400728715E+02  0.00000000000E+00 0. -1.
         11    1    3    3    0    0  0.50988676421E+01  0.23173337590E+02  0.17043661203E+02  0.29214524021E+02  0.51100000000E-03 0.  1.
        -11    1    3    3    0    0  0.41543136559E+01  0.44836095029E+01 -0.12035115398E+01  0.62297284382E+01  0.51100000000E-03 0. -1.
        -12    1    3    3    0    0  0.44213219523E+01  0.36461901585E+01  0.10931940507E+02  0.12343018826E+02  0.00000000000E+00 0.  1.
</event>
<event>
 7    1  0.1736465E-010  0.4778727E+02  0.7816164E-02  0.1312668E+00
        -11   -1    0    0    0    0  0.00000000000E+00  0.00000000000E+00  0.45593999997E+02  0.45594000000E+02  0.51100000000E-03 0.  1.
         11   -1    0    0    0    0 -0.00000000000E+00 -0.00000000000E+00 -0.45593999997E+02  0.45594000000E+02  0.51100000000E-03 0. -1.
    9900012    2    1    2    0    0 -0.92493596996E+01  0.40375594656E+02 -0.12957011944E+02  0.47787268932E+02  0.19999990370E+02 0.  0.
         12    1    1    2    0    0  0.92493596996E+01 -0.40375594656E+02  0.12957011944E+02  0.43400731068E+02  0.00000000000E+00 0. -1.
         11    1    3    3    0    0 -0.42702939147E+00 -0.53458792424E+00  0.11002598400E+01  0.12956505418E+01  0.51100000000E-03 0. -1.
        -11    1    3    3    0    0 -0.10756261526E+02  0.39502079203E+02 -0.10605140525E+02  0.42291611806E+02  0.51100000000E-03 0.  1.
         12    1    3    3    0    0  0.19339312180E+01  0.14081033775E+01 -0.34521312591E+01  0.42000065842E+01  0.00000000000E+00 0. -1.
</event>
<event>
 7    1  0.1736465E-010  0.4778727E+02  0.7816164E-02  0.1312668E+00
        -11   -1    0    0    0    0  0.00000000000E+00  0.00000000000E+00  0.45593999997E+02  0.45594000000E+02  0.51100000000E-03 0.  1.
         11   -1    0    0    0    0 -0.00000000000E+00 -0.00000000000E+00 -0.45593999997E+02  0.45594000000E+02  0.51100000000E-03 0. -1.
    9900012    2    1    2    0    0 -0.20520923083E+01 -0.79615205468E+01  0.42614862664E+02  0.47787269452E+02  0.19999992738E+02 0.  0.
         12    1    1    2    0    0  0.20520923083E+01  0.79615205468E+01 -0.42614862664E+02  0.43400730548E+02  0.00000000000E+00 0. -1.
         11    1    3    3    0    0  0.43305773925E+01 -0.56601104604E+01  0.10523201492E+02  0.12709387117E+02  0.51100000000E-03 0. -1.
        -11    1    3    3    0    0 -0.20632756000E+01  0.42661621364E+01  0.50866021667E+01  0.69520333312E+01  0.51100000000E-03 0.  1.
        -12    1    3    3    0    0 -0.43193941008E+01 -0.65675722228E+01  0.27005059005E+02  0.28125849003E+02  0.00000000000E+00 0.  1.
</event>
<event>
 7    1  0.1736465E-010  0.4778727E+02  0.7816164E-02  0.1312668E+00
        -11   -1    0    0    0    0  0.00000000000E+00  0.00000000000E+00  0.45593999997E+02  0.45594000000E+02  0.51100000000E-03 0. -1.
         11   -1    0    0    0    0 -0.00000000000E+00 -0.00000000000E+00 -0.45593999997E+02  0.45594000000E+02  0.51100000000E-03 0.  1.
    9900012    2    1    2    0    0 -0.41966512216E+01 -0.40770674392E+02 -0.14274593218E+02  0.47787265174E+02  0.19999973235E+02 0.  0.
         12    1    1    2    0    0  0.41966512216E+01  0.40770674392E+02  0.14274593218E+02  0.43400734826E+02  0.00000000000E+00 0. -1.
         11    1    3    3    0    0 -0.51588284106E+01 -0.23658482883E+02 -0.66223341720E+01  0.25103637845E+02  0.51100000000E-03 0. -1.
        -11    1    3    3    0    0 -0.24087958377E+01 -0.15890982933E+02 -0.94792298026E+01  0.18659620411E+02  0.51100000000E-03 0.  1.
         12    1    3    3    0    0  0.33709730267E+01 -0.12212085764E+01  0.18269707565E+01  0.40240069184E+01  0.00000000000E+00 0. -1.
</event>
<event>
 7    1  0.1736465E-010  0.4778727E+02  0.7816164E-02  0.1312668E+00
        -11   -1    0    0    0    0  0.00000000000E+00  0.00000000000E+00  0.45593999997E+02  0.45594000000E+02  0.51100000000E-03 0. -1.
         11   -1    0    0    0    0 -0.00000000000E+00 -0.00000000000E+00 -0.45593999997E+02  0.45594000000E+02  0.51100000000E-03 0.  1.
    9900012    2    1    2    0    0  0.17281533106E+02  0.38067080510E+02 -0.11656301394E+02  0.47787269969E+02  0.19999995097E+02 0.  0.
         12    1    1    2    0    0 -0.17281533106E+02 -0.38067080510E+02  0.11656301394E+02  0.43400730031E+02  0.00000000000E+00 0. -1.
         11    1    3    3    0    0  0.11239839382E+02  0.11249656581E+02  0.20622456387E+00  0.15903813736E+02  0.51100000000E-03 0. -1.
        -11    1    3    3    0    0 -0.30869408623E+01  0.46446867664E+01 -0.16057842517E+01  0.58035215490E+01  0.51100000000E-03 0.  1.
        -12    1    3    3    0    0  0.91286345863E+01  0.22172737162E+02 -0.10256741706E+02  0.26079934684E+02  0.00000000000E+00 0.  1.
</event>
<event>
 7    1  0.1736465E-010  0.4778727E+02  0.7816164E-02  0.1312668E+00
        -11   -1    0    0    0    0  0.00000000000E+00  0.00000000000E+00  0.45593999997E+02  0.45594000000E+02  0.51100000000E-03 0.  1.
         11   -1    0    0    0    0 -0.00000000000E+00 -0.00000000000E+00 -0.45593999997E+02  0.45594000000E+02  0.51100000000E-03 0. -1.
    9900012    2    1    2    0    0  0.93024354691E+01  0.60733323600E-01  0.42392028384E+02  0.47787273454E+02  0.20000010988E+02 0.  0.
         12    1    1    2    0    0 -0.93024354691E+01 -0.60733323600E-01 -0.42392028384E+02  0.43400726546E+02  0.00000000000E+00 0. -1.
         11    1    3    3    0    0  0.57722142949E+01 -0.17279877710E+01  0.11208280556E+02  0.12725170053E+02  0.51100000000E-03 0. -1.
        -11    1    3    3    0    0 -0.51070239733E+01 -0.26065968156E+01  0.16506254119E+02  0.17473765082E+02  0.51100000000E-03 0.  1.
        -12    1    3    3    0    0  0.86372451475E+01  0.43953179102E+01  0.14677493709E+02  0.17588338320E+02  0.00000000000E+00 0.  1.
</event>
<event>
 7    1  0.1736465E-010  0.4778728E+02  0.7816164E-02  0.1312668E+00
        -11   -1    0    0    0    0  0.00000000000E+00  0.00000000000E+00  0.45593999997E+02  0.45594000000E+02  0.51100000000E-03 0. -1.
         11   -1    0    0    0    0 -0.00000000000E+00 -0.00000000000E+00 -0.45593999997E+02  0.45594000000E+02  0.51100000000E-03 0.  1.
    9900012    2    1    2    0    0 -0.23543549737E+02 -0.20944703112E+02 -0.29843650445E+02  0.47787276567E+02  0.20000025179E+02 0.  0.
         12    1    1    2    0    0  0.23543549737E+02  0.20944703112E+02  0.29843650445E+02  0.43400723433E+02  0.00000000000E+00 0. -1.
         11    1    3    3    0    0  0.92811353714E+00 -0.12711886142E+01 -0.19190743038E+01  0.24819672994E+01  0.51100000000E-03 0. -1.
        -11    1    3    3    0    0 -0.26176559409E+02 -0.16997545729E+02 -0.20802169212E+02  0.37508120021E+02  0.51100000000E-03 0.  1.
        -12    1    3    3    0    0  0.17048961356E+01 -0.26759687694E+01 -0.71224069292E+01  0.77971892469E+01  0.00000000000E+00 0.  1.
</event>
<event>
 7    1  0.1736465E-010  0.4778725E+02  0.7816164E-02  0.1312668E+00
        -11   -1    0    0    0    0  0.00000000000E+00  0.00000000000E+00  0.45593999997E+02  0.45594000000E+02  0.51100000000E-03 0.  1.
         11   -1    0    0    0    0 -0.00000000000E+00 -0.00000000000E+00 -0.45593999997E+02  0.45594000000E+02  0.51100000000E-03 0. -1.
    9900012    2    1    2    0    0  0.24786291369E+02  0.37187053458E+01  0.35432134934E+02  0.47787248909E+02  0.19999899077E+02 0.  0.
         12    1    1    2    0    0 -0.24786291369E+02 -0.37187053458E+01 -0.35432134934E+02  0.43400751091E+02  0.00000000000E+00 0. -1.
         11    1    3    3    0    0  0.18231069514E+02  0.36965160637E+00  0.16445900025E+02  0.24555573009E+02  0.51100000000E-03 0. -1.
        -11    1    3    3    0    0  0.50900875099E+01 -0.18951373849E+01  0.16258267691E+02  0.17141522836E+02  0.51100000000E-03 0.  1.
         12    1    3    3    0    0  0.14651343447E+01  0.52441911243E+01  0.27279672177E+01  0.60901530635E+01  0.00000000000E+00 0. -1.
</event>
<event>
 7    1  0.1736465E-010  0.4778727E+02  0.7816164E-02  0.1312668E+00
        -11   -1    0    0    0    0  0.00000000000E+00  0.00000000000E+00  0.45593999997E+02  0.45594000000E+02  0.51100000000E-03 0.  1.
         11   -1    0    0    0    0 -0.00000000000E+00 -0.00000000000E+00 -0.45593999997E+02  0.45594000000E+02  0.51100000000E-03 0. -1.
    9900012    2    1    2    0    0  0.59133578567E+01  0.35992298525E+02  0.23520413763E+02  0.47787271690E+02  0.20000002943E+02 0.  0.
         12    1    1    2    0    0 -0.59133578567E+01 -0.35992298525E+02 -0.23520413763E+02  0.43400728310E+02  0.00000000000E+00 0. -1.
         11    1    3    3    0    0  0.19690397462E+01 -0.75848185477E+00  0.14296586949E+01  0.25487911823E+01  0.51100000000E-03 0. -1.
        -11    1    3    3    0    0  0.23139708502E+01 -0.13848301209E+00  0.26054170030E+01  0.34873824942E+01  0.51100000000E-03 0.  1.
        -12    1    3    3    0    0  0.16303472603E+01  0.36889263392E+02  0.19485338065E+02  0.41751098013E+02  0.00000000000E+00 0.  1.
</event>
<event>
 7    1  0.1736465E-010  0.4778727E+02  0.7816164E-02  0.1312668E+00
        -11   -1    0    0    0    0  0.00000000000E+00  0.00000000000E+00  0.45593999997E+02  0.45594000000E+02  0.51100000000E-03 0. -1.
         11   -1    0    0    0    0 -0.00000000000E+00 -0.00000000000E+00 -0.45593999997E+02  0.45594000000E+02  0.51100000000E-03 0.  1.
    9900012    2    1    2    0    0  0.25907990987E+02 -0.16310219264E+02 -0.30763224537E+02  0.47787271511E+02  0.20000002128E+02 0.  0.
         12    1    1    2    0    0 -0.25907990987E+02  0.16310219264E+02  0.30763224537E+02  0.43400728489E+02  0.00000000000E+00 0. -1.
         11    1    3    3    0    0  0.58505335312E+01 -0.98638282352E+01 -0.74604013439E+01  0.13681426772E+02  0.51100000000E-03 0. -1.
        -11    1    3    3    0    0  0.82475925639E+00 -0.54753379226E+01 -0.65920734547E+01  0.86090060919E+01  0.51100000000E-03 0.  1.
        -12    1    3    3    0    0  0.19232698199E+02 -0.97105310641E+00 -0.16710749739E+02  0.25496838647E+02  0.00000000000E+00 0.  1.
</event>
<event>
 7    1  0.1736465E-010  0.4778725E+02  0.7816164E-02  0.1312668E+00
        -11   -1    0    0    0    0  0.00000000000E+00  0.00000000000E+00  0.45593999997E+02  0.45594000000E+02  0.51100000000E-03 0.  1.
         11   -1    0    0    0    0 -0.00000000000E+00 -0.00000000000E+00 -0.45593999997E+02  0.45594000000E+02  0.51100000000E-03 0. -1.
    9900012    2    1    2    0    0 -0.10895348986E+02 -0.31395490090E+02  0.27914857884E+02  0.47787254405E+02  0.19999924135E+02 0.  0.
         12    1    1    2    0    0  0.10895348986E+02  0.31395490090E+02 -0.27914857884E+02  0.43400745595E+02  0.00000000000E+00 0. -1.
         11    1    3    3    0    0 -0.58498595940E+01 -0.74090675476E+01 -0.12725102236E+01  0.95254617591E+01  0.51100000000E-03 0.  1.
        -11    1    3    3    0    0 -0.33682249550E+01 -0.94832247749E+01  0.13403031343E+02  0.16760600852E+02  0.51100000000E-03 0. -1.
        -12    1    3    3    0    0 -0.16772644370E+01 -0.14503197767E+02  0.15784336765E+02  0.21501191794E+02  0.00000000000E+00 0.  1.
</event>
<event>
 7    1  0.1736465E-010  0.4778727E+02  0.7816164E-02  0.1312668E+00
        -11   -1    0    0    0    0  0.00000000000E+00  0.00000000000E+00  0.45593999997E+02  0.45594000000E+02  0.51100000000E-03 0. -1.
         11   -1    0    0    0    0 -0.00000000000E+00 -0.00000000000E+00 -0.45593999997E+02  0.45594000000E+02  0.51100000000E-03 0.  1.
    9900012    2    1    2    0    0  0.11070220727E+02 -0.41079746687E+02 -0.85748309998E+01  0.47787273030E+02  0.20000009054E+02 0.  0.
         12    1    1    2    0    0 -0.11070220727E+02  0.41079746687E+02  0.85748309998E+01  0.43400726970E+02  0.00000000000E+00 0. -1.
         11    1    3    3    0    0  0.58277536966E+00 -0.15166905026E+02  0.22868231983E+01  0.15349403760E+02  0.51100000000E-03 0. -1.
        -11    1    3    3    0    0  0.12591086316E+01  0.12204901044E+01 -0.14405494578E+01  0.22693905884E+01  0.51100000000E-03 0.  1.
        -12    1    3    3    0    0  0.92283367257E+01 -0.27133331766E+02 -0.94211047403E+01  0.30168478682E+02  0.00000000000E+00 0.  1.
</event>
<event>
 7    1  0.1775227E-010  0.4778724E+02  0.7816164E-02  0.1312668E+00
        -11   -1    0    0    0    0  0.00000000000E+00  0.00000000000E+00  0.45593999997E+02  0.45594000000E+02  0.51100000000E-03 0. -1.
         11   -1    0    0    0    0 -0.00000000000E+00 -0.00000000000E+00 -0.45593999997E+02  0.45594000000E+02  0.51100000000E-03 0.  1.
    9900012    2    1    2    0    0  0.33045684386E+02 -0.14972474316E+02  0.23820867087E+02  0.47787240186E+02  0.19999859303E+02 0.  0.
         12    1    1    2    0    0 -0.33045684386E+02  0.14972474316E+02 -0.23820867087E+02  0.43400759814E+02  0.00000000000E+00 0. -1.
         11    1    3    3    0    0 -0.15045934771E+01  0.32717349128E+00  0.35434191307E+01  0.38635040342E+01  0.51100000000E-03 0. -1.
        -11    1    3    3    0    0  0.16786477327E+02 -0.26531071427E+01  0.69035498802E+01  0.18343494753E+02  0.51100000000E-03 0.  1.
        -12    1    3    3    0    0  0.17763800536E+02 -0.12646540664E+02  0.13373898076E+02  0.25580241399E+02  0.00000000000E+00 0.  1.
</event>
<event>
 7    1  0.1736465E-010  0.4778727E+02  0.7816164E-02  0.1312668E+00
        -11   -1    0    0    0    0  0.00000000000E+00  0.00000000000E+00  0.45593999997E+02  0.45594000000E+02  0.51100000000E-03 0. -1.
         11   -1    0    0    0    0 -0.00000000000E+00 -0.00000000000E+00 -0.45593999997E+02  0.45594000000E+02  0.51100000000E-03 0.  1.
    9900012    2    1    2    0    0  0.12888510617E+02 -0.28608575417E+02  0.29984317030E+02  0.47787267736E+02  0.19999984915E+02 0.  0.
         12    1    1    2    0    0 -0.12888510617E+02  0.28608575417E+02 -0.29984317030E+02  0.43400732264E+02  0.00000000000E+00 0. -1.
         11    1    3    3    0    0  0.80311657515E+00 -0.15716042152E+00  0.50806411246E+01  0.51461257398E+01  0.51100000000E-03 0. -1.
        -11    1    3    3    0    0  0.70502987221E+01 -0.28679494012E+02  0.21973151618E+02  0.36810860913E+02  0.51100000000E-03 0.  1.
        -12    1    3    3    0    0  0.50350953196E+01  0.22807901616E+00  0.29305242867E+01  0.58302810832E+01  0.00000000000E+00 0.  1.
</event>
<event>
 7    1  0.1736465E-010  0.4778727E+02  0.7816164E-02  0.1312668E+00
        -11   -1    0    0    0    0  0.00000000000E+00  0.00000000000E+00  0.45593999997E+02  0.45594000000E+02  0.51100000000E-03 0.  1.
         11   -1    0    0    0    0 -0.00000000000E+00 -0.00000000000E+00 -0.45593999997E+02  0.45594000000E+02  0.51100000000E-03 0. -1.
    9900012    2    1    2    0    0  0.39771836829E+01  0.66207570005E+00  0.43213043022E+02  0.47787269344E+02  0.19999992247E+02 0.  0.
         12    1    1    2    0    0 -0.39771836829E+01 -0.66207570005E+00 -0.43213043022E+02  0.43400730656E+02  0.00000000000E+00 0. -1.
         11    1    3    3    0    0  0.26440400003E+01 -0.37472423881E+01  0.26522427809E+02  0.26916016610E+02  0.51100000000E-03 0. -1.
        -11    1    3    3    0    0 -0.45962327880E+01  0.25391442537E+01  0.11950000307E+02  0.13052781963E+02  0.51100000000E-03 0.  1.
         12    1    3    3    0    0  0.59293764706E+01  0.18701738345E+01  0.47406149062E+01  0.78184707706E+01  0.00000000000E+00 0. -1.
</event>
<event>
 7    1  0.1736465E-010  0.4778727E+02  0.7816164E-02  0.1312668E+00
        -11   -1    0    0    0    0  0.00000000000E+00  0.00000000000E+00  0.45593999997E+02  0.45594000000E+02  0.51100000000E-03 0. -1.
         11   -1    0    0    0    0 -0.00000000000E+00 -0.00000000000E+00 -0.45593999997E+02  0.45594000000E+02  0.51100000000E-03 0.  1.
    9900012    2    1    2    0    0  0.11039601933E+02 -0.40967210009E+02 -0.91344621777E+01  0.47787268370E+02  0.19999987806E+02 0.  0.
         12    1    1    2    0    0 -0.11039601933E+02  0.40967210009E+02  0.91344621777E+01  0.43400731630E+02  0.00000000000E+00 0. -1.
         11    1    3    3    0    0  0.20732183580E+01  0.12363070413E+01  0.14498819072E+01  0.28158208868E+01  0.51100000000E-03 0. -1.
        -11    1    3    3    0    0 -0.19033416862E+00 -0.12426683447E+02 -0.45797878681E+01  0.13245117808E+02  0.51100000000E-03 0.  1.
        -12    1    3    3    0    0  0.91567177438E+01 -0.29776833603E+02 -0.60045562169E+01  0.31726329675E+02  0.00000000000E+00 0.  1.
</event>
<event>
 7    1  0.1736465E-010  0.4778727E+02  0.7816164E-02  0.1312668E+00
        -11   -1    0    0    0    0  0.00000000000E+00  0.00000000000E+00  0.45593999997E+02  0.45594000000E+02  0.51100000000E-03 0.  1.
         11   -1    0    0    0    0 -0.00000000000E+00 -0.00000000000E+00 -0.45593999997E+02  0.45594000000E+02  0.51100000000E-03 0. -1.
    9900012    2    1    2    0    0  0.19918348312E+02 -0.26839647669E+02  0.27686027125E+02  0.47787269770E+02  0.19999994191E+02 0.  0.
         12    1    1    2    0    0 -0.19918348312E+02  0.26839647669E+02 -0.27686027125E+02  0.43400730230E+02  0.00000000000E+00 0. -1.
         11    1    3    3    0    0  0.14467137051E+02 -0.18697990959E+02  0.12509772507E+02  0.26747099446E+02  0.51100000000E-03 0. -1.
        -11    1    3    3    0    0  0.28526945083E+00 -0.18514892915E+00 -0.16712225241E+01  0.17054746471E+01  0.51100000000E-03 0.  1.
        -12    1    3    3    0    0  0.51659418100E+01 -0.79565077814E+01  0.16847477142E+02  0.19334695677E+02  0.00000000000E+00 0.  1.
</event>
<event>
 7    1  0.1736465E-010  0.4778727E+02  0.7816164E-02  0.1312668E+00
        -11   -1    0    0    0    0  0.00000000000E+00  0.00000000000E+00  0.45593999997E+02  0.45594000000E+02  0.51100000000E-03 0. -1.
         11   -1    0    0    0    0 -0.00000000000E+00 -0.00000000000E+00 -0.45593999997E+02  0.45594000000E+02  0.51100000000E-03 0.  1.
    9900012    2    1    2    0    0  0.70716348969E+00  0.22050788059E+02 -0.37374937410E+02  0.47787270966E+02  0.19999999643E+02 0.  0.
         12    1    1    2    0    0 -0.70716348969E+00 -0.22050788059E+02  0.37374937410E+02  0.43400729034E+02  0.00000000000E+00 0. -1.
         11    1    3    3    0    0  0.13475349881E+01  0.73278733492E+01 -0.87611932885E+01  0.11500960241E+02  0.51100000000E-03 0. -1.
        -11    1    3    3    0    0  0.53746403060E+01  0.52169894774E+01 -0.21992867909E+02  0.23233380657E+02  0.51100000000E-03 0.  1.
         12    1    3    3    0    0 -0.60150118044E+01  0.95059252327E+01 -0.66208762131E+01  0.13052930068E+02  0.00000000000E+00 0. -1.
</event>
<event>
 7    1  0.1736465E-010  0.4778727E+02  0.7816164E-02  0.1312668E+00
        -11   -1    0    0    0    0  0.00000000000E+00  0.00000000000E+00  0.45593999997E+02  0.45594000000E+02  0.51100000000E-03 0. -1.
         11   -1    0    0    0    0 -0.00000000000E+00 -0.00000000000E+00 -0.45593999997E+02  0.45594000000E+02  0.51100000000E-03 0.  1.
    9900012    2    1    2    0    0  0.13117495569E+02 -0.38910475430E+02 -0.14054518246E+02  0.47787271074E+02  0.20000000136E+02 0.  0.
         12    1    1    2    0    0 -0.13117495569E+02  0.38910475430E+02  0.14054518246E+02  0.43400728926E+02  0.00000000000E+00 0. -1.
         11    1    3    3    0    0  0.41056825028E+01 -0.21610961206E+02 -0.12642547818E+02  0.25371722225E+02  0.51100000000E-03 0. -1.
        -11    1    3    3    0    0  0.77690564505E+01 -0.18714101766E+02 -0.21849073595E+01  0.20380129133E+02  0.51100000000E-03 0.  1.
         12    1    3    3    0    0  0.12427566154E+01  0.14145875425E+01  0.77293693216E+00  0.20354197163E+01  0.00000000000E+00 0. -1.
</event>
<event>
 7    1  0.1736465E-010  0.4778727E+02  0.7816164E-02  0.1312668E+00
        -11   -1    0    0    0    0  0.00000000000E+00  0.00000000000E+00  0.45593999997E+02  0.45594000000E+02  0.51100000000E-03 0.  1.
         11   -1    0    0    0    0 -0.00000000000E+00 -0.00000000000E+00 -0.45593999997E+02  0.45594000000E+02  0.51100000000E-03 0. -1.
    9900012    2    1    2    0    0 -0.25559045866E+02 -0.30550343971E+02  0.17234703009E+02  0.47787270396E+02  0.19999997045E+02 0.  0.
         12    1    1    2    0    0  0.25559045866E+02  0.30550343971E+02 -0.17234703009E+02  0.43400729604E+02  0.00000000000E+00 0. -1.
         11    1    3    3    0    0 -0.97764251017E+01 -0.65349806470E+01  0.10487133824E+00  0.11759908932E+02  0.51100000000E-03 0. -1.
        -11    1    3    3    0    0 -0.13030011803E+02 -0.23663911569E+02  0.10757862873E+02  0.29077371480E+02  0.51100000000E-03 0.  1.
        -12    1    3    3    0    0 -0.27526089605E+01 -0.35145175536E+00  0.63719687978E+01  0.69499899846E+01  0.00000000000E+00 0.  1.
</event>
<event>
 7    1  0.1736465E-010  0.4778727E+02  0.7816164E-02  0.1312668E+00
        -11   -1    0    0    0    0  0.00000000000E+00  0.00000000000E+00  0.45593999997E+02  0.45594000000E+02  0.51100000000E-03 0.  1.
         11   -1    0    0    0    0 -0.00000000000E+00 -0.00000000000E+00 -0.45593999997E+02  0.45594000000E+02  0.51100000000E-03 0. -1.
    9900012    2    1    2    0    0 -0.17827095463E+00  0.42517432980E+02  0.87097237266E+01  0.47787272182E+02  0.20000005185E+02 0.  0.
         12    1    1    2    0    0  0.17827095463E+00 -0.42517432980E+02 -0.87097237266E+01  0.43400727818E+02  0.00000000000E+00 0. -1.
         11    1    3    3    0    0  0.49265830045E+00  0.25088551529E+02  0.43721016547E-01  0.25093426267E+02  0.51100000000E-03 0. -1.
        -11    1    3    3    0    0  0.53529774374E+01  0.90640053766E+01  0.56829558917E+01  0.11962714944E+02  0.51100000000E-03 0.  1.
        -12    1    3    3    0    0 -0.60239066924E+01  0.83648760745E+01  0.29830468183E+01  0.10731130970E+02  0.00000000000E+00 0.  1.
</event>
<event>
 7    1  0.1736465E-010  0.4778727E+02  0.7816164E-02  0.1312668E+00
        -11   -1    0    0    0    0  0.00000000000E+00  0.00000000000E+00  0.45593999997E+02  0.45594000000E+02  0.51100000000E-03 0.  1.
         11   -1    0    0    0    0 -0.00000000000E+00 -0.00000000000E+00 -0.45593999997E+02  0.45594000000E+02  0.51100000000E-03 0. -1.
    9900012    2    1    2    0    0  0.38423252090E+02  0.46941733728E+01  0.19627577458E+02  0.47787270033E+02  0.19999995388E+02 0.  0.
         12    1    1    2    0    0 -0.38423252090E+02 -0.46941733728E+01 -0.19627577458E+02  0.43400729967E+02  0.00000000000E+00 0. -1.
         11    1    3    3    0    0  0.40472414747E+01  0.17206822393E+01  0.26037468566E+01  0.51108129370E+01  0.51100000000E-03 0. -1.
        -11    1    3    3    0    0  0.13829859737E+01  0.37829455190E+01  0.71870121377E+01  0.82387177845E+01  0.51100000000E-03 0.  1.
         12    1    3    3    0    0  0.32993024641E+02 -0.80945438554E+00  0.98368184639E+01  0.34437739311E+02  0.00000000000E+00 0. -1.
</event>
<event>
 7    1  0.1736465E-010  0.4778727E+02  0.7816164E-02  0.1312668E+00
        -11   -1    0    0    0    0  0.00000000000E+00  0.00000000000E+00  0.45593999997E+02  0.45594000000E+02  0.51100000000E-03 0.  1.
         11   -1    0    0    0    0 -0.00000000000E+00 -0.00000000000E+00 -0.45593999997E+02  0.45594000000E+02  0.51100000000E-03 0. -1.
    9900012    2    1    2    0    0  0.22652633605E+02 -0.54575629314E+01  0.36615519847E+02  0.47787273093E+02  0.20000009342E+02 0.  0.
         12    1    1    2    0    0 -0.22652633605E+02  0.54575629314E+01 -0.36615519847E+02  0.43400726907E+02  0.00000000000E+00 0. -1.
         11    1    3    3    0    0  0.26111342749E+01 -0.45436170534E+00  0.47112790137E+01  0.54056097682E+01  0.51100000000E-03 0. -1.
        -11    1    3    3    0    0  0.36709775129E+00  0.18820567079E+00  0.17372932006E+02  0.17377829234E+02  0.51100000000E-03 0.  1.
         12    1    3    3    0    0  0.19674401578E+02 -0.51914068969E+01  0.14531308827E+02  0.25003834091E+02  0.00000000000E+00 0. -1.
</event>
<event>
 7    1  0.1736465E-010  0.4778725E+02  0.7816164E-02  0.1312668E+00
        -11   -1    0    0    0    0  0.00000000000E+00  0.00000000000E+00  0.45593999997E+02  0.45594000000E+02  0.51100000000E-03 0.  1.
         11   -1    0    0    0    0 -0.00000000000E+00 -0.00000000000E+00 -0.45593999997E+02  0.45594000000E+02  0.51100000000E-03 0. -1.
    9900012    2    1    2    0    0  0.25193978926E+02  0.19963027857E+02  0.29161033461E+02  0.47787251990E+02  0.19999913124E+02 0.  0.
         12    1    1    2    0    0 -0.25193978926E+02 -0.19963027857E+02 -0.29161033461E+02  0.43400748010E+02  0.00000000000E+00 0. -1.
         11    1    3    3    0    0  0.72214259015E+01  0.31185261841E+00  0.23329805719E+01  0.75953303231E+01  0.51100000000E-03 0. -1.
        -11    1    3    3    0    0  0.11352625099E+02  0.76992430666E+01  0.21549520898E+02  0.25544907352E+02  0.51100000000E-03 0.  1.
         12    1    3    3    0    0  0.66199279246E+01  0.11951932172E+02  0.52785319907E+01  0.14647014315E+02  0.00000000000E+00 0. -1.
</event>
<event>
 7    1  0.1736465E-010  0.4778727E+02  0.7816164E-02  0.1312668E+00
        -11   -1    0    0    0    0  0.00000000000E+00  0.00000000000E+00  0.45593999997E+02  0.45594000000E+02  0.51100000000E-03 0. -1.
         11   -1    0    0    0    0 -0.00000000000E+00 -0.00000000000E+00 -0.45593999997E+02  0.45594000000E+02  0.51100000000E-03 0.  1.
    9900012    2    1    2    0    0  0.23882448547E+02  0.36238656448E+02  0.10851434986E+00  0.47787270223E+02  0.19999996256E+02 0.  0.
         12    1    1    2    0    0 -0.23882448547E+02 -0.36238656448E+02 -0.10851434986E+00  0.43400729777E+02  0.00000000000E+00 0. -1.
         11    1    3    3    0    0  0.55122279842E+01  0.28944371492E+01 -0.39798718689E+00  0.62386551293E+01  0.51100000000E-03 0. -1.
        -11    1    3    3    0    0  0.17521978334E+02  0.14672548703E+02  0.16379192654E+00  0.22854545243E+02  0.51100000000E-03 0.  1.
        -12    1    3    3    0    0  0.84824222866E+00  0.18671670596E+02  0.34270961022E+00  0.18694069851E+02  0.00000000000E+00 0.  1.
</event>
<event>
 7    1  0.1736465E-010  0.4778727E+02  0.7816164E-02  0.1312668E+00
        -11   -1    0    0    0    0  0.00000000000E+00  0.00000000000E+00  0.45593999997E+02  0.45594000000E+02  0.51100000000E-03 0.  1.
         11   -1    0    0    0    0 -0.00000000000E+00 -0.00000000000E+00 -0.45593999997E+02  0.45594000000E+02  0.51100000000E-03 0. -1.
    9900012    2    1    2    0    0 -0.13042828353E+01 -0.43365308389E+02 -0.11713923487E+01  0.47787270911E+02  0.19999999392E+02 0.  0.
         12    1    1    2    0    0  0.13042828353E+01  0.43365308389E+02  0.11713923487E+01  0.43400729089E+02  0.00000000000E+00 0. -1.
         11    1    3    3    0    0 -0.43792831544E+01 -0.42918331582E+01 -0.28667096777E+01  0.67687500649E+01  0.51100000000E-03 0. -1.
        -11    1    3    3    0    0 -0.14520367489E+01 -0.24874838694E+02  0.57538779760E+01  0.25572898208E+02  0.51100000000E-03 0.  1.
         12    1    3    3    0    0  0.45270370681E+01 -0.14198636538E+02 -0.40585606470E+01  0.15445622638E+02  0.00000000000E+00 0. -1.
</event>
<event>
 7    1  0.1736465E-010  0.4778727E+02  0.7816164E-02  0.1312668E+00
        -11   -1    0    0    0    0  0.00000000000E+00  0.00000000000E+00  0.45593999997E+02  0.45594000000E+02  0.51100000000E-03 0.  1.
         11   -1    0    0    0    0 -0.00000000000E+00 -0.00000000000E+00 -0.45593999997E+02  0.45594000000E+02  0.51100000000E-03 0. -1.
    9900012    2    1    2    0    0  0.76734067195E+01 -0.42712582083E+02  0.61438640238E+00  0.47787270633E+02  0.19999998126E+02 0.  0.
         12    1    1    2    0    0 -0.76734067195E+01  0.42712582083E+02 -0.61438640238E+00  0.43400729367E+02  0.00000000000E+00 0. -1.
         11    1    3    3    0    0  0.18363773442E+01  0.31092322761E+00 -0.10209509520E+01  0.21239811937E+01  0.51100000000E-03 0. -1.
        -11    1    3    3    0    0  0.42766917139E+00 -0.20063807661E+02  0.73854972004E+01  0.21384219601E+02  0.51100000000E-03 0.  1.
         12    1    3    3    0    0  0.54093602040E+01 -0.22959697650E+02 -0.57501598461E+01  0.24279069839E+02  0.00000000000E+00 0. -1.
</event>
<event>
 7    1  0.1736465E-010  0.4778729E+02  0.7816164E-02  0.1312668E+00
        -11   -1    0    0    0    0  0.00000000000E+00  0.00000000000E+00  0.45593999997E+02  0.45594000000E+02  0.51100000000E-03 0. -1.
         11   -1    0    0    0    0 -0.00000000000E+00 -0.00000000000E+00 -0.45593999997E+02  0.45594000000E+02  0.51100000000E-03 0.  1.
    9900012    2    1    2    0    0  0.22957091581E+02 -0.12304804532E+02 -0.34715784380E+02  0.47787286255E+02  0.20000069352E+02 0.  0.
         12    1    1    2    0    0 -0.22957091581E+02  0.12304804532E+02  0.34715784380E+02  0.43400713745E+02  0.00000000000E+00 0. -1.
         11    1    3    3    0    0  0.29195178570E+01 -0.52177596699E+01 -0.44746439438E+01  0.74680010160E+01  0.51100000000E-03 0. -1.
        -11    1    3    3    0    0  0.55809988969E+01  0.31862141168E+01 -0.17036577180E+02  0.18208362677E+02  0.51100000000E-03 0.  1.
        -12    1    3    3    0    0  0.14456574827E+02 -0.10273258979E+02 -0.13204563256E+02  0.22110922563E+02  0.00000000000E+00 0.  1.
</event>
<event>
 7    1  0.1736465E-010  0.4778727E+02  0.7816164E-02  0.1312668E+00
        -11   -1    0    0    0    0  0.00000000000E+00  0.00000000000E+00  0.45593999997E+02  0.45594000000E+02  0.51100000000E-03 0.  1.
         11   -1    0    0    0    0 -0.00000000000E+00 -0.00000000000E+00 -0.45593999997E+02  0.45594000000E+02  0.51100000000E-03 0. -1.
    9900012    2    1    2    0    0  0.16361218390E+02 -0.83635849885E+01  0.39319007137E+02  0.47787270245E+02  0.19999996355E+02 0.  0.
         12    1    1    2    0    0 -0.16361218390E+02  0.83635849885E+01 -0.39319007137E+02  0.43400729755E+02  0.00000000000E+00 0. -1.
         11    1    3    3    0    0 -0.25930192061E+01  0.84476916445E+00  0.10432598682E+02  0.10783158121E+02  0.51100000000E-03 0. -1.
        -11    1    3    3    0    0  0.76569717238E+01 -0.89920521969E+01  0.14038548100E+02  0.18345763863E+02  0.51100000000E-03 0.  1.
        -12    1    3    3    0    0  0.11297265872E+02 -0.21630195607E+00  0.14847860355E+02  0.18658348261E+02  0.00000000000E+00 0.  1.
</event>
<event>
 7    1  0.1736465E-010  0.4778727E+02  0.7816164E-02  0.1312668E+00
        -11   -1    0    0    0    0  0.00000000000E+00  0.00000000000E+00  0.45593999997E+02  0.45594000000E+02  0.51100000000E-03 0. -1.
         11   -1    0    0    0    0 -0.00000000000E+00 -0.00000000000E+00 -0.45593999997E+02  0.45594000000E+02  0.51100000000E-03 0.  1.
    9900012    2    1    2    0    0  0.28482924997E+02 -0.88003065679E+01 -0.31542049749E+02  0.47787270577E+02  0.19999997868E+02 0.  0.
         12    1    1    2    0    0 -0.28482924997E+02  0.88003065679E+01  0.31542049749E+02  0.43400729423E+02  0.00000000000E+00 0. -1.
         11    1    3    3    0    0  0.62817728225E+00  0.23619630499E+01 -0.35896505225E+01  0.43427027623E+01  0.51100000000E-03 0. -1.
        -11    1    3    3    0    0  0.78417646870E+01 -0.15583747179E+01 -0.32178591077E+00  0.80015843182E+01  0.51100000000E-03 0.  1.
         12    1    3    3    0    0  0.20012983028E+02 -0.96038948999E+01 -0.27630613316E+02  0.35442983496E+02  0.00000000000E+00 0. -1.
</event>
<event>
 7    1  0.1736465E-010  0.4778727E+02  0.7816164E-02  0.1312668E+00
        -11   -1    0    0    0    0  0.00000000000E+00  0.00000000000E+00  0.45593999997E+02  0.45594000000E+02  0.51100000000E-03 0. -1.
         11   -1    0    0    0    0 -0.00000000000E+00 -0.00000000000E+00 -0.45593999997E+02  0.45594000000E+02  0.51100000000E-03 0.  1.
    9900012    2    1    2    0    0 -0.31189821799E+02  0.29923140910E+02 -0.39273193173E+01  0.47787272094E+02  0.20000004783E+02 0.  0.
         12    1    1    2    0    0  0.31189821799E+02 -0.29923140910E+02  0.39273193173E+01  0.43400727906E+02  0.00000000000E+00 0. -1.
         11    1    3    3    0    0 -0.11293764651E+02  0.15646850120E+02 -0.80632726071E+01  0.20913856748E+02  0.51100000000E-03 0. -1.
        -11    1    3    3    0    0 -0.18630021517E+02  0.14221988510E+02  0.96419377992E+00  0.23457884150E+02  0.51100000000E-03 0.  1.
        -12    1    3    3    0    0 -0.12660356314E+01  0.54302279693E-01  0.31717595099E+01  0.34155311953E+01  0.00000000000E+00 0.  1.
</event>
<event>
 7    1  0.1736465E-010  0.4778727E+02  0.7816164E-02  0.1312668E+00
        -11   -1    0    0    0    0  0.00000000000E+00  0.00000000000E+00  0.45593999997E+02  0.45594000000E+02  0.51100000000E-03 0.  1.
         11   -1    0    0    0    0 -0.00000000000E+00 -0.00000000000E+00 -0.45593999997E+02  0.45594000000E+02  0.51100000000E-03 0. -1.
    9900012    2    1    2    0    0  0.19670299643E+02 -0.32126520818E+02  0.21554338353E+02  0.47787268097E+02  0.19999986562E+02 0.  0.
         12    1    1    2    0    0 -0.19670299643E+02  0.32126520818E+02 -0.21554338353E+02  0.43400731903E+02  0.00000000000E+00 0. -1.
         11    1    3    3    0    0  0.90415741697E+01 -0.28255275010E+01  0.95509046641E+01  0.13451893892E+02  0.51100000000E-03 0. -1.
        -11    1    3    3    0    0  0.12340188278E+01 -0.14448084432E+02  0.67317919717E+01  0.15987087591E+02  0.51100000000E-03 0.  1.
        -12    1    3    3    0    0  0.93947066451E+01 -0.14852908885E+02  0.52716417171E+01  0.18348286614E+02  0.00000000000E+00 0.  1.
</event>
<event>
 7    1  0.1736465E-010  0.4778727E+02  0.7816164E-02  0.1312668E+00
        -11   -1    0    0    0    0  0.00000000000E+00  0.00000000000E+00  0.45593999997E+02  0.45594000000E+02  0.51100000000E-03 0.  1.
         11   -1    0    0    0    0 -0.00000000000E+00 -0.00000000000E+00 -0.45593999997E+02  0.45594000000E+02  0.51100000000E-03 0. -1.
    9900012    2    1    2    0    0 -0.31538165958E+02  0.24488554519E+02  0.17008180019E+02  0.47787269569E+02  0.19999993271E+02 0.  0.
         12    1    1    2    0    0  0.31538165958E+02 -0.24488554519E+02 -0.17008180019E+02  0.43400730431E+02  0.00000000000E+00 0. -1.
         11    1    3    3    0    0 -0.12622819225E+02  0.12206031530E+02  0.20396802849E+01  0.17677190581E+02  0.51100000000E-03 0. -1.
        -11    1    3    3    0    0 -0.19683243256E+02  0.13312961778E+02  0.11476100526E+02  0.26388745706E+02  0.51100000000E-03 0.  1.
         12    1    3    3    0    0  0.76789652301E+00 -0.10304387894E+01  0.34923992078E+01  0.37213332820E+01  0.00000000000E+00 0. -1.
</event>
<event>
 7    1  0.1736465E-010  0.4778727E+02  0.7816164E-02  0.1312668E+00
        -11   -1    0    0    0    0  0.00000000000E+00  0.00000000000E+00  0.45593999997E+02  0.45594000000E+02  0.51100000000E-03 0.  1.
         11   -1    0    0    0    0 -0.00000000000E+00 -0.00000000000E+00 -0.45593999997E+02  0.45594000000E+02  0.51100000000E-03 0. -1.
    9900012    2    1    2    0    0  0.38657282962E+01 -0.22133212015E+01  0.43171527163E+02  0.47787269550E+02  0.19999993185E+02 0.  0.
         12    1    1    2    0    0 -0.38657282962E+01  0.22133212015E+01 -0.43171527163E+02  0.43400730450E+02  0.00000000000E+00 0. -1.
         11    1    3    3    0    0 -0.45819393042E+01 -0.40256858801E+01  0.99362591041E+01  0.11658883301E+02  0.51100000000E-03 0. -1.
        -11    1    3    3    0    0  0.48725511164E+01 -0.43991311983E+00  0.30930954934E+02  0.31315479420E+02  0.51100000000E-03 0.  1.
         12    1    3    3    0    0  0.35751164839E+01  0.22522777985E+01  0.23043131253E+01  0.48129068279E+01  0.00000000000E+00 0. -1.
</event>
<event>
 7    1  0.1736465E-010  0.4778727E+02  0.7816164E-02  0.1312668E+00
        -11   -1    0    0    0    0  0.00000000000E+00  0.00000000000E+00  0.45593999997E+02  0.45594000000E+02  0.51100000000E-03 0. -1.
         11   -1    0    0    0    0 -0.00000000000E+00 -0.00000000000E+00 -0.45593999997E+02  0.45594000000E+02  0.51100000000E-03 0.  1.
    9900012    2    1    2    0    0  0.36652371238E+02  0.15880122257E+02 -0.16972006910E+02  0.47787267071E+02  0.19999981883E+02 0.  0.
         12    1    1    2    0    0 -0.36652371238E+02 -0.15880122257E+02  0.16972006910E+02  0.43400732929E+02  0.00000000000E+00 0. -1.
         11    1    3    3    0    0  0.48871268982E+01  0.36531024359E-01  0.35351588930E+01  0.60318067355E+01  0.51100000000E-03 0. -1.
        -11    1    3    3    0    0  0.11701475223E+02  0.91232747568E+01 -0.55427050685E+01  0.15839199614E+02  0.51100000000E-03 0.  1.
        -12    1    3    3    0    0  0.20063769116E+02  0.67203164757E+01 -0.14964460734E+02  0.25916260721E+02  0.00000000000E+00 0.  1.
</event>
<event>
 7    1  0.1736465E-010  0.4778727E+02  0.7816164E-02  0.1312668E+00
        -11   -1    0    0    0    0  0.00000000000E+00  0.00000000000E+00  0.45593999997E+02  0.45594000000E+02  0.51100000000E-03 0.  1.
         11   -1    0    0    0    0 -0.00000000000E+00 -0.00000000000E+00 -0.45593999997E+02  0.45594000000E+02  0.51100000000E-03 0. -1.
    9900012    2    1    2    0    0  0.42272285720E+02 -0.81730857221E+01 -0.54660311451E+01  0.47787274584E+02  0.20000016137E+02 0.  0.
         12    1    1    2    0    0 -0.42272285720E+02  0.81730857221E+01  0.54660311451E+01  0.43400725416E+02  0.00000000000E+00 0. -1.
         11    1    3    3    0    0  0.46245837521E+01  0.23917618542E+01 -0.66836597307E+01  0.84722256405E+01  0.51100000000E-03 0.  1.
        -11    1    3    3    0    0  0.16322701497E+02 -0.30413993110E+01 -0.71785499803E+00  0.16619145886E+02  0.51100000000E-03 0. -1.
         12    1    3    3    0    0  0.21325000470E+02 -0.75234482653E+01  0.19354835836E+01  0.22695903057E+02  0.00000000000E+00 0. -1.
</event>
<event>
 7    1  0.1736465E-010  0.4778727E+02  0.7816164E-02  0.1312668E+00
        -11   -1    0    0    0    0  0.00000000000E+00  0.00000000000E+00  0.45593999997E+02  0.45594000000E+02  0.51100000000E-03 0.  1.
         11   -1    0    0    0    0 -0.00000000000E+00 -0.00000000000E+00 -0.45593999997E+02  0.45594000000E+02  0.51100000000E-03 0. -1.
    9900012    2    1    2    0    0  0.77207103048E+01 -0.15853429530E+02  0.39657063642E+02  0.47787270833E+02  0.19999999038E+02 0.  0.
         12    1    1    2    0    0 -0.77207103048E+01  0.15853429530E+02 -0.39657063642E+02  0.43400729167E+02  0.00000000000E+00 0. -1.
         11    1    3    3    0    0 -0.75136502658E+00  0.22122631477E+01  0.97400902984E+01  0.10016387419E+02  0.51100000000E-03 0. -1.
        -11    1    3    3    0    0  0.15732039105E+01 -0.57884411040E+01  0.16997378047E+01  0.62345913920E+01  0.51100000000E-03 0.  1.
        -12    1    3    3    0    0  0.68988714208E+01 -0.12277251574E+02  0.28217235539E+02  0.31536292023E+02  0.00000000000E+00 0.  1.
</event>
<event>
 7    1  0.1736465E-010  0.4778727E+02  0.7816164E-02  0.1312668E+00
        -11   -1    0    0    0    0  0.00000000000E+00  0.00000000000E+00  0.45593999997E+02  0.45594000000E+02  0.51100000000E-03 0.  1.
         11   -1    0    0    0    0 -0.00000000000E+00 -0.00000000000E+00 -0.45593999997E+02  0.45594000000E+02  0.51100000000E-03 0. -1.
    9900012    2    1    2    0    0 -0.24786305440E+02  0.11207164056E+02  0.33818064682E+02  0.47787274633E+02  0.20000016360E+02 0.  0.
         12    1    1    2    0    0  0.24786305440E+02 -0.11207164056E+02 -0.33818064682E+02  0.43400725367E+02  0.00000000000E+00 0. -1.
         11    1    3    3    0    0 -0.16983238555E+02  0.85914228436E+01  0.17740038684E+02  0.26018299542E+02  0.51100000000E-03 0. -1.
        -11    1    3    3    0    0 -0.38674086640E+00  0.29082963984E+01 -0.10387059789E+01  0.31123410498E+01  0.51100000000E-03 0.  1.
        -12    1    3    3    0    0 -0.74163260188E+01 -0.29255518578E+00  0.17116731977E+02  0.18656634041E+02  0.00000000000E+00 0.  1.
</event>
<event>
 7    1  0.1736465E-010  0.4778728E+02  0.7816164E-02  0.1312668E+00
        -11   -1    0    0    0    0  0.00000000000E+00  0.00000000000E+00  0.45593999997E+02  0.45594000000E+02  0.51100000000E-03 0.  1.
         11   -1    0    0    0    0 -0.00000000000E+00 -0.00000000000E+00 -0.45593999997E+02  0.45594000000E+02  0.51100000000E-03 0. -1.
    9900012    2    1    2    0    0 -0.22651894384E+02  0.25118392685E+02  0.27195225189E+02  0.47787282916E+02  0.20000054129E+02 0.  0.
         12    1    1    2    0    0  0.22651894384E+02 -0.25118392685E+02 -0.27195225189E+02  0.43400717084E+02  0.00000000000E+00 0. -1.
         11    1    3    3    0    0 -0.93245336874E+01  0.61336332511E+01  0.53987173732E+01  0.12398166594E+02  0.51100000000E-03 0.  1.
        -11    1    3    3    0    0 -0.16651560823E+02  0.16827400504E+02  0.16884672406E+02  0.29077964992E+02  0.51100000000E-03 0. -1.
        -12    1    3    3    0    0  0.33242001257E+01  0.21573589302E+01  0.49118354095E+01  0.63111513308E+01  0.00000000000E+00 0.  1.
</event>
<event>
 7    1  0.1736465E-010  0.4778722E+02  0.7816164E-02  0.1312668E+00
        -11   -1    0    0    0    0  0.00000000000E+00  0.00000000000E+00  0.45593999997E+02  0.45594000000E+02  0.51100000000E-03 0.  1.
         11   -1    0    0    0    0 -0.00000000000E+00 -0.00000000000E+00 -0.45593999997E+02  0.45594000000E+02  0.51100000000E-03 0. -1.
    9900012    2    1    2    0    0  0.38483466801E+01 -0.29767979271E+02  0.31347813359E+02  0.47787219311E+02  0.19999764123E+02 0.  0.
         12    1    1    2    0    0 -0.38483466801E+01  0.29767979271E+02 -0.31347813359E+02  0.43400780689E+02  0.00000000000E+00 0. -1.
         11    1    3    3    0    0 -0.45146810854E+01 -0.10407760867E+02  0.13128087367E+02  0.17350807178E+02  0.51100000000E-03 0.  1.
        -11    1    3    3    0    0  0.83303993760E+01 -0.20562667783E+02  0.18819006248E+02  0.29092505161E+02  0.51100000000E-03 0. -1.
         12    1    3    3    0    0  0.32628389572E-01  0.12024493794E+01 -0.59928025553E+00  0.13439069709E+01  0.00000000000E+00 0. -1.
</event>
<event>
 7    1  0.1736465E-010  0.4778727E+02  0.7816164E-02  0.1312668E+00
        -11   -1    0    0    0    0  0.00000000000E+00  0.00000000000E+00  0.45593999997E+02  0.45594000000E+02  0.51100000000E-03 0.  1.
         11   -1    0    0    0    0 -0.00000000000E+00 -0.00000000000E+00 -0.45593999997E+02  0.45594000000E+02  0.51100000000E-03 0. -1.
    9900012    2    1    2    0    0  0.32871304574E+02  0.16108906985E+02  0.23315310664E+02  0.47787271204E+02  0.20000000730E+02 0.  0.
         12    1    1    2    0    0 -0.32871304574E+02 -0.16108906985E+02 -0.23315310664E+02  0.43400728796E+02  0.00000000000E+00 0. -1.
         11    1    3    3    0    0  0.60905019453E+01  0.11314537712E+02  0.71144023707E+01  0.14687671665E+02  0.51100000000E-03 0. -1.
        -11    1    3    3    0    0  0.21504288742E+02  0.64719947299E+01  0.15972738339E+02  0.27558111699E+02  0.51100000000E-03 0.  1.
        -12    1    3    3    0    0  0.52765138861E+01 -0.16776254564E+01  0.22816995392E+00  0.55414878408E+01  0.00000000000E+00 0.  1.
</event>
<event>
 7    1  0.1736465E-010  0.4778727E+02  0.7816164E-02  0.1312668E+00
        -11   -1    0    0    0    0  0.00000000000E+00  0.00000000000E+00  0.45593999997E+02  0.45594000000E+02  0.51100000000E-03 0.  1.
         11   -1    0    0    0    0 -0.00000000000E+00 -0.00000000000E+00 -0.45593999997E+02  0.45594000000E+02  0.51100000000E-03 0. -1.
    9900012    2    1    2    0    0  0.93496840641E+01  0.14462002729E+02  0.39837886350E+02  0.47787270699E+02  0.19999998425E+02 0.  0.
         12    1    1    2    0    0 -0.93496840641E+01 -0.14462002729E+02 -0.39837886350E+02  0.43400729301E+02  0.00000000000E+00 0. -1.
         11    1    3    3    0    0  0.23324624555E+01  0.12546446215E+01 -0.12794226009E+01  0.29413324677E+01  0.51100000000E-03 0. -1.
        -11    1    3    3    0    0  0.39429795271E+01  0.12106316451E+02  0.21728573044E+02  0.25184139301E+02  0.51100000000E-03 0.  1.
        -12    1    3    3    0    0  0.30742420815E+01  0.11010416568E+01  0.19388735907E+02  0.19661798930E+02  0.00000000000E+00 0.  1.
</event>
<event>
 7    1  0.1736465E-010  0.4778727E+02  0.7816164E-02  0.1312668E+00
        -11   -1    0    0    0    0  0.00000000000E+00  0.00000000000E+00  0.45593999997E+02  0.45594000000E+02  0.51100000000E-03 0.  1.
         11   -1    0    0    0    0 -0.00000000000E+00 -0.00000000000E+00 -0.45593999997E+02  0.45594000000E+02  0.51100000000E-03 0. -1.
    9900012    2    1    2    0    0  0.40822742862E+02 -0.65761836696E+01  0.13186386150E+02  0.47787270673E+02  0.19999998305E+02 0.  0.
         12    1    1    2    0    0 -0.40822742862E+02  0.65761836696E+01 -0.13186386150E+02  0.43400729327E+02  0.00000000000E+00 0. -1.
         11    1    3    3    0    0  0.32293026780E+02 -0.61494501496E+01  0.74562106888E+01  0.33708313424E+02  0.51100000000E-03 0.  1.
        -11    1    3    3    0    0  0.79839970057E+01 -0.84103175456E+00  0.82239207067E+01  0.11492798382E+02  0.51100000000E-03 0. -1.
        -12    1    3    3    0    0  0.54571907594E+00  0.41429823448E+00 -0.24937452450E+01  0.25861588667E+01  0.00000000000E+00 0.  1.
</event>
<event>
 7    1  0.1736465E-010  0.4778727E+02  0.7816164E-02  0.1312668E+00
        -11   -1    0    0    0    0  0.00000000000E+00  0.00000000000E+00  0.45593999997E+02  0.45594000000E+02  0.51100000000E-03 0. -1.
         11   -1    0    0    0    0 -0.00000000000E+00 -0.00000000000E+00 -0.45593999997E+02  0.45594000000E+02  0.51100000000E-03 0.  1.
    9900012    2    1    2    0    0  0.31553530279E+02 -0.24281637391E+02  0.17274262225E+02  0.47787270480E+02  0.19999997428E+02 0.  0.
         12    1    1    2    0    0 -0.31553530279E+02  0.24281637391E+02 -0.17274262225E+02  0.43400729520E+02  0.00000000000E+00 0. -1.
         11    1    3    3    0    0  0.13030195905E+02 -0.29346610774E+01  0.97082663423E+01  0.16512076689E+02  0.51100000000E-03 0. -1.
        -11    1    3    3    0    0  0.76851188783E+01 -0.14305078749E+02  0.84769233935E+01  0.18318148396E+02  0.51100000000E-03 0.  1.
         12    1    3    3    0    0  0.10838215495E+02 -0.70418975642E+01 -0.91092751111E+00  0.12957045395E+02  0.00000000000E+00 0. -1.
</event>
<event>
 7    1  0.1736465E-010  0.4778726E+02  0.7816164E-02  0.1312668E+00
        -11   -1    0    0    0    0  0.00000000000E+00  0.00000000000E+00  0.45593999997E+02  0.45594000000E+02  0.51100000000E-03 0. -1.
         11   -1    0    0    0    0 -0.00000000000E+00 -0.00000000000E+00 -0.45593999997E+02  0.45594000000E+02  0.51100000000E-03 0.  1.
    9900012    2    1    2    0    0 -0.53147808290E+01  0.40898225700E+02 -0.13517108763E+02  0.47787262794E+02  0.19999962384E+02 0.  0.
         12    1    1    2    0    0  0.53147808290E+01 -0.40898225700E+02  0.13517108763E+02  0.43400737206E+02  0.00000000000E+00 0. -1.
         11    1    3    3    0    0 -0.86281058233E+00  0.41598519012E+01  0.80102538849E+00  0.43232455256E+01  0.51100000000E-03 0. -1.
        -11    1    3    3    0    0 -0.69190743388E+01  0.36890043172E+02 -0.15639396963E+02  0.40661279033E+02  0.51100000000E-03 0.  1.
        -12    1    3    3    0    0  0.24671040921E+01 -0.15166937322E+00  0.13212628117E+01  0.28027382357E+01  0.00000000000E+00 0.  1.
</event>
<event>
 7    1  0.1736465E-010  0.4778724E+02  0.7816164E-02  0.1312668E+00
        -11   -1    0    0    0    0  0.00000000000E+00  0.00000000000E+00  0.45593999997E+02  0.45594000000E+02  0.51100000000E-03 0. -1.
         11   -1    0    0    0    0 -0.00000000000E+00 -0.00000000000E+00 -0.45593999997E+02  0.45594000000E+02  0.51100000000E-03 0.  1.
    9900012    2    1    2    0    0 -0.19805873448E+02  0.30412831082E+02 -0.23799441395E+02  0.47787235858E+02  0.19999839568E+02 0.  0.
         12    1    1    2    0    0  0.19805873448E+02 -0.30412831082E+02  0.23799441395E+02  0.43400764142E+02  0.00000000000E+00 0. -1.
         11    1    3    3    0    0 -0.37024034882E+01  0.64965992647E+01 -0.11383776002E+02  0.13619983477E+02  0.51100000000E-03 0. -1.
        -11    1    3    3    0    0 -0.14051119966E+02  0.92556114031E+01 -0.46798054798E+01  0.17464274801E+02  0.51100000000E-03 0.  1.
         12    1    3    3    0    0 -0.20523499941E+01  0.14660620414E+02 -0.77358599128E+01  0.16702977579E+02  0.00000000000E+00 0. -1.
</event>
<event>
 7    1  0.1736465E-010  0.4778728E+02  0.7816164E-02  0.1312668E+00
        -11   -1    0    0    0    0  0.00000000000E+00  0.00000000000E+00  0.45593999997E+02  0.45594000000E+02  0.51100000000E-03 0.  1.
         11   -1    0    0    0    0 -0.00000000000E+00 -0.00000000000E+00 -0.45593999997E+02  0.45594000000E+02  0.51100000000E-03 0. -1.
    9900012    2    1    2    0    0  0.40717756099E+02  0.14785492364E+02 -0.26601581614E+01  0.47787275495E+02  0.20000020290E+02 0.  0.
         12    1    1    2    0    0 -0.40717756099E+02 -0.14785492364E+02  0.26601581614E+01  0.43400724505E+02  0.00000000000E+00 0. -1.
         11    1    3    3    0    0  0.13484979896E+01  0.40880946648E+00 -0.22196289004E+01  0.26291300318E+01  0.51100000000E-03 0. -1.
        -11    1    3    3    0    0  0.15989074305E+01  0.51744994906E+01  0.28932821339E+01  0.61402794494E+01  0.51100000000E-03 0.  1.
         12    1    3    3    0    0  0.37770350678E+02  0.92021834067E+01 -0.33338113950E+01  0.39017866013E+02  0.00000000000E+00 0. -1.
</event>
<event>
 7    1  0.1736465E-010  0.4778727E+02  0.7816164E-02  0.1312668E+00
        -11   -1    0    0    0    0  0.00000000000E+00  0.00000000000E+00  0.45593999997E+02  0.45594000000E+02  0.51100000000E-03 0.  1.
         11   -1    0    0    0    0 -0.00000000000E+00 -0.00000000000E+00 -0.45593999997E+02  0.45594000000E+02  0.51100000000E-03 0. -1.
    9900012    2    1    2    0    0  0.14509945037E+02  0.88851670864E+01  0.39926669489E+02  0.47787266877E+02  0.19999980998E+02 0.  0.
         12    1    1    2    0    0 -0.14509945037E+02 -0.88851670864E+01 -0.39926669489E+02  0.43400733123E+02  0.00000000000E+00 0. -1.
         11    1    3    3    0    0  0.36125251390E+01 -0.27758072552E+01  0.66960230784E+01  0.80988992540E+01  0.51100000000E-03 0. -1.
        -11    1    3    3    0    0  0.93296713538E+01 -0.46057683528E+00  0.12220541705E+02  0.15381694913E+02  0.51100000000E-03 0.  1.
        -12    1    3    3    0    0  0.15677485439E+01  0.12121551177E+02  0.21010104706E+02  0.24306672709E+02  0.00000000000E+00 0.  1.
</event>
<event>
 7    1  0.1736465E-010  0.4778724E+02  0.7816164E-02  0.1312668E+00
        -11   -1    0    0    0    0  0.00000000000E+00  0.00000000000E+00  0.45593999997E+02  0.45594000000E+02  0.51100000000E-03 0.  1.
         11   -1    0    0    0    0 -0.00000000000E+00 -0.00000000000E+00 -0.45593999997E+02  0.45594000000E+02  0.51100000000E-03 0. -1.
    9900012    2    1    2    0    0  0.42193214870E+01 -0.76150771005E+00  0.43188463833E+02  0.47787239914E+02  0.19999858063E+02 0.  0.
         12    1    1    2    0    0 -0.42193214870E+01  0.76150771005E+00 -0.43188463833E+02  0.43400760086E+02  0.00000000000E+00 0. -1.
         11    1    3    3    0    0  0.37443502962E+01 -0.14365849101E+01  0.47713440577E+01  0.62329495203E+01  0.51100000000E-03 0. -1.
        -11    1    3    3    0    0  0.33567641298E+00 -0.75080652567E+01  0.21152926293E+02  0.22448385545E+02  0.51100000000E-03 0.  1.
         12    1    3    3    0    0  0.13929477783E+00  0.81831424568E+01  0.17264193482E+02  0.19105904849E+02  0.00000000000E+00 0. -1.
</event>
<event>
 7    1  0.1736465E-010  0.4778728E+02  0.7816164E-02  0.1312668E+00
        -11   -1    0    0    0    0  0.00000000000E+00  0.00000000000E+00  0.45593999997E+02  0.45594000000E+02  0.51100000000E-03 0.  1.
         11   -1    0    0    0    0 -0.00000000000E+00 -0.00000000000E+00 -0.45593999997E+02  0.45594000000E+02  0.51100000000E-03 0. -1.
    9900012    2    1    2    0    0  0.25213825893E+02  0.28835863639E+02 -0.20405349590E+02  0.47787281805E+02  0.20000049060E+02 0.  0.
         12    1    1    2    0    0 -0.25213825893E+02 -0.28835863639E+02  0.20405349590E+02  0.43400718195E+02  0.00000000000E+00 0. -1.
         11    1    3    3    0    0  0.33607386204E+01  0.16985259210E+01  0.23132932115E+01  0.44193755354E+01  0.51100000000E-03 0. -1.
        -11    1    3    3    0    0  0.15726170049E+02  0.12182563255E+02 -0.17178110358E+02  0.26283354954E+02  0.51100000000E-03 0.  1.
         12    1    3    3    0    0  0.61269172238E+01  0.14954774463E+02 -0.55405324436E+01  0.17084551316E+02  0.00000000000E+00 0. -1.
</event>
<event>
 7    1  0.1736465E-010  0.4778727E+02  0.7816164E-02  0.1312668E+00
        -11   -1    0    0    0    0  0.00000000000E+00  0.00000000000E+00  0.45593999997E+02  0.45594000000E+02  0.51100000000E-03 0.  1.
         11   -1    0    0    0    0 -0.00000000000E+00 -0.00000000000E+00 -0.45593999997E+02  0.45594000000E+02  0.51100000000E-03 0. -1.
    9900012    2    1    2    0    0 -0.31646908049E+02 -0.18448084811E+02  0.23275839402E+02  0.47787270489E+02  0.19999997466E+02 0.  0.
         12    1    1    2    0    0  0.31646908049E+02  0.18448084811E+02 -0.23275839402E+02  0.43400729511E+02  0.00000000000E+00 0. -1.
         11    1    3    3    0    0 -0.93769434400E+01  0.74400354684E+00  0.10211407706E+01  0.94616773507E+01  0.51100000000E-03 0. -1.
        -11    1    3    3    0    0 -0.15315746118E+02 -0.77830267259E+01  0.16354042662E+02  0.23719238938E+02  0.51100000000E-03 0.  1.
         12    1    3    3    0    0 -0.69542184913E+01 -0.11409061632E+02  0.59006559701E+01  0.14606354200E+02  0.00000000000E+00 0. -1.
</event>
<event>
 7    1  0.1736465E-010  0.4778727E+02  0.7816164E-02  0.1312668E+00
        -11   -1    0    0    0    0  0.00000000000E+00  0.00000000000E+00  0.45593999997E+02  0.45594000000E+02  0.51100000000E-03 0. -1.
         11   -1    0    0    0    0 -0.00000000000E+00 -0.00000000000E+00 -0.45593999997E+02  0.45594000000E+02  0.51100000000E-03 0.  1.
    9900012    2    1    2    0    0  0.84168703073E+01 -0.27450678006E+02 -0.32545972492E+02  0.47787265511E+02  0.19999974771E+02 0.  0.
         12    1    1    2    0    0 -0.84168703073E+01  0.27450678006E+02  0.32545972492E+02  0.43400734489E+02  0.00000000000E+00 0. -1.
         11    1    3    3    0    0 -0.58035411742E+00  0.81827247257E+00  0.89349634039E+00  0.13433974514E+01  0.51100000000E-03 0. -1.
        -11    1    3    3    0    0  0.37842142437E+01 -0.10607636138E+02 -0.44699329404E+01  0.12117034399E+02  0.51100000000E-03 0.  1.
         12    1    3    3    0    0  0.52130101810E+01 -0.17661314340E+02 -0.28969535892E+02  0.34326833660E+02  0.00000000000E+00 0. -1.
</event>
<event>
 7    1  0.1736465E-010  0.4778727E+02  0.7816164E-02  0.1312668E+00
        -11   -1    0    0    0    0  0.00000000000E+00  0.00000000000E+00  0.45593999997E+02  0.45594000000E+02  0.51100000000E-03 0. -1.
         11   -1    0    0    0    0 -0.00000000000E+00 -0.00000000000E+00 -0.45593999997E+02  0.45594000000E+02  0.51100000000E-03 0.  1.
    9900012    2    1    2    0    0  0.59768829252E+01 -0.12370992167E+02 -0.41168663561E+02  0.47787269176E+02  0.19999991479E+02 0.  0.
         12    1    1    2    0    0 -0.59768829252E+01  0.12370992167E+02  0.41168663561E+02  0.43400730824E+02  0.00000000000E+00 0. -1.
         11    1    3    3    0    0  0.84366900294E+01 -0.36765303515E+01 -0.24623369369E+02  0.26286972694E+02  0.51100000000E-03 0. -1.
        -11    1    3    3    0    0 -0.73364356812E+00  0.21158412215E+01 -0.55489179999E+01  0.59837703991E+01  0.51100000000E-03 0.  1.
         12    1    3    3    0    0 -0.17261635361E+01 -0.10810303037E+02 -0.10996376192E+02  0.15516526082E+02  0.00000000000E+00 0. -1.
</event>
<event>
 7    1  0.1736465E-010  0.4778727E+02  0.7816164E-02  0.1312668E+00
        -11   -1    0    0    0    0  0.00000000000E+00  0.00000000000E+00  0.45593999997E+02  0.45594000000E+02  0.51100000000E-03 0.  1.
         11   -1    0    0    0    0 -0.00000000000E+00 -0.00000000000E+00 -0.45593999997E+02  0.45594000000E+02  0.51100000000E-03 0. -1.
    9900012    2    1    2    0    0 -0.10774226288E+02 -0.80265243926E+01  0.41268808698E+02  0.47787267088E+02  0.19999981961E+02 0.  0.
         12    1    1    2    0    0  0.10774226288E+02  0.80265243926E+01 -0.41268808698E+02  0.43400732912E+02  0.00000000000E+00 0. -1.
         11    1    3    3    0    0 -0.22191262470E+00 -0.88687856436E+01  0.25268589283E+02  0.26780705902E+02  0.51100000000E-03 0. -1.
        -11    1    3    3    0    0 -0.67700213791E+01 -0.35911808123E+01  0.76896775049E+01  0.10856376444E+02  0.51100000000E-03 0.  1.
         12    1    3    3    0    0 -0.37822922845E+01  0.44334420633E+01  0.83105419107E+01  0.10150184742E+02  0.00000000000E+00 0. -1.
</event>
<event>
 7    1  0.1736465E-010  0.4778727E+02  0.7816164E-02  0.1312668E+00
        -11   -1    0    0    0    0  0.00000000000E+00  0.00000000000E+00  0.45593999997E+02  0.45594000000E+02  0.51100000000E-03 0. -1.
         11   -1    0    0    0    0 -0.00000000000E+00 -0.00000000000E+00 -0.45593999997E+02  0.45594000000E+02  0.51100000000E-03 0.  1.
    9900012    2    1    2    0    0  0.11977136822E+02  0.16014714377E+02 -0.38518833644E+02  0.47787269265E+02  0.19999991888E+02 0.  0.
         12    1    1    2    0    0 -0.11977136822E+02 -0.16014714377E+02  0.38518833644E+02  0.43400730735E+02  0.00000000000E+00 0. -1.
         11    1    3    3    0    0 -0.21096549108E+01  0.42421542793E+00  0.12863106565E+01  0.25070297042E+01  0.51100000000E-03 0. -1.
        -11    1    3    3    0    0  0.49946406157E+01  0.82948428727E+01 -0.14723608477E+02  0.17622017479E+02  0.51100000000E-03 0.  1.
        -12    1    3    3    0    0  0.90921511171E+01  0.72956560765E+01 -0.25081535823E+02  0.27658222082E+02  0.00000000000E+00 0.  1.
</event>
<event>
 7    1  0.1736465E-010  0.4778727E+02  0.7816164E-02  0.1312668E+00
        -11   -1    0    0    0    0  0.00000000000E+00  0.00000000000E+00  0.45593999997E+02  0.45594000000E+02  0.51100000000E-03 0.  1.
         11   -1    0    0    0    0 -0.00000000000E+00 -0.00000000000E+00 -0.45593999997E+02  0.45594000000E+02  0.51100000000E-03 0. -1.
    9900012    2    1    2    0    0  0.41225093485E+02  0.12896976149E+02  0.42169998259E+01  0.47787269428E+02  0.19999992631E+02 0.  0.
         12    1    1    2    0    0 -0.41225093485E+02 -0.12896976149E+02 -0.42169998259E+01  0.43400730572E+02  0.00000000000E+00 0. -1.
         11    1    3    3    0    0  0.78100263332E+01  0.80579081771E+01  0.25711564396E-01  0.11221722544E+02  0.51100000000E-03 0. -1.
        -11    1    3    3    0    0  0.33466325363E+02  0.67049709638E+01  0.50639864150E+01  0.34505007283E+02  0.51100000000E-03 0.  1.
         12    1    3    3    0    0 -0.51258211610E-01 -0.18659029915E+01 -0.87269815353E+00  0.20605396004E+01  0.00000000000E+00 0. -1.
</event>
<event>
 7    1  0.1736465E-010  0.4778727E+02  0.7816164E-02  0.1312668E+00
        -11   -1    0    0    0    0  0.00000000000E+00  0.00000000000E+00  0.45593999997E+02  0.45594000000E+02  0.51100000000E-03 0.  1.
         11   -1    0    0    0    0 -0.00000000000E+00 -0.00000000000E+00 -0.45593999997E+02  0.45594000000E+02  0.51100000000E-03 0. -1.
    9900012    2    1    2    0    0  0.41103593350E+02 -0.13017739954E+02  0.49655202237E+01  0.47787270387E+02  0.19999997003E+02 0.  0.
         12    1    1    2    0    0 -0.41103593350E+02  0.13017739954E+02 -0.49655202237E+01  0.43400729613E+02  0.00000000000E+00 0. -1.
         11    1    3    3    0    0  0.10117347585E+02 -0.30311892805E+01  0.72533756610E+01  0.12812505194E+02  0.51100000000E-03 0. -1.
        -11    1    3    3    0    0  0.12472254726E+02  0.20052550791E+01 -0.26770585368E+01  0.12912971329E+02  0.51100000000E-03 0.  1.
        -12    1    3    3    0    0  0.18513991040E+02 -0.11991805753E+02  0.38920309947E+00  0.22061793864E+02  0.00000000000E+00 0.  1.
</event>
<event>
 7    1  0.1736465E-010  0.4778727E+02  0.7816164E-02  0.1312668E+00
        -11   -1    0    0    0    0  0.00000000000E+00  0.00000000000E+00  0.45593999997E+02  0.45594000000E+02  0.51100000000E-03 0.  1.
         11   -1    0    0    0    0 -0.00000000000E+00 -0.00000000000E+00 -0.45593999997E+02  0.45594000000E+02  0.51100000000E-03 0. -1.
    9900012    2    1    2    0    0  0.26304047933E+02  0.14397903064E+02  0.31375478799E+02  0.47787271663E+02  0.20000002821E+02 0.  0.
         12    1    1    2    0    0 -0.26304047933E+02 -0.14397903064E+02 -0.31375478799E+02  0.43400728337E+02  0.00000000000E+00 0. -1.
         11    1    3    3    0    0  0.99650759167E+01 -0.11002222950E+01  0.26814172474E+01  0.10378016469E+02  0.51100000000E-03 0. -1.
        -11    1    3    3    0    0  0.90245995889E+01  0.39416572998E+01  0.15769193879E+02  0.18591598529E+02  0.51100000000E-03 0.  1.
         12    1    3    3    0    0  0.73143724279E+01  0.11556468059E+02  0.12924867672E+02  0.18817656665E+02  0.00000000000E+00 0. -1.
</event>
<event>
 7    1  0.1736465E-010  0.4778729E+02  0.7816164E-02  0.1312668E+00
        -11   -1    0    0    0    0  0.00000000000E+00  0.00000000000E+00  0.45593999997E+02  0.45594000000E+02  0.51100000000E-03 0.  1.
         11   -1    0    0    0    0 -0.00000000000E+00 -0.00000000000E+00 -0.45593999997E+02  0.45594000000E+02  0.51100000000E-03 0. -1.
    9900012    2    1    2    0    0  0.38846435640E+01  0.39890031059E+02  0.16652829013E+02  0.47787288627E+02  0.20000080166E+02 0.  0.
         12    1    1    2    0    0 -0.38846435640E+01 -0.39890031059E+02 -0.16652829013E+02  0.43400711373E+02  0.00000000000E+00 0. -1.
         11    1    3    3    0    0 -0.24706502529E+01  0.55852425900E+01  0.17595198531E+01  0.63557027807E+01  0.51100000000E-03 0.  1.
        -11    1    3    3    0    0 -0.45781858218E+01  0.38508090897E+01  0.45614929940E+00  0.59997157023E+01  0.51100000000E-03 0. -1.
         12    1    3    3    0    0  0.10933479639E+02  0.30453979380E+02  0.14437159861E+02  0.35431870144E+02  0.00000000000E+00 0. -1.
</event>
<event>
 7    1  0.1736465E-010  0.4778727E+02  0.7816164E-02  0.1312668E+00
        -11   -1    0    0    0    0  0.00000000000E+00  0.00000000000E+00  0.45593999997E+02  0.45594000000E+02  0.51100000000E-03 0. -1.
         11   -1    0    0    0    0 -0.00000000000E+00 -0.00000000000E+00 -0.45593999997E+02  0.45594000000E+02  0.51100000000E-03 0.  1.
    9900012    2    1    2    0    0 -0.36307859134E+02  0.12297369053E+02 -0.20350367752E+02  0.47787269728E+02  0.19999993998E+02 0.  0.
         12    1    1    2    0    0  0.36307859134E+02 -0.12297369053E+02  0.20350367752E+02  0.43400730272E+02  0.00000000000E+00 0. -1.
         11    1    3    3    0    0 -0.62990424634E+01  0.21095240046E+01 -0.13185920095E+02  0.14764705094E+02  0.51100000000E-03 0. -1.
        -11    1    3    3    0    0 -0.10525752265E+02  0.66035939751E+01 -0.26968585748E+01  0.12715028925E+02  0.51100000000E-03 0.  1.
         12    1    3    3    0    0 -0.19483064405E+02  0.35842510734E+01 -0.44675890819E+01  0.20307535709E+02  0.00000000000E+00 0. -1.
</event>
<event>
 7    1  0.1736465E-010  0.4778725E+02  0.7816164E-02  0.1312668E+00
        -11   -1    0    0    0    0  0.00000000000E+00  0.00000000000E+00  0.45593999997E+02  0.45594000000E+02  0.51100000000E-03 0.  1.
         11   -1    0    0    0    0 -0.00000000000E+00 -0.00000000000E+00 -0.45593999997E+02  0.45594000000E+02  0.51100000000E-03 0. -1.
    9900012    2    1    2    0    0 -0.26978400105E+02 -0.28222210613E+02  0.18955152849E+02  0.47787250426E+02  0.19999905992E+02 0.  0.
         12    1    1    2    0    0  0.26978400105E+02  0.28222210613E+02 -0.18955152849E+02  0.43400749574E+02  0.00000000000E+00 0. -1.
         11    1    3    3    0    0 -0.91534270273E+01 -0.35114737702E+01 -0.10110340278E-01  0.98038654042E+01  0.51100000000E-03 0. -1.
        -11    1    3    3    0    0 -0.78023227165E+01 -0.71698791412E+01  0.13293391133E+02  0.16999931022E+02  0.51100000000E-03 0.  1.
         12    1    3    3    0    0 -0.10022650361E+02 -0.17540857701E+02  0.56718720562E+01  0.20983454000E+02  0.00000000000E+00 0. -1.
</event>
<event>
 7    1  0.1736465E-010  0.4778727E+02  0.7816164E-02  0.1312668E+00
        -11   -1    0    0    0    0  0.00000000000E+00  0.00000000000E+00  0.45593999997E+02  0.45594000000E+02  0.51100000000E-03 0.  1.
         11   -1    0    0    0    0 -0.00000000000E+00 -0.00000000000E+00 -0.45593999997E+02  0.45594000000E+02  0.51100000000E-03 0. -1.
    9900012    2    1    2    0    0 -0.28848137971E+02  0.27550393421E+02  0.17099238560E+02  0.47787271879E+02  0.20000003807E+02 0.  0.
         12    1    1    2    0    0  0.28848137971E+02 -0.27550393421E+02 -0.17099238560E+02  0.43400728121E+02  0.00000000000E+00 0. -1.
         11    1    3    3    0    0  0.89816842801E+00  0.29084486319E+00  0.33200787772E+01  0.34516982208E+01  0.51100000000E-03 0. -1.
        -11    1    3    3    0    0 -0.12844892586E+02  0.19945732979E+02  0.77944853881E+01  0.24971534441E+02  0.51100000000E-03 0.  1.
         12    1    3    3    0    0 -0.16901413813E+02  0.73138155788E+01  0.59846743949E+01  0.19364039217E+02  0.00000000000E+00 0. -1.
</event>
<event>
 7    1  0.1736465E-010  0.4778726E+02  0.7816164E-02  0.1312668E+00
        -11   -1    0    0    0    0  0.00000000000E+00  0.00000000000E+00  0.45593999997E+02  0.45594000000E+02  0.51100000000E-03 0. -1.
         11   -1    0    0    0    0 -0.00000000000E+00 -0.00000000000E+00 -0.45593999997E+02  0.45594000000E+02  0.51100000000E-03 0.  1.
    9900012    2    1    2    0    0  0.92493830729E+01 -0.40104281508E+02 -0.13773878668E+02  0.47787260190E+02  0.19999950510E+02 0.  0.
         12    1    1    2    0    0 -0.92493830729E+01  0.40104281508E+02  0.13773878668E+02  0.43400739810E+02  0.00000000000E+00 0. -1.
         11    1    3    3    0    0 -0.14074120474E+01 -0.65019127185E+01 -0.48961280679E+01  0.82600089582E+01  0.51100000000E-03 0. -1.
        -11    1    3    3    0    0  0.64913990949E+01 -0.18047871805E+02  0.31391767578E+01  0.19434978000E+02  0.51100000000E-03 0.  1.
        -12    1    3    3    0    0  0.41653960254E+01 -0.15554496985E+02 -0.12016927357E+02  0.20092273232E+02  0.00000000000E+00 0.  1.
</event>
<event>
 7    1  0.1736465E-010  0.4778728E+02  0.7816164E-02  0.1312668E+00
        -11   -1    0    0    0    0  0.00000000000E+00  0.00000000000E+00  0.45593999997E+02  0.45594000000E+02  0.51100000000E-03 0. -1.
         11   -1    0    0    0    0 -0.00000000000E+00 -0.00000000000E+00 -0.45593999997E+02  0.45594000000E+02  0.51100000000E-03 0.  1.
    9900012    2    1    2    0    0 -0.36430362526E+02 -0.21756014915E+02 -0.91174204611E+01  0.47787275874E+02  0.20000022020E+02 0.  0.
         12    1    1    2    0    0  0.36430362526E+02  0.21756014915E+02  0.91174204611E+01  0.43400724126E+02  0.00000000000E+00 0. -1.
         11    1    3    3    0    0 -0.94919621294E+01  0.10311641190E+01 -0.34581455691E+01  0.10154773042E+02  0.51100000000E-03 0. -1.
        -11    1    3    3    0    0 -0.55142612859E+01 -0.13042421899E+01 -0.45588569309E+01  0.72726406481E+01  0.51100000000E-03 0.  1.
        -12    1    3    3    0    0 -0.21424139111E+02 -0.21482936844E+02 -0.11004179611E+01  0.30359862183E+02  0.00000000000E+00 0.  1.
</event>
<event>
 7    1  0.1736465E-010  0.4778727E+02  0.7816164E-02  0.1312668E+00
        -11   -1    0    0    0    0  0.00000000000E+00  0.00000000000E+00  0.45593999997E+02  0.45594000000E+02  0.51100000000E-03 0.  1.
         11   -1    0    0    0    0 -0.00000000000E+00 -0.00000000000E+00 -0.45593999997E+02  0.45594000000E+02  0.51100000000E-03 0. -1.
    9900012    2    1    2    0    0  0.95923020468E+01 -0.29336871805E+02  0.30511621571E+02  0.47787270090E+02  0.19999995647E+02 0.  0.
         12    1    1    2    0    0 -0.95923020468E+01  0.29336871805E+02 -0.30511621571E+02  0.43400729910E+02  0.00000000000E+00 0. -1.
         11    1    3    3    0    0 -0.12132809614E+01 -0.19651946202E+00 -0.22331146463E+00  0.12492152983E+01  0.51100000000E-03 0. -1.
        -11    1    3    3    0    0  0.46786751341E+01 -0.15706619858E+01  0.19229843737E+00  0.49390240973E+01  0.51100000000E-03 0.  1.
        -12    1    3    3    0    0  0.61269078741E+01 -0.27569690357E+02  0.30542634598E+02  0.41599030694E+02  0.00000000000E+00 0.  1.
</event>
<event>
 7    1  0.1736465E-010  0.4778726E+02  0.7816164E-02  0.1312668E+00
        -11   -1    0    0    0    0  0.00000000000E+00  0.00000000000E+00  0.45593999997E+02  0.45594000000E+02  0.51100000000E-03 0. -1.
         11   -1    0    0    0    0 -0.00000000000E+00 -0.00000000000E+00 -0.45593999997E+02  0.45594000000E+02  0.51100000000E-03 0.  1.
    9900012    2    1    2    0    0 -0.11532338964E+01  0.41999383495E+02 -0.10878697408E+02  0.47787260148E+02  0.19999950320E+02 0.  0.
         12    1    1    2    0    0  0.11532338964E+01 -0.41999383495E+02  0.10878697408E+02  0.43400739852E+02  0.00000000000E+00 0. -1.
         11    1    3    3    0    0  0.55446733702E+01  0.83203792871E+01 -0.58273550859E+01  0.11572820824E+02  0.51100000000E-03 0. -1.
        -11    1    3    3    0    0 -0.16884395116E+00  0.24637624990E+02 -0.24269359162E+01  0.24757445176E+02  0.51100000000E-03 0.  1.
        -12    1    3    3    0    0 -0.65290633155E+01  0.90413792175E+01 -0.26244064054E+01  0.11456994148E+02  0.00000000000E+00 0.  1.
</event>
<event>
 7    1  0.1736465E-010  0.4778727E+02  0.7816164E-02  0.1312668E+00
        -11   -1    0    0    0    0  0.00000000000E+00  0.00000000000E+00  0.45593999997E+02  0.45594000000E+02  0.51100000000E-03 0.  1.
         11   -1    0    0    0    0 -0.00000000000E+00 -0.00000000000E+00 -0.45593999997E+02  0.45594000000E+02  0.51100000000E-03 0. -1.
    9900012    2    1    2    0    0 -0.31192415264E+02 -0.86157869643E+01  0.28921002853E+02  0.47787274649E+02  0.20000016433E+02 0.  0.
         12    1    1    2    0    0  0.31192415264E+02  0.86157869643E+01 -0.28921002853E+02  0.43400725351E+02  0.00000000000E+00 0. -1.
         11    1    3    3    0    0 -0.20113192747E+02 -0.52982559958E+01  0.75381188260E+01  0.22123184101E+02  0.51100000000E-03 0. -1.
        -11    1    3    3    0    0 -0.60106142354E+01 -0.58851449371E+01  0.11254543821E+02  0.14050877955E+02  0.51100000000E-03 0.  1.
        -12    1    3    3    0    0 -0.50686082814E+01  0.25676139685E+01  0.10128340206E+02  0.11613212593E+02  0.00000000000E+00 0.  1.
</event>
<event>
 7    1  0.1736465E-010  0.4778726E+02  0.7816164E-02  0.1312668E+00
        -11   -1    0    0    0    0  0.00000000000E+00  0.00000000000E+00  0.45593999997E+02  0.45594000000E+02  0.51100000000E-03 0. -1.
         11   -1    0    0    0    0 -0.00000000000E+00 -0.00000000000E+00 -0.45593999997E+02  0.45594000000E+02  0.51100000000E-03 0.  1.
    9900012    2    1    2    0    0 -0.24314277832E+02 -0.27734089685E+02 -0.22874880077E+02  0.47787262959E+02  0.19999963136E+02 0.  0.
         12    1    1    2    0    0  0.24314277832E+02  0.27734089685E+02  0.22874880077E+02  0.43400737041E+02  0.00000000000E+00 0. -1.
         11    1    3    3    0    0 -0.55474812358E+01  0.10136559321E+00 -0.32681986890E+01  0.64394057161E+01  0.51100000000E-03 0. -1.
        -11    1    3    3    0    0 -0.20880925010E+02 -0.24794949319E+02 -0.15890082806E+02  0.36101208745E+02  0.51100000000E-03 0.  1.
         12    1    3    3    0    0  0.21141284144E+01 -0.30405059590E+01 -0.37165985821E+01  0.52466484978E+01  0.00000000000E+00 0. -1.
</event>
<event>
 7    1  0.1736465E-010  0.4778726E+02  0.7816164E-02  0.1312668E+00
        -11   -1    0    0    0    0  0.00000000000E+00  0.00000000000E+00  0.45593999997E+02  0.45594000000E+02  0.51100000000E-03 0. -1.
         11   -1    0    0    0    0 -0.00000000000E+00 -0.00000000000E+00 -0.45593999997E+02  0.45594000000E+02  0.51100000000E-03 0.  1.
    9900012    2    1    2    0    0  0.36820594618E+02 -0.79085269654E+00 -0.22961754655E+02  0.47787264835E+02  0.19999971690E+02 0.  0.
         12    1    1    2    0    0 -0.36820594618E+02  0.79085269654E+00  0.22961754655E+02  0.43400735165E+02  0.00000000000E+00 0. -1.
         11    1    3    3    0    0  0.16719297397E+02  0.22710123081E+01 -0.14941207266E+02  0.22537348495E+02  0.51100000000E-03 0.  1.
        -11    1    3    3    0    0  0.26049879515E+01  0.33936497204E+01  0.12034588753E+01  0.44442248118E+01  0.51100000000E-03 0. -1.
         12    1    3    3    0    0  0.17496309270E+02 -0.64555147251E+01 -0.92240062643E+01  0.20805691529E+02  0.00000000000E+00 0. -1.
</event>
<event>
 7    1  0.1736465E-010  0.4778726E+02  0.7816164E-02  0.1312668E+00
        -11   -1    0    0    0    0  0.00000000000E+00  0.00000000000E+00  0.45593999997E+02  0.45594000000E+02  0.51100000000E-03 0.  1.
         11   -1    0    0    0    0 -0.00000000000E+00 -0.00000000000E+00 -0.45593999997E+02  0.45594000000E+02  0.51100000000E-03 0. -1.
    9900012    2    1    2    0    0  0.28345390702E+02 -0.30385344056E+02  0.12525718459E+02  0.47787263481E+02  0.19999965516E+02 0.  0.
         12    1    1    2    0    0 -0.28345390702E+02  0.30385344056E+02 -0.12525718459E+02  0.43400736519E+02  0.00000000000E+00 0. -1.
         11    1    3    3    0    0  0.70530028676E+01 -0.12591481356E+02  0.88119540288E+01  0.16909783743E+02  0.51100000000E-03 0. -1.
        -11    1    3    3    0    0  0.11723273521E+02 -0.17460745892E+02  0.33440581286E+01  0.21295434115E+02  0.51100000000E-03 0.  1.
        -12    1    3    3    0    0  0.95691143140E+01 -0.33311680879E+00  0.36970630205E+00  0.95820456226E+01  0.00000000000E+00 0.  1.
</event>
<event>
 7    1  0.1736465E-010  0.4778724E+02  0.7816164E-02  0.1312668E+00
        -11   -1    0    0    0    0  0.00000000000E+00  0.00000000000E+00  0.45593999997E+02  0.45594000000E+02  0.51100000000E-03 0.  1.
         11   -1    0    0    0    0 -0.00000000000E+00 -0.00000000000E+00 -0.45593999997E+02  0.45594000000E+02  0.51100000000E-03 0. -1.
    9900012    2    1    2    0    0  0.39865941806E+00  0.41631728981E+02  0.12258308151E+02  0.47787240721E+02  0.19999861745E+02 0.  0.
         12    1    1    2    0    0 -0.39865941806E+00 -0.41631728981E+02 -0.12258308151E+02  0.43400759279E+02  0.00000000000E+00 0. -1.
         11    1    3    3    0    0  0.11735839560E+01  0.17443517808E+00  0.36575453039E+01  0.38451742280E+01  0.51100000000E-03 0. -1.
        -11    1    3    3    0    0 -0.97322426165E+00  0.25468439128E+02  0.11024754019E+02  0.27769295247E+02  0.51100000000E-03 0.  1.
         12    1    3    3    0    0  0.19829972371E+00  0.15988854674E+02 -0.24239911720E+01  0.16172771246E+02  0.00000000000E+00 0. -1.
</event>
<event>
 7    1  0.1736465E-010  0.4778727E+02  0.7816164E-02  0.1312668E+00
        -11   -1    0    0    0    0  0.00000000000E+00  0.00000000000E+00  0.45593999997E+02  0.45594000000E+02  0.51100000000E-03 0.  1.
         11   -1    0    0    0    0 -0.00000000000E+00 -0.00000000000E+00 -0.45593999997E+02  0.45594000000E+02  0.51100000000E-03 0. -1.
    9900012    2    1    2    0    0  0.68780474940E+01  0.81989559742E+01  0.42060585869E+02  0.47787270743E+02  0.19999998625E+02 0.  0.
         12    1    1    2    0    0 -0.68780474940E+01 -0.81989559742E+01 -0.42060585869E+02  0.43400729257E+02  0.00000000000E+00 0. -1.
         11    1    3    3    0    0  0.24133057626E+01  0.47451266968E+01  0.13755752786E+02  0.14749949391E+02  0.51100000000E-03 0.  1.
        -11    1    3    3    0    0  0.22113904919E+01  0.72218461030E+01  0.27570023896E+02  0.28585862361E+02  0.51100000000E-03 0. -1.
         12    1    3    3    0    0  0.22533512394E+01 -0.37680168256E+01  0.73480918743E+00  0.44514589909E+01  0.00000000000E+00 0. -1.
</event>
<event>
 7    1  0.1736465E-010  0.4778727E+02  0.7816164E-02  0.1312668E+00
        -11   -1    0    0    0    0  0.00000000000E+00  0.00000000000E+00  0.45593999997E+02  0.45594000000E+02  0.51100000000E-03 0.  1.
         11   -1    0    0    0    0 -0.00000000000E+00 -0.00000000000E+00 -0.45593999997E+02  0.45594000000E+02  0.51100000000E-03 0. -1.
    9900012    2    1    2    0    0  0.23819985223E+02  0.26911626004E+02  0.24330968789E+02  0.47787270140E+02  0.19999995877E+02 0.  0.
         12    1    1    2    0    0 -0.23819985223E+02 -0.26911626004E+02 -0.24330968789E+02  0.43400729860E+02  0.00000000000E+00 0. -1.
         11    1    3    3    0    0  0.31512119247E+01  0.63751377347E+01 -0.43010007898E+00  0.71244300874E+01  0.51100000000E-03 0. -1.
        -11    1    3    3    0    0  0.21518118475E+02  0.21669104753E+02  0.24645223810E+02  0.39242407933E+02  0.51100000000E-03 0.  1.
        -12    1    3    3    0    0 -0.84934517709E+00 -0.11326164834E+01  0.11584505736E+00  0.14204321193E+01  0.00000000000E+00 0.  1.
</event>
<event>
 7    1  0.1736465E-010  0.4778730E+02  0.7816164E-02  0.1312668E+00
        -11   -1    0    0    0    0  0.00000000000E+00  0.00000000000E+00  0.45593999997E+02  0.45594000000E+02  0.51100000000E-03 0. -1.
         11   -1    0    0    0    0 -0.00000000000E+00 -0.00000000000E+00 -0.45593999997E+02  0.45594000000E+02  0.51100000000E-03 0.  1.
    9900012    2    1    2    0    0  0.12207005109E+02  0.39459098371E+02 -0.13326250510E+02  0.47787304491E+02  0.20000152497E+02 0.  0.
         12    1    1    2    0    0 -0.12207005109E+02 -0.39459098371E+02  0.13326250510E+02  0.43400695509E+02  0.00000000000E+00 0. -1.
         11    1    3    3    0    0 -0.21218485510E+01  0.80223650400E+01 -0.83672080947E+01  0.11784343582E+02  0.51100000000E-03 0. -1.
        -11    1    3    3    0    0  0.98891209410E+01  0.11304445683E+02 -0.27466399971E+01  0.15268570225E+02  0.51100000000E-03 0.  1.
        -12    1    3    3    0    0  0.44397327189E+01  0.20132287648E+02 -0.22124024182E+01  0.20734390684E+02  0.00000000000E+00 0.  1.
</event>
<event>
 7    1  0.1736465E-010  0.4778729E+02  0.7816164E-02  0.1312668E+00
        -11   -1    0    0    0    0  0.00000000000E+00  0.00000000000E+00  0.45593999997E+02  0.45594000000E+02  0.51100000000E-03 0.  1.
         11   -1    0    0    0    0 -0.00000000000E+00 -0.00000000000E+00 -0.45593999997E+02  0.45594000000E+02  0.51100000000E-03 0. -1.
    9900012    2    1    2    0    0  0.37463508918E+01 -0.40196045299E+02  0.15933130886E+02  0.47787287304E+02  0.20000074132E+02 0.  0.
         12    1    1    2    0    0 -0.37463508918E+01  0.40196045299E+02 -0.15933130886E+02  0.43400712696E+02  0.00000000000E+00 0. -1.
         11    1    3    3    0    0  0.67367880754E+00 -0.42139165114E+01 -0.21266801139E+01  0.47679874233E+01  0.51100000000E-03 0. -1.
        -11    1    3    3    0    0 -0.49576406141E+01 -0.24612489312E+02  0.12249987816E+02  0.27935909371E+02  0.51100000000E-03 0.  1.
        -12    1    3    3    0    0  0.80303126983E+01 -0.11369639476E+02  0.58098231838E+01  0.15083390510E+02  0.00000000000E+00 0.  1.
</event>
<event>
 7    1  0.1736465E-010  0.4778727E+02  0.7816164E-02  0.1312668E+00
        -11   -1    0    0    0    0  0.00000000000E+00  0.00000000000E+00  0.45593999997E+02  0.45594000000E+02  0.51100000000E-03 0. -1.
         11   -1    0    0    0    0 -0.00000000000E+00 -0.00000000000E+00 -0.45593999997E+02  0.45594000000E+02  0.51100000000E-03 0.  1.
    9900012    2    1    2    0    0  0.24973957661E+02 -0.34050684272E+02 -0.10023746432E+02  0.47787272435E+02  0.20000006340E+02 0.  0.
         12    1    1    2    0    0 -0.24973957661E+02  0.34050684272E+02  0.10023746432E+02  0.43400727565E+02  0.00000000000E+00 0. -1.
         11    1    3    3    0    0  0.33724430394E+01 -0.16961448072E+01  0.21958033351E+01  0.43671308440E+01  0.51100000000E-03 0. -1.
        -11    1    3    3    0    0  0.21943440189E+01 -0.14691301366E+01  0.29106140324E+01  0.39300335034E+01  0.51100000000E-03 0.  1.
        -12    1    3    3    0    0  0.19407170602E+02 -0.30885409328E+02 -0.15130163800E+02  0.39490108088E+02  0.00000000000E+00 0.  1.
</event>
<event>
 7    1  0.1736465E-010  0.4778727E+02  0.7816164E-02  0.1312668E+00
        -11   -1    0    0    0    0  0.00000000000E+00  0.00000000000E+00  0.45593999997E+02  0.45594000000E+02  0.51100000000E-03 0.  1.
         11   -1    0    0    0    0 -0.00000000000E+00 -0.00000000000E+00 -0.45593999997E+02  0.45594000000E+02  0.51100000000E-03 0. -1.
    9900012    2    1    2    0    0  0.37040593097E+02  0.14506224783E+02 -0.17354747871E+02  0.47787269959E+02  0.19999995050E+02 0.  0.
         12    1    1    2    0    0 -0.37040593097E+02 -0.14506224783E+02  0.17354747871E+02  0.43400730041E+02  0.00000000000E+00 0. -1.
         11    1    3    3    0    0 -0.40815289130E+00  0.35756523963E+01 -0.28750283624E+01  0.46062639077E+01  0.51100000000E-03 0. -1.
        -11    1    3    3    0    0  0.24580123707E+02  0.51288514398E+01 -0.14636812221E+02  0.29064133753E+02  0.51100000000E-03 0.  1.
         12    1    3    3    0    0  0.12868622282E+02  0.58017209465E+01  0.15709271224E+00  0.14116872298E+02  0.00000000000E+00 0. -1.
</event>
<event>
 7    1  0.1736465E-010  0.4778727E+02  0.7816164E-02  0.1312668E+00
        -11   -1    0    0    0    0  0.00000000000E+00  0.00000000000E+00  0.45593999997E+02  0.45594000000E+02  0.51100000000E-03 0. -1.
         11   -1    0    0    0    0 -0.00000000000E+00 -0.00000000000E+00 -0.45593999997E+02  0.45594000000E+02  0.51100000000E-03 0.  1.
    9900012    2    1    2    0    0 -0.31858002959E+02  0.86932424366E+00 -0.29460740936E+02  0.47787270356E+02  0.19999996859E+02 0.  0.
         12    1    1    2    0    0  0.31858002959E+02 -0.86932424366E+00  0.29460740936E+02  0.43400729644E+02  0.00000000000E+00 0. -1.
         11    1    3    3    0    0 -0.12265142478E+02  0.26480267974E+01 -0.14893362297E+02  0.19474547664E+02  0.51100000000E-03 0.  1.
        -11    1    3    3    0    0 -0.11383600323E+02 -0.39982340791E+01 -0.15627236914E+02  0.19742916854E+02  0.51100000000E-03 0. -1.
         12    1    3    3    0    0 -0.82092601583E+01  0.22195315254E+01  0.10598582757E+01  0.85698058381E+01  0.00000000000E+00 0. -1.
</event>
<event>
 7    1  0.1736465E-010  0.4778727E+02  0.7816164E-02  0.1312668E+00
        -11   -1    0    0    0    0  0.00000000000E+00  0.00000000000E+00  0.45593999997E+02  0.45594000000E+02  0.51100000000E-03 0.  1.
         11   -1    0    0    0    0 -0.00000000000E+00 -0.00000000000E+00 -0.45593999997E+02  0.45594000000E+02  0.51100000000E-03 0. -1.
    9900012    2    1    2    0    0  0.21526425282E+02  0.24760795335E+02 -0.28410193540E+02  0.47787273416E+02  0.20000010812E+02 0.  0.
         12    1    1    2    0    0 -0.21526425282E+02 -0.24760795335E+02  0.28410193540E+02  0.43400726584E+02  0.00000000000E+00 0. -1.
         11    1    3    3    0    0  0.18635505462E+02  0.73931969608E+01 -0.13296362991E+02  0.24056905332E+02  0.51100000000E-03 0. -1.
        -11    1    3    3    0    0  0.40158080032E+01  0.10260728457E+02 -0.10219455710E+02  0.15028191430E+02  0.51100000000E-03 0.  1.
         12    1    3    3    0    0 -0.11248881826E+01  0.71068699178E+01 -0.48943748390E+01  0.87021766539E+01  0.00000000000E+00 0. -1.
</event>
<event>
 7    1  0.1736465E-010  0.4778727E+02  0.7816164E-02  0.1312668E+00
        -11   -1    0    0    0    0  0.00000000000E+00  0.00000000000E+00  0.45593999997E+02  0.45594000000E+02  0.51100000000E-03 0.  1.
         11   -1    0    0    0    0 -0.00000000000E+00 -0.00000000000E+00 -0.45593999997E+02  0.45594000000E+02  0.51100000000E-03 0. -1.
    9900012    2    1    2    0    0 -0.23665680218E+00 -0.39469009276E+02  0.18048958655E+02  0.47787267193E+02  0.19999982439E+02 0.  0.
         12    1    1    2    0    0  0.23665680218E+00  0.39469009276E+02 -0.18048958655E+02  0.43400732807E+02  0.00000000000E+00 0. -1.
         11    1    3    3    0    0  0.84765419739E+01 -0.18911131841E+02  0.69515650265E+01  0.21858795207E+02  0.51100000000E-03 0. -1.
        -11    1    3    3    0    0 -0.55093338807E+01 -0.60814427258E+01  0.17171088234E+01  0.83836250160E+01  0.51100000000E-03 0.  1.
        -12    1    3    3    0    0 -0.32038648953E+01 -0.14476434709E+02  0.93802848049E+01  0.17544846969E+02  0.00000000000E+00 0.  1.
</event>
<event>
 7    1  0.1736465E-010  0.4778727E+02  0.7816164E-02  0.1312668E+00
        -11   -1    0    0    0    0  0.00000000000E+00  0.00000000000E+00  0.45593999997E+02  0.45594000000E+02  0.51100000000E-03 0.  1.
         11   -1    0    0    0    0 -0.00000000000E+00 -0.00000000000E+00 -0.45593999997E+02  0.45594000000E+02  0.51100000000E-03 0. -1.
    9900012    2    1    2    0    0  0.66623477750E+01 -0.37952180277E+02 -0.19971693681E+02  0.47787269429E+02  0.19999992635E+02 0.  0.
         12    1    1    2    0    0 -0.66623477750E+01  0.37952180277E+02  0.19971693681E+02  0.43400730571E+02  0.00000000000E+00 0. -1.
         11    1    3    3    0    0  0.59757419572E+01 -0.10810230457E+02 -0.12572177042E+02  0.17624704545E+02  0.51100000000E-03 0. -1.
        -11    1    3    3    0    0 -0.12114317553E+01 -0.16562042809E+01  0.20639001863E+01  0.29103717559E+01  0.51100000000E-03 0.  1.
         12    1    3    3    0    0  0.18980375731E+01 -0.25485745538E+02 -0.94634168252E+01  0.27252193128E+02  0.00000000000E+00 0. -1.
</event>
<event>
 7    1  0.1736465E-010  0.4778727E+02  0.7816164E-02  0.1312668E+00
        -11   -1    0    0    0    0  0.00000000000E+00  0.00000000000E+00  0.45593999997E+02  0.45594000000E+02  0.51100000000E-03 0. -1.
         11   -1    0    0    0    0 -0.00000000000E+00 -0.00000000000E+00 -0.45593999997E+02  0.45594000000E+02  0.51100000000E-03 0.  1.
    9900012    2    1    2    0    0 -0.35681399625E+02  0.23610851437E+02 -0.72793327940E+01  0.47787271081E+02  0.20000000165E+02 0.  0.
         12    1    1    2    0    0  0.35681399625E+02 -0.23610851437E+02  0.72793327940E+01  0.43400728919E+02  0.00000000000E+00 0. -1.
         11    1    3    3    0    0 -0.16056173288E+02  0.65698494486E+01 -0.55295828403E+01  0.18208237397E+02  0.51100000000E-03 0. -1.
        -11    1    3    3    0    0 -0.11787479292E+02  0.11685203433E+02  0.56602883385E+01  0.17536462347E+02  0.51100000000E-03 0.  1.
         12    1    3    3    0    0 -0.78377470451E+01  0.53557985558E+01 -0.74100382922E+01  0.12042571337E+02  0.00000000000E+00 0. -1.
</event>
<event>
 7    1  0.1736465E-010  0.4778726E+02  0.7816164E-02  0.1312668E+00
        -11   -1    0    0    0    0  0.00000000000E+00  0.00000000000E+00  0.45593999997E+02  0.45594000000E+02  0.51100000000E-03 0. -1.
         11   -1    0    0    0    0 -0.00000000000E+00 -0.00000000000E+00 -0.45593999997E+02  0.45594000000E+02  0.51100000000E-03 0.  1.
    9900012    2    1    2    0    0  0.16810613351E+02  0.17189681613E+02 -0.36132284956E+02  0.47787263932E+02  0.19999967570E+02 0.  0.
         12    1    1    2    0    0 -0.16810613351E+02 -0.17189681613E+02  0.36132284956E+02  0.43400736068E+02  0.00000000000E+00 0. -1.
         11    1    3    3    0    0  0.58445985632E+01 -0.17288296172E+01 -0.13304062014E+02  0.14633736726E+02  0.51100000000E-03 0. -1.
        -11    1    3    3    0    0  0.11399783141E+02  0.10450416845E+02 -0.16148001692E+02  0.22358985371E+02  0.51100000000E-03 0.  1.
         12    1    3    3    0    0 -0.43376835357E+00  0.84680943850E+01 -0.66802212488E+01  0.10794541835E+02  0.00000000000E+00 0. -1.
</event>
<event>
 7    1  0.1736465E-010  0.4778728E+02  0.7816164E-02  0.1312668E+00
        -11   -1    0    0    0    0  0.00000000000E+00  0.00000000000E+00  0.45593999997E+02  0.45594000000E+02  0.51100000000E-03 0.  1.
         11   -1    0    0    0    0 -0.00000000000E+00 -0.00000000000E+00 -0.45593999997E+02  0.45594000000E+02  0.51100000000E-03 0. -1.
    9900012    2    1    2    0    0  0.32515573803E+02 -0.12210955596E+02  0.26024067873E+02  0.47787284742E+02  0.20000062451E+02 0.  0.
         12    1    1    2    0    0 -0.32515573803E+02  0.12210955596E+02 -0.26024067873E+02  0.43400715258E+02  0.00000000000E+00 0. -1.
         11    1    3    3    0    0 -0.68294474919E+00 -0.30177446991E+01  0.48633014818E+01  0.57641042811E+01  0.51100000000E-03 0. -1.
        -11    1    3    3    0    0  0.17009298452E+02 -0.61629778159E+01  0.46010658188E+01  0.18667306617E+02  0.51100000000E-03 0.  1.
         12    1    3    3    0    0  0.16189220100E+02 -0.30302330813E+01  0.16559700572E+02  0.23355873844E+02  0.00000000000E+00 0. -1.
</event>
<event>
 7    1  0.1736465E-010  0.4778727E+02  0.7816164E-02  0.1312668E+00
        -11   -1    0    0    0    0  0.00000000000E+00  0.00000000000E+00  0.45593999997E+02  0.45594000000E+02  0.51100000000E-03 0. -1.
         11   -1    0    0    0    0 -0.00000000000E+00 -0.00000000000E+00 -0.45593999997E+02  0.45594000000E+02  0.51100000000E-03 0.  1.
    9900012    2    1    2    0    0  0.38912829438E+02 -0.16427405944E+02  0.99777280811E+01  0.47787273986E+02  0.20000013410E+02 0.  0.
         12    1    1    2    0    0 -0.38912829438E+02  0.16427405944E+02 -0.99777280811E+01  0.43400726014E+02  0.00000000000E+00 0. -1.
         11    1    3    3    0    0  0.45026702897E+01 -0.38241199368E+01  0.64595724297E+01  0.87535141094E+01  0.51100000000E-03 0. -1.
        -11    1    3    3    0    0  0.24842201705E+02 -0.40715431863E+01  0.62246124223E+01  0.25931799967E+02  0.51100000000E-03 0.  1.
         12    1    3    3    0    0  0.95679574432E+01 -0.85317428211E+01 -0.27064567709E+01  0.13101959909E+02  0.00000000000E+00 0. -1.
</event>
<event>
 7    1  0.1736465E-010  0.4778730E+02  0.7816164E-02  0.1312668E+00
        -11   -1    0    0    0    0  0.00000000000E+00  0.00000000000E+00  0.45593999997E+02  0.45594000000E+02  0.51100000000E-03 0.  1.
         11   -1    0    0    0    0 -0.00000000000E+00 -0.00000000000E+00 -0.45593999997E+02  0.45594000000E+02  0.51100000000E-03 0. -1.
    9900012    2    1    2    0    0 -0.42930764015E+01 -0.80162980702E+01  0.42437352422E+02  0.47787303918E+02  0.20000149885E+02 0.  0.
         12    1    1    2    0    0  0.42930764015E+01  0.80162980702E+01 -0.42437352422E+02  0.43400696082E+02  0.00000000000E+00 0. -1.
         11    1    3    3    0    0 -0.32559762914E+01 -0.27250266413E+01  0.34029233445E+01  0.54412350947E+01  0.51100000000E-03 0. -1.
        -11    1    3    3    0    0  0.12300796291E+00  0.16012793512E+01  0.33207401740E+02  0.33246214177E+02  0.51100000000E-03 0.  1.
        -12    1    3    3    0    0 -0.11601080730E+01 -0.68925507801E+01  0.58270273383E+01  0.90998546471E+01  0.00000000000E+00 0.  1.
</event>
<event>
 7    1  0.1736465E-010  0.4778728E+02  0.7816164E-02  0.1312668E+00
        -11   -1    0    0    0    0  0.00000000000E+00  0.00000000000E+00  0.45593999997E+02  0.45594000000E+02  0.51100000000E-03 0. -1.
         11   -1    0    0    0    0 -0.00000000000E+00 -0.00000000000E+00 -0.45593999997E+02  0.45594000000E+02  0.51100000000E-03 0.  1.
    9900012    2    1    2    0    0  0.67374380316E+01 -0.35153786126E+02 -0.24544672549E+02  0.47787277647E+02  0.20000030102E+02 0.  0.
         12    1    1    2    0    0 -0.67374380316E+01  0.35153786126E+02  0.24544672549E+02  0.43400722353E+02  0.00000000000E+00 0. -1.
         11    1    3    3    0    0  0.19741611138E+01 -0.78653073590E+00  0.82035662306E+00  0.22779218494E+01  0.51100000000E-03 0. -1.
        -11    1    3    3    0    0  0.88326425714E+01 -0.13621079709E+02 -0.77408720651E+01  0.17985285314E+02  0.51100000000E-03 0.  1.
         12    1    3    3    0    0 -0.40693656536E+01 -0.20746175682E+02 -0.17624157107E+02  0.27524070483E+02  0.00000000000E+00 0. -1.
</event>
<event>
 7    1  0.1736465E-010  0.4778727E+02  0.7816164E-02  0.1312668E+00
        -11   -1    0    0    0    0  0.00000000000E+00  0.00000000000E+00  0.45593999997E+02  0.45594000000E+02  0.51100000000E-03 0.  1.
         11   -1    0    0    0    0 -0.00000000000E+00 -0.00000000000E+00 -0.45593999997E+02  0.45594000000E+02  0.51100000000E-03 0. -1.
    9900012    2    1    2    0    0 -0.32803475473E+01 -0.25096668346E+02  0.35256481888E+02  0.47787274693E+02  0.20000016634E+02 0.  0.
         12    1    1    2    0    0  0.32803475473E+01  0.25096668346E+02 -0.35256481888E+02  0.43400725307E+02  0.00000000000E+00 0. -1.
         11    1    3    3    0    0  0.52911825017E+00 -0.17888531681E+02  0.10503597935E+02  0.20751026521E+02  0.51100000000E-03 0. -1.
        -11    1    3    3    0    0 -0.19193603980E+01 -0.71165405935E+01  0.11570960937E+02  0.13719192090E+02  0.51100000000E-03 0.  1.
        -12    1    3    3    0    0 -0.18901053994E+01 -0.91596071007E-01  0.13181923017E+02  0.13317056082E+02  0.00000000000E+00 0.  1.
</event>
<event>
 7    1  0.1736465E-010  0.4778728E+02  0.7816164E-02  0.1312668E+00
        -11   -1    0    0    0    0  0.00000000000E+00  0.00000000000E+00  0.45593999997E+02  0.45594000000E+02  0.51100000000E-03 0.  1.
         11   -1    0    0    0    0 -0.00000000000E+00 -0.00000000000E+00 -0.45593999997E+02  0.45594000000E+02  0.51100000000E-03 0. -1.
    9900012    2    1    2    0    0 -0.13560989159E+02 -0.70530514534E+01  0.40619904598E+02  0.47787278677E+02  0.20000034802E+02 0.  0.
         12    1    1    2    0    0  0.13560989159E+02  0.70530514534E+01 -0.40619904598E+02  0.43400721323E+02  0.00000000000E+00 0. -1.
         11    1    3    3    0    0 -0.27067388067E+01 -0.55930678642E+00  0.15126994162E+02  0.15377425392E+02  0.51100000000E-03 0.  1.
        -11    1    3    3    0    0 -0.94842498246E+01 -0.21072342863E+01  0.41277042045E+01  0.10556011242E+02  0.51100000000E-03 0. -1.
         12    1    3    3    0    0 -0.13700005276E+01 -0.43865103806E+01  0.21365206231E+02  0.21853842044E+02  0.00000000000E+00 0. -1.
</event>
<event>
 7    1  0.1736465E-010  0.4778728E+02  0.7816164E-02  0.1312668E+00
        -11   -1    0    0    0    0  0.00000000000E+00  0.00000000000E+00  0.45593999997E+02  0.45594000000E+02  0.51100000000E-03 0.  1.
         11   -1    0    0    0    0 -0.00000000000E+00 -0.00000000000E+00 -0.45593999997E+02  0.45594000000E+02  0.51100000000E-03 0. -1.
    9900012    2    1    2    0    0  0.28340403305E+02 -0.14267498031E+02  0.29612200887E+02  0.47787281101E+02  0.20000045853E+02 0.  0.
         12    1    1    2    0    0 -0.28340403305E+02  0.14267498031E+02 -0.29612200887E+02  0.43400718899E+02  0.00000000000E+00 0. -1.
         11    1    3    3    0    0  0.26530622424E+01  0.38727915729E+01  0.34589539921E+01  0.58310905335E+01  0.51100000000E-03 0. -1.
        -11    1    3    3    0    0  0.16215406194E+02 -0.62044693145E+01  0.11563965357E+02  0.20860492145E+02  0.51100000000E-03 0.  1.
        -12    1    3    3    0    0  0.94719348691E+01 -0.11935820290E+02  0.14589281538E+02  0.21095698423E+02  0.00000000000E+00 0.  1.
</event>
<event>
 7    1  0.1736465E-010  0.4778727E+02  0.7816164E-02  0.1312668E+00
        -11   -1    0    0    0    0  0.00000000000E+00  0.00000000000E+00  0.45593999997E+02  0.45594000000E+02  0.51100000000E-03 0.  1.
         11   -1    0    0    0    0 -0.00000000000E+00 -0.00000000000E+00 -0.45593999997E+02  0.45594000000E+02  0.51100000000E-03 0. -1.
    9900012    2    1    2    0    0 -0.19772222063E+02  0.40518896857E+01  0.38422187353E+02  0.47787273551E+02  0.20000011428E+02 0.  0.
         12    1    1    2    0    0  0.19772222063E+02 -0.40518896857E+01 -0.38422187353E+02  0.43400726449E+02  0.00000000000E+00 0. -1.
         11    1    3    3    0    0  0.29599503460E+00  0.45157128205E+01  0.16359903621E+01  0.48120411535E+01  0.51100000000E-03 0. -1.
        -11    1    3    3    0    0 -0.10125071738E+02 -0.14973054552E+01  0.96928849211E+01  0.14096489622E+02  0.51100000000E-03 0.  1.
         12    1    3    3    0    0 -0.99431453597E+01  0.10334823204E+01  0.27093312070E+02  0.28878742775E+02  0.00000000000E+00 0. -1.
</event>
<event>
 7    1  0.1736465E-010  0.4778728E+02  0.7816164E-02  0.1312668E+00
        -11   -1    0    0    0    0  0.00000000000E+00  0.00000000000E+00  0.45593999997E+02  0.45594000000E+02  0.51100000000E-03 0.  1.
         11   -1    0    0    0    0 -0.00000000000E+00 -0.00000000000E+00 -0.45593999997E+02  0.45594000000E+02  0.51100000000E-03 0. -1.
    9900012    2    1    2    0    0  0.36992951896E+02  0.58382966362E+01 -0.21933049219E+02  0.47787275978E+02  0.20000022495E+02 0.  0.
         12    1    1    2    0    0 -0.36992951896E+02 -0.58382966362E+01  0.21933049219E+02  0.43400724022E+02  0.00000000000E+00 0. -1.
         11    1    3    3    0    0  0.15960007065E+02  0.69206395911E+01 -0.59708303808E+01  0.18392060612E+02  0.51100000000E-03 0. -1.
        -11    1    3    3    0    0  0.20172481054E+02 -0.31050707374E+01 -0.93925116937E+01  0.22467526173E+02  0.51100000000E-03 0.  1.
         12    1    3    3    0    0  0.86046377672E+00  0.20227277824E+01 -0.65697071443E+01  0.69276891930E+01  0.00000000000E+00 0. -1.
</event>
<event>
 7    1  0.1736465E-010  0.4778727E+02  0.7816164E-02  0.1312668E+00
        -11   -1    0    0    0    0  0.00000000000E+00  0.00000000000E+00  0.45593999997E+02  0.45594000000E+02  0.51100000000E-03 0.  1.
         11   -1    0    0    0    0 -0.00000000000E+00 -0.00000000000E+00 -0.45593999997E+02  0.45594000000E+02  0.51100000000E-03 0. -1.
    9900012    2    1    2    0    0 -0.18293520148E+02 -0.15344178638E+01  0.39327037944E+02  0.47787271539E+02  0.20000002253E+02 0.  0.
         12    1    1    2    0    0  0.18293520148E+02  0.15344178638E+01 -0.39327037944E+02  0.43400728461E+02  0.00000000000E+00 0. -1.
         11    1    3    3    0    0 -0.68648960667E+01 -0.79794512445E+01  0.94922328946E+01  0.14173952369E+02  0.51100000000E-03 0. -1.
        -11    1    3    3    0    0 -0.51999430619E+01  0.10530856905E+00  0.18456782209E+02  0.19175591451E+02  0.51100000000E-03 0.  1.
         12    1    3    3    0    0 -0.62286810189E+01  0.63397248116E+01  0.11378022840E+02  0.14437727719E+02  0.00000000000E+00 0. -1.
</event>
<event>
 7    1  0.1736465E-010  0.4778727E+02  0.7816164E-02  0.1312668E+00
        -11   -1    0    0    0    0  0.00000000000E+00  0.00000000000E+00  0.45593999997E+02  0.45594000000E+02  0.51100000000E-03 0.  1.
         11   -1    0    0    0    0 -0.00000000000E+00 -0.00000000000E+00 -0.45593999997E+02  0.45594000000E+02  0.51100000000E-03 0. -1.
    9900012    2    1    2    0    0 -0.22450968168E+02  0.89949304023E+01  0.36037044401E+02  0.47787270585E+02  0.19999997903E+02 0.  0.
         12    1    1    2    0    0  0.22450968168E+02 -0.89949304023E+01 -0.36037044401E+02  0.43400729415E+02  0.00000000000E+00 0. -1.
         11    1    3    3    0    0  0.21638651549E+01 -0.69845690933E+00  0.13994628748E+01  0.26699533820E+01  0.51100000000E-03 0. -1.
        -11    1    3    3    0    0 -0.11940223626E+02 -0.10080730923E+01  0.11189182856E+02  0.16394601699E+02  0.51100000000E-03 0.  1.
        -12    1    3    3    0    0 -0.12674609697E+02  0.10701460404E+02  0.23448398670E+02  0.28722715504E+02  0.00000000000E+00 0.  1.
</event>
<event>
 7    1  0.1736465E-010  0.4778727E+02  0.7816164E-02  0.1312668E+00
        -11   -1    0    0    0    0  0.00000000000E+00  0.00000000000E+00  0.45593999997E+02  0.45594000000E+02  0.51100000000E-03 0.  1.
         11   -1    0    0    0    0 -0.00000000000E+00 -0.00000000000E+00 -0.45593999997E+02  0.45594000000E+02  0.51100000000E-03 0. -1.
    9900012    2    1    2    0    0  0.29023310724E+02 -0.12852548997E+01  0.32243127456E+02  0.47787265978E+02  0.19999976899E+02 0.  0.
         12    1    1    2    0    0 -0.29023310724E+02  0.12852548997E+01 -0.32243127456E+02  0.43400734022E+02  0.00000000000E+00 0. -1.
         11    1    3    3    0    0  0.22134316947E+02 -0.78486196282E+00  0.17761828578E+02  0.28390606716E+02  0.51100000000E-03 0. -1.
        -11    1    3    3    0    0  0.74559001039E+01 -0.21271351833E+01  0.39055096520E+01  0.86814835339E+01  0.51100000000E-03 0.  1.
         12    1    3    3    0    0 -0.56690632728E+00  0.16267422465E+01  0.10575789226E+02  0.10715175728E+02  0.00000000000E+00 0. -1.
</event>
<event>
 7    1  0.1736465E-010  0.4778728E+02  0.7816164E-02  0.1312668E+00
        -11   -1    0    0    0    0  0.00000000000E+00  0.00000000000E+00  0.45593999997E+02  0.45594000000E+02  0.51100000000E-03 0. -1.
         11   -1    0    0    0    0 -0.00000000000E+00 -0.00000000000E+00 -0.45593999997E+02  0.45594000000E+02  0.51100000000E-03 0.  1.
    9900012    2    1    2    0    0  0.22489574783E+02  0.35276783461E+02  0.11549477442E+02  0.47787275876E+02  0.20000022029E+02 0.  0.
         12    1    1    2    0    0 -0.22489574783E+02 -0.35276783461E+02 -0.11549477442E+02  0.43400724124E+02  0.00000000000E+00 0. -1.
         11    1    3    3    0    0  0.15682910390E+02  0.14216320222E+02  0.11100858903E+02  0.23901600523E+02  0.51100000000E-03 0. -1.
        -11    1    3    3    0    0  0.70979371938E+01  0.85063585554E+01 -0.14932429417E+01  0.11178936578E+02  0.51100000000E-03 0.  1.
        -12    1    3    3    0    0 -0.29127279982E+00  0.12554104684E+02  0.19418614805E+01  0.12706738774E+02  0.00000000000E+00 0.  1.
</event>
<event>
 7    1  0.1736465E-010  0.4778729E+02  0.7816164E-02  0.1312668E+00
        -11   -1    0    0    0    0  0.00000000000E+00  0.00000000000E+00  0.45593999997E+02  0.45594000000E+02  0.51100000000E-03 0.  1.
         11   -1    0    0    0    0 -0.00000000000E+00 -0.00000000000E+00 -0.45593999997E+02  0.45594000000E+02  0.51100000000E-03 0. -1.
    9900012    2    1    2    0    0  0.32696625072E+02 -0.27806455210E+02  0.64306706440E+01  0.47787288400E+02  0.20000079132E+02 0.  0.
         12    1    1    2    0    0 -0.32696625072E+02  0.27806455210E+02 -0.64306706440E+01  0.43400711600E+02  0.00000000000E+00 0. -1.
         11    1    3    3    0    0  0.13525967313E+02 -0.17407398711E+01 -0.28335135095E+01  0.13928774753E+02  0.51100000000E-03 0. -1.
        -11    1    3    3    0    0  0.97762761207E+01 -0.12207979651E+02  0.26776567126E+01  0.15867582919E+02  0.51100000000E-03 0.  1.
        -12    1    3    3    0    0  0.93943816382E+01 -0.13857735687E+02  0.65865274409E+01  0.17990930728E+02  0.00000000000E+00 0.  1.
</event>
<event>
 7    1  0.1736465E-010  0.4778727E+02  0.7816164E-02  0.1312668E+00
        -11   -1    0    0    0    0  0.00000000000E+00  0.00000000000E+00  0.45593999997E+02  0.45594000000E+02  0.51100000000E-03 0. -1.
         11   -1    0    0    0    0 -0.00000000000E+00 -0.00000000000E+00 -0.45593999997E+02  0.45594000000E+02  0.51100000000E-03 0.  1.
    9900012    2    1    2    0    0  0.57183646489E+01  0.38512803506E+02 -0.19175172497E+02  0.47787274564E+02  0.20000016045E+02 0.  0.
         12    1    1    2    0    0 -0.57183646489E+01 -0.38512803506E+02  0.19175172497E+02  0.43400725436E+02  0.00000000000E+00 0. -1.
         11    1    3    3    0    0 -0.55400350423E+01  0.10167367203E+02 -0.80516157527E+00  0.11606706231E+02  0.51100000000E-03 0. -1.
        -11    1    3    3    0    0  0.64575258122E+01  0.16271443804E+02 -0.67929264558E+01  0.18777736104E+02  0.51100000000E-03 0.  1.
        -12    1    3    3    0    0  0.48008738791E+01  0.12073992498E+02 -0.11577084466E+02  0.17402832228E+02  0.00000000000E+00 0.  1.
</event>
<event>
 7    1  0.1736465E-010  0.4778727E+02  0.7816164E-02  0.1312668E+00
        -11   -1    0    0    0    0  0.00000000000E+00  0.00000000000E+00  0.45593999997E+02  0.45594000000E+02  0.51100000000E-03 0.  1.
         11   -1    0    0    0    0 -0.00000000000E+00 -0.00000000000E+00 -0.45593999997E+02  0.45594000000E+02  0.51100000000E-03 0. -1.
    9900012    2    1    2    0    0 -0.24810657537E+02 -0.35021896906E+02  0.64437065945E+01  0.47787270226E+02  0.19999996267E+02 0.  0.
         12    1    1    2    0    0  0.24810657537E+02  0.35021896906E+02 -0.64437065945E+01  0.43400729774E+02  0.00000000000E+00 0. -1.
         11    1    3    3    0    0 -0.13236311474E+02 -0.14468736152E+02  0.95955484026E+01  0.21831601331E+02  0.51100000000E-03 0. -1.
        -11    1    3    3    0    0 -0.82198492921E+01 -0.48627449576E+01 -0.26135057983E+01  0.99016475259E+01  0.51100000000E-03 0.  1.
         12    1    3    3    0    0 -0.33544967703E+01 -0.15690415796E+02 -0.53833600976E+00  0.16054021369E+02  0.00000000000E+00 0. -1.
</event>
<event>
 7    1  0.1736465E-010  0.4778727E+02  0.7816164E-02  0.1312668E+00
        -11   -1    0    0    0    0  0.00000000000E+00  0.00000000000E+00  0.45593999997E+02  0.45594000000E+02  0.51100000000E-03 0.  1.
         11   -1    0    0    0    0 -0.00000000000E+00 -0.00000000000E+00 -0.45593999997E+02  0.45594000000E+02  0.51100000000E-03 0. -1.
    9900012    2    1    2    0    0  0.11944406423E+02 -0.23339814993E+02  0.34586229439E+02  0.47787273330E+02  0.20000010420E+02 0.  0.
         12    1    1    2    0    0 -0.11944406423E+02  0.23339814993E+02 -0.34586229439E+02  0.43400726670E+02  0.00000000000E+00 0. -1.
         11    1    3    3    0    0  0.57879484523E+01 -0.75596630249E+00  0.44222599757E+01  0.73231288320E+01  0.51100000000E-03 0. -1.
        -11    1    3    3    0    0 -0.19229681249E+01 -0.10556040104E+01 -0.38612273233E+00  0.22273745221E+01  0.51100000000E-03 0.  1.
        -12    1    3    3    0    0  0.80794260959E+01 -0.21528244680E+02  0.30550092195E+02  0.38236769976E+02  0.00000000000E+00 0.  1.
</event>
<event>
 7    1  0.1736465E-010  0.4778727E+02  0.7816164E-02  0.1312668E+00
        -11   -1    0    0    0    0  0.00000000000E+00  0.00000000000E+00  0.45593999997E+02  0.45594000000E+02  0.51100000000E-03 0. -1.
         11   -1    0    0    0    0 -0.00000000000E+00 -0.00000000000E+00 -0.45593999997E+02  0.45594000000E+02  0.51100000000E-03 0.  1.
    9900012    2    1    2    0    0  0.40401869841E+01  0.39682572279E+02 -0.17105366271E+02  0.47787271794E+02  0.20000003417E+02 0.  0.
         12    1    1    2    0    0 -0.40401869841E+01 -0.39682572279E+02  0.17105366271E+02  0.43400728206E+02  0.00000000000E+00 0. -1.
         11    1    3    3    0    0 -0.64272096585E+01  0.77082757151E+01 -0.33540462133E+01  0.10581879075E+02  0.51100000000E-03 0. -1.
        -11    1    3    3    0    0  0.46264033500E+01  0.12256180376E+02 -0.95598883766E+01  0.16217553188E+02  0.51100000000E-03 0.  1.
        -12    1    3    3    0    0  0.58409932925E+01  0.19718116188E+02 -0.41914316809E+01  0.20987839531E+02  0.00000000000E+00 0.  1.
</event>
<event>
 7    1  0.1736465E-010  0.4778727E+02  0.7816164E-02  0.1312668E+00
        -11   -1    0    0    0    0  0.00000000000E+00  0.00000000000E+00  0.45593999997E+02  0.45594000000E+02  0.51100000000E-03 0.  1.
         11   -1    0    0    0    0 -0.00000000000E+00 -0.00000000000E+00 -0.45593999997E+02  0.45594000000E+02  0.51100000000E-03 0. -1.
    9900012    2    1    2    0    0  0.28652944584E+02  0.30594985624E+02 -0.11250742548E+02  0.47787267442E+02  0.19999983577E+02 0.  0.
         12    1    1    2    0    0 -0.28652944584E+02 -0.30594985624E+02  0.11250742548E+02  0.43400732558E+02  0.00000000000E+00 0. -1.
         11    1    3    3    0    0  0.18644741833E+02  0.16572797923E+02  0.10184767484E+01  0.24966403910E+02  0.51100000000E-03 0. -1.
        -11    1    3    3    0    0  0.11250929528E+01  0.86496162086E+01 -0.42496199354E+01  0.97026266838E+01  0.51100000000E-03 0.  1.
        -12    1    3    3    0    0  0.88831097980E+01  0.53725714920E+01 -0.80195993609E+01  0.13118236849E+02  0.00000000000E+00 0.  1.
</event>
<event>
 7    1  0.1736465E-010  0.4778721E+02  0.7816164E-02  0.1312668E+00
        -11   -1    0    0    0    0  0.00000000000E+00  0.00000000000E+00  0.45593999997E+02  0.45594000000E+02  0.51100000000E-03 0.  1.
         11   -1    0    0    0    0 -0.00000000000E+00 -0.00000000000E+00 -0.45593999997E+02  0.45594000000E+02  0.51100000000E-03 0. -1.
    9900012    2    1    2    0    0 -0.43349559245E+02 -0.20098837550E+00  0.20985190308E+01  0.47787211238E+02  0.19999727317E+02 0.  0.
         12    1    1    2    0    0  0.43349559245E+02  0.20098837550E+00 -0.20985190308E+01  0.43400788762E+02  0.00000000000E+00 0. -1.
         11    1    3    3    0    0 -0.48955136032E+01  0.75964009930E+00  0.40141056143E+01  0.63762175828E+01  0.51100000000E-03 0. -1.
        -11    1    3    3    0    0 -0.20714607099E+02  0.15175504413E+01  0.63006684117E+01  0.21704753610E+02  0.51100000000E-03 0.  1.
         12    1    3    3    0    0 -0.17739438543E+02 -0.24781789161E+01 -0.82162549953E+01  0.19706240045E+02  0.00000000000E+00 0. -1.
</event>
<event>
 7    1  0.1736465E-010  0.4778726E+02  0.7816164E-02  0.1312668E+00
        -11   -1    0    0    0    0  0.00000000000E+00  0.00000000000E+00  0.45593999997E+02  0.45594000000E+02  0.51100000000E-03 0. -1.
         11   -1    0    0    0    0 -0.00000000000E+00 -0.00000000000E+00 -0.45593999997E+02  0.45594000000E+02  0.51100000000E-03 0.  1.
    9900012    2    1    2    0    0 -0.29720268149E+02  0.25248839196E+02  0.19047986768E+02  0.47787262454E+02  0.19999960834E+02 0.  0.
         12    1    1    2    0    0  0.29720268149E+02 -0.25248839196E+02 -0.19047986768E+02  0.43400737546E+02  0.00000000000E+00 0. -1.
         11    1    3    3    0    0 -0.11679465170E+02  0.30967213808E+01  0.81079637240E+01  0.14551242764E+02  0.51100000000E-03 0. -1.
        -11    1    3    3    0    0 -0.17021446770E+02  0.18977246557E+02  0.13670155019E+02  0.28926435583E+02  0.51100000000E-03 0.  1.
        -12    1    3    3    0    0 -0.10193562099E+01  0.31748712580E+01 -0.27301319743E+01  0.43095841081E+01  0.00000000000E+00 0.  1.
</event>
<event>
 7    1  0.1736465E-010  0.4778727E+02  0.7816164E-02  0.1312668E+00
        -11   -1    0    0    0    0  0.00000000000E+00  0.00000000000E+00  0.45593999997E+02  0.45594000000E+02  0.51100000000E-03 0. -1.
         11   -1    0    0    0    0 -0.00000000000E+00 -0.00000000000E+00 -0.45593999997E+02  0.45594000000E+02  0.51100000000E-03 0.  1.
    9900012    2    1    2    0    0  0.28883270307E+02 -0.68359020341E+01 -0.31664654266E+02  0.47787272010E+02  0.20000004405E+02 0.  0.
         12    1    1    2    0    0 -0.28883270307E+02  0.68359020341E+01  0.31664654266E+02  0.43400727990E+02  0.00000000000E+00 0. -1.
         11    1    3    3    0    0  0.26814382286E+02 -0.48380838137E+01 -0.33435814982E+02  0.43132028426E+02  0.51100000000E-03 0.  1.
        -11    1    3    3    0    0 -0.89767086394E-01  0.22135506398E+00  0.15315850189E+01  0.15500997147E+01  0.51100000000E-03 0. -1.
        -12    1    3    3    0    0  0.21586551074E+01 -0.22191732844E+01  0.23957569701E+00  0.31051438700E+01  0.00000000000E+00 0.  1.
</event>
<event>
 7    1  0.1736465E-010  0.4778727E+02  0.7816164E-02  0.1312668E+00
        -11   -1    0    0    0    0  0.00000000000E+00  0.00000000000E+00  0.45593999997E+02  0.45594000000E+02  0.51100000000E-03 0.  1.
         11   -1    0    0    0    0 -0.00000000000E+00 -0.00000000000E+00 -0.45593999997E+02  0.45594000000E+02  0.51100000000E-03 0. -1.
    9900012    2    1    2    0    0 -0.13114386364E+02  0.21477975900E+02  0.35360045450E+02  0.47787269676E+02  0.19999993761E+02 0.  0.
         12    1    1    2    0    0  0.13114386364E+02 -0.21477975900E+02 -0.35360045450E+02  0.43400730324E+02  0.00000000000E+00 0. -1.
         11    1    3    3    0    0 -0.70970216193E+00  0.15270005391E+00  0.53836428743E+01  0.54323664571E+01  0.51100000000E-03 0. -1.
        -11    1    3    3    0    0 -0.12045428173E+02  0.15575885187E+02  0.11066225918E+02  0.22586763725E+02  0.51100000000E-03 0.  1.
        -12    1    3    3    0    0 -0.35925602844E+00  0.57493906589E+01  0.18910176657E+02  0.19768139494E+02  0.00000000000E+00 0.  1.
</event>
<event>
 7    1  0.1736465E-010  0.4778727E+02  0.7816164E-02  0.1312668E+00
        -11   -1    0    0    0    0  0.00000000000E+00  0.00000000000E+00  0.45593999997E+02  0.45594000000E+02  0.51100000000E-03 0.  1.
         11   -1    0    0    0    0 -0.00000000000E+00 -0.00000000000E+00 -0.45593999997E+02  0.45594000000E+02  0.51100000000E-03 0. -1.
    9900012    2    1    2    0    0  0.35441830790E+02  0.24923749905E+02 -0.25113381484E+01  0.47787268458E+02  0.19999988206E+02 0.  0.
         12    1    1    2    0    0 -0.35441830790E+02 -0.24923749905E+02  0.25113381484E+01  0.43400731542E+02  0.00000000000E+00 0. -1.
         11    1    3    3    0    0  0.18190708283E+01  0.26172640575E+01  0.44964030413E+00  0.32188921215E+01  0.51100000000E-03 0.  1.
        -11    1    3    3    0    0  0.55858963404E+01  0.96034034493E+01  0.58443635127E+01  0.12553253796E+02  0.51100000000E-03 0. -1.
         12    1    3    3    0    0  0.28036863622E+02  0.12703082398E+02 -0.88053419652E+01  0.32015122540E+02  0.00000000000E+00 0. -1.
</event>
<event>
 7    1  0.1736465E-010  0.4778724E+02  0.7816164E-02  0.1312668E+00
        -11   -1    0    0    0    0  0.00000000000E+00  0.00000000000E+00  0.45593999997E+02  0.45594000000E+02  0.51100000000E-03 0.  1.
         11   -1    0    0    0    0 -0.00000000000E+00 -0.00000000000E+00 -0.45593999997E+02  0.45594000000E+02  0.51100000000E-03 0. -1.
    9900012    2    1    2    0    0 -0.14269214052E+01 -0.32327075989E+02  0.28923167727E+02  0.47787244498E+02  0.19999878966E+02 0.  0.
         12    1    1    2    0    0  0.14269214052E+01  0.32327075989E+02 -0.28923167727E+02  0.43400755502E+02  0.00000000000E+00 0. -1.
         11    1    3    3    0    0  0.64967305582E+01 -0.86236970181E+01  0.11412075567E+02  0.15710223653E+02  0.51100000000E-03 0.  1.
        -11    1    3    3    0    0 -0.58659533719E+01 -0.18490833216E+02  0.17984552477E+02  0.26453061261E+02  0.51100000000E-03 0. -1.
        -12    1    3    3    0    0 -0.20576985915E+01 -0.52125457551E+01 -0.47346031727E+00  0.56239595851E+01  0.00000000000E+00 0.  1.
</event>
<event>
 7    1  0.1736465E-010  0.4778727E+02  0.7816164E-02  0.1312668E+00
        -11   -1    0    0    0    0  0.00000000000E+00  0.00000000000E+00  0.45593999997E+02  0.45594000000E+02  0.51100000000E-03 0.  1.
         11   -1    0    0    0    0 -0.00000000000E+00 -0.00000000000E+00 -0.45593999997E+02  0.45594000000E+02  0.51100000000E-03 0. -1.
    9900012    2    1    2    0    0  0.32843419984E+02  0.21497656703E+02  0.18514418844E+02  0.47787272067E+02  0.20000004661E+02 0.  0.
         12    1    1    2    0    0 -0.32843419984E+02 -0.21497656703E+02 -0.18514418844E+02  0.43400727933E+02  0.00000000000E+00 0. -1.
         11    1    3    3    0    0  0.12015585196E+02  0.10161443230E+02  0.14898611270E+02  0.21670206140E+02  0.51100000000E-03 0. -1.
        -11    1    3    3    0    0  0.20763187121E+02  0.96200698490E+01  0.55332372248E+01  0.23542990417E+02  0.51100000000E-03 0.  1.
        -12    1    3    3    0    0  0.64647666606E-01  0.17161436245E+01 -0.19174296510E+01  0.25740755092E+01  0.00000000000E+00 0.  1.
</event>
<event>
 7    1  0.1736465E-010  0.4778727E+02  0.7816164E-02  0.1312668E+00
        -11   -1    0    0    0    0  0.00000000000E+00  0.00000000000E+00  0.45593999997E+02  0.45594000000E+02  0.51100000000E-03 0.  1.
         11   -1    0    0    0    0 -0.00000000000E+00 -0.00000000000E+00 -0.45593999997E+02  0.45594000000E+02  0.51100000000E-03 0. -1.
    9900012    2    1    2    0    0  0.11668759397E+02  0.41570655730E+02  0.43981937953E+01  0.47787268758E+02  0.19999989575E+02 0.  0.
         12    1    1    2    0    0 -0.11668759397E+02 -0.41570655730E+02 -0.43981937953E+01  0.43400731242E+02  0.00000000000E+00 0. -1.
         11    1    3    3    0    0  0.44344315221E+01  0.66103339512E+01 -0.43098240964E+01  0.90518109721E+01  0.51100000000E-03 0. -1.
        -11    1    3    3    0    0  0.71750995181E+01  0.24181451959E+02  0.11315783410E+02  0.27645463034E+02  0.51100000000E-03 0.  1.
         12    1    3    3    0    0  0.59228357049E-01  0.10778869820E+02 -0.26077655184E+01  0.11089994752E+02  0.00000000000E+00 0. -1.
</event>
<event>
 7    1  0.1736465E-010  0.4778727E+02  0.7816164E-02  0.1312668E+00
        -11   -1    0    0    0    0  0.00000000000E+00  0.00000000000E+00  0.45593999997E+02  0.45594000000E+02  0.51100000000E-03 0. -1.
         11   -1    0    0    0    0 -0.00000000000E+00 -0.00000000000E+00 -0.45593999997E+02  0.45594000000E+02  0.51100000000E-03 0.  1.
    9900012    2    1    2    0    0  0.19370225899E+02  0.35591140583E+02 -0.15546332857E+02  0.47787269538E+02  0.19999993131E+02 0.  0.
         12    1    1    2    0    0 -0.19370225899E+02 -0.35591140583E+02  0.15546332857E+02  0.43400730462E+02  0.00000000000E+00 0. -1.
         11    1    3    3    0    0  0.15381083288E+01  0.13492263487E+02 -0.49137178675E+01  0.14441314856E+02  0.51100000000E-03 0. -1.
        -11    1    3    3    0    0  0.17702754051E+02  0.23425255386E+02 -0.80592958836E+01  0.30448026886E+02  0.51100000000E-03 0.  1.
         12    1    3    3    0    0  0.12936351919E+00 -0.13263782899E+01 -0.25733191057E+01  0.28979277955E+01  0.00000000000E+00 0. -1.
</event>
<event>
 7    1  0.3589050E-010  0.4778725E+02  0.7816164E-02  0.1312668E+00
        -11   -1    0    0    0    0  0.00000000000E+00  0.00000000000E+00  0.45593999997E+02  0.45594000000E+02  0.51100000000E-03 0. -1.
         11   -1    0    0    0    0 -0.00000000000E+00 -0.00000000000E+00 -0.45593999997E+02  0.45594000000E+02  0.51100000000E-03 0.  1.
    9900012    2    1    2    0    0 -0.36186342196E+02  0.12690711063E+02  0.20325347930E+02  0.47787247964E+02  0.19999894769E+02 0.  0.
         12    1    1    2    0    0  0.36186342196E+02 -0.12690711063E+02 -0.20325347930E+02  0.43400752036E+02  0.00000000000E+00 0. -1.
         11    1    3    3    0    0 -0.48485667420E+01  0.54846838538E+01  0.10772496724E+02  0.13024478583E+02  0.51100000000E-03 0. -1.
        -11    1    3    3    0    0 -0.94848099300E+01 -0.15783512835E+01  0.84563434922E+00  0.96523525575E+01  0.51100000000E-03 0.  1.
        -12    1    3    3    0    0 -0.21852965524E+02  0.87843784928E+01  0.87072168564E+01  0.25110416824E+02  0.00000000000E+00 0.  1.
</event>
<event>
 7    1  0.1736465E-010  0.4778727E+02  0.7816164E-02  0.1312668E+00
        -11   -1    0    0    0    0  0.00000000000E+00  0.00000000000E+00  0.45593999997E+02  0.45594000000E+02  0.51100000000E-03 0.  1.
         11   -1    0    0    0    0 -0.00000000000E+00 -0.00000000000E+00 -0.45593999997E+02  0.45594000000E+02  0.51100000000E-03 0. -1.
    9900012    2    1    2    0    0  0.38267918181E+02 -0.79447750698E+01  0.18869820593E+02  0.47787272564E+02  0.20000006926E+02 0.  0.
         12    1    1    2    0    0 -0.38267918181E+02  0.79447750698E+01 -0.18869820593E+02  0.43400727436E+02  0.00000000000E+00 0. -1.
         11    1    3    3    0    0  0.36799687714E+01  0.24082018761E+01  0.46556587292E+01  0.64044332223E+01  0.51100000000E-03 0. -1.
        -11    1    3    3    0    0  0.20595581276E+02 -0.12361234285E+02  0.12686495052E+02  0.27164779368E+02  0.51100000000E-03 0.  1.
        -12    1    3    3    0    0  0.13992368134E+02  0.20082573391E+01  0.15276668119E+01  0.14218059974E+02  0.00000000000E+00 0.  1.
</event>
<event>
 7    1  0.1736465E-010  0.4778727E+02  0.7816164E-02  0.1312668E+00
        -11   -1    0    0    0    0  0.00000000000E+00  0.00000000000E+00  0.45593999997E+02  0.45594000000E+02  0.51100000000E-03 0.  1.
         11   -1    0    0    0    0 -0.00000000000E+00 -0.00000000000E+00 -0.45593999997E+02  0.45594000000E+02  0.51100000000E-03 0. -1.
    9900012    2    1    2    0    0  0.35601499109E+02  0.10673203661E+02  0.22410698123E+02  0.47787269528E+02  0.19999993084E+02 0.  0.
         12    1    1    2    0    0 -0.35601499109E+02 -0.10673203661E+02 -0.22410698123E+02  0.43400730472E+02  0.00000000000E+00 0. -1.
         11    1    3    3    0    0  0.27055996056E+02  0.52977458347E+01  0.75701111645E+01  0.28590201413E+02  0.51100000000E-03 0. -1.
        -11    1    3    3    0    0  0.19050690007E+01 -0.16335157031E+01  0.34238701044E+01  0.42450616253E+01  0.51100000000E-03 0.  1.
        -12    1    3    3    0    0  0.66404340516E+01  0.70089735291E+01  0.11416716854E+02  0.14952006489E+02  0.00000000000E+00 0.  1.
</event>
<event>
 7    1  0.1736465E-010  0.4778726E+02  0.7816164E-02  0.1312668E+00
        -11   -1    0    0    0    0  0.00000000000E+00  0.00000000000E+00  0.45593999997E+02  0.45594000000E+02  0.51100000000E-03 0.  1.
         11   -1    0    0    0    0 -0.00000000000E+00 -0.00000000000E+00 -0.45593999997E+02  0.45594000000E+02  0.51100000000E-03 0. -1.
    9900012    2    1    2    0    0 -0.42066092124E+02  0.10041298429E+02 -0.36387253892E+01  0.47787261491E+02  0.19999956441E+02 0.  0.
         12    1    1    2    0    0  0.42066092124E+02 -0.10041298429E+02  0.36387253892E+01  0.43400738509E+02  0.00000000000E+00 0. -1.
         11    1    3    3    0    0 -0.37115682052E+01  0.78615558152E+00 -0.48081885372E+01  0.61247413342E+01  0.51100000000E-03 0. -1.
        -11    1    3    3    0    0 -0.79600807177E+01 -0.32060188715E+01  0.19635024196E+01  0.88032257752E+01  0.51100000000E-03 0.  1.
        -12    1    3    3    0    0 -0.30394443201E+02  0.12461161719E+02 -0.79403927156E+00  0.32859294381E+02  0.00000000000E+00 0.  1.
</event>
<event>
 7    1  0.1736465E-010  0.4778728E+02  0.7816164E-02  0.1312668E+00
        -11   -1    0    0    0    0  0.00000000000E+00  0.00000000000E+00  0.45593999997E+02  0.45594000000E+02  0.51100000000E-03 0.  1.
         11   -1    0    0    0    0 -0.00000000000E+00 -0.00000000000E+00 -0.45593999997E+02  0.45594000000E+02  0.51100000000E-03 0. -1.
    9900012    2    1    2    0    0 -0.27063955067E+02 -0.16735006089E+02  0.29514479508E+02  0.47787278885E+02  0.20000035750E+02 0.  0.
         12    1    1    2    0    0  0.27063955067E+02  0.16735006089E+02 -0.29514479508E+02  0.43400721115E+02  0.00000000000E+00 0. -1.
         11    1    3    3    0    0 -0.59300173350E+01 -0.86877668894E+01  0.10726611815E+02  0.15023401759E+02  0.51100000000E-03 0. -1.
        -11    1    3    3    0    0 -0.16066188155E+02 -0.92532367912E+01  0.20147555840E+02  0.27380080342E+02  0.51100000000E-03 0.  1.
         12    1    3    3    0    0 -0.50677495766E+01  0.12059975915E+01 -0.13596881469E+01  0.53837967847E+01  0.00000000000E+00 0. -1.
</event>
<event>
 7    1  0.1736465E-010  0.4778727E+02  0.7816164E-02  0.1312668E+00
        -11   -1    0    0    0    0  0.00000000000E+00  0.00000000000E+00  0.45593999997E+02  0.45594000000E+02  0.51100000000E-03 0.  1.
         11   -1    0    0    0    0 -0.00000000000E+00 -0.00000000000E+00 -0.45593999997E+02  0.45594000000E+02  0.51100000000E-03 0. -1.
    9900012    2    1    2    0    0 -0.28457214007E+02  0.10090384455E+02  0.31176826135E+02  0.47787269875E+02  0.19999994669E+02 0.  0.
         12    1    1    2    0    0  0.28457214007E+02 -0.10090384455E+02 -0.31176826135E+02  0.43400730125E+02  0.00000000000E+00 0. -1.
         11    1    3    3    0    0 -0.13775446411E+02  0.95644550042E+01  0.85387021217E+01  0.18818904260E+02  0.51100000000E-03 0. -1.
        -11    1    3    3    0    0 -0.15561818832E+02 -0.10280701499E+01  0.17073863783E+02  0.23124531527E+02  0.51100000000E-03 0.  1.
         12    1    3    3    0    0  0.88005123624E+00  0.15539996011E+01  0.55642602310E+01  0.58438340888E+01  0.00000000000E+00 0. -1.
</event>
<event>
 7    1  0.2948763E-010  0.4778728E+02  0.7816164E-02  0.1312668E+00
        -11   -1    0    0    0    0  0.00000000000E+00  0.00000000000E+00  0.45593999997E+02  0.45594000000E+02  0.51100000000E-03 0. -1.
         11   -1    0    0    0    0 -0.00000000000E+00 -0.00000000000E+00 -0.45593999997E+02  0.45594000000E+02  0.51100000000E-03 0.  1.
    9900012    2    1    2    0    0  0.21368646492E+02 -0.53312533058E+00 -0.37771937260E+02  0.47787279731E+02  0.20000039604E+02 0.  0.
         12    1    1    2    0    0 -0.21368646492E+02  0.53312533058E+00  0.37771937260E+02  0.43400720269E+02  0.00000000000E+00 0. -1.
         11    1    3    3    0    0  0.40937462696E+01 -0.90835342193E+00  0.60569347283E+00  0.42368301008E+01  0.51100000000E-03 0. -1.
        -11    1    3    3    0    0  0.15668264725E+02  0.84939253842E+00 -0.21645586883E+02  0.26734760499E+02  0.51100000000E-03 0.  1.
        -12    1    3    3    0    0  0.16066354977E+01 -0.47416444707E+00 -0.16732043850E+02  0.16815689131E+02  0.00000000000E+00 0.  1.
</event>
<event>
 7    1  0.1736465E-010  0.4778727E+02  0.7816164E-02  0.1312668E+00
        -11   -1    0    0    0    0  0.00000000000E+00  0.00000000000E+00  0.45593999997E+02  0.45594000000E+02  0.51100000000E-03 0.  1.
         11   -1    0    0    0    0 -0.00000000000E+00 -0.00000000000E+00 -0.45593999997E+02  0.45594000000E+02  0.51100000000E-03 0. -1.
    9900012    2    1    2    0    0  0.35457484382E+02  0.11044161741E+02 -0.22459220963E+02  0.47787270588E+02  0.19999997917E+02 0.  0.
         12    1    1    2    0    0 -0.35457484382E+02 -0.11044161741E+02  0.22459220963E+02  0.43400729412E+02  0.00000000000E+00 0. -1.
         11    1    3    3    0    0  0.16799133317E+02  0.72275600812E+00 -0.15942624387E+02  0.23171114109E+02  0.51100000000E-03 0. -1.
        -11    1    3    3    0    0  0.46499222246E+01  0.71126120038E+01 -0.56787253314E+01  0.10220516027E+02  0.51100000000E-03 0.  1.
         12    1    3    3    0    0  0.14008428841E+02  0.32087937290E+01 -0.83787124417E+00  0.14395640451E+02  0.00000000000E+00 0. -1.
</event>
<event>
 7    1  0.2032298E-010  0.4778727E+02  0.7816164E-02  0.1312668E+00
        -11   -1    0    0    0    0  0.00000000000E+00  0.00000000000E+00  0.45593999997E+02  0.45594000000E+02  0.51100000000E-03 0.  1.
         11   -1    0    0    0    0 -0.00000000000E+00 -0.00000000000E+00 -0.45593999997E+02  0.45594000000E+02  0.51100000000E-03 0. -1.
    9900012    2    1    2    0    0  0.90246339885E+01  0.20799668702E+02  0.37007472871E+02  0.47787270916E+02  0.19999999413E+02 0.  0.
         12    1    1    2    0    0 -0.90246339885E+01 -0.20799668702E+02 -0.37007472871E+02  0.43400729084E+02  0.00000000000E+00 0. -1.
         11    1    3    3    0    0  0.21900952705E+01  0.20570574281E+00 -0.12727099735E+01  0.25413821208E+01  0.51100000000E-03 0. -1.
        -11    1    3    3    0    0  0.61125525445E+00  0.13498626675E+02  0.15354423597E+02  0.20453480862E+02  0.51100000000E-03 0.  1.
        -12    1    3    3    0    0  0.62232834636E+01  0.70953362845E+01  0.22925759247E+02  0.24792407933E+02  0.00000000000E+00 0.  1.
</event>
<event>
 7    1  0.1736465E-010  0.4778727E+02  0.7816164E-02  0.1312668E+00
        -11   -1    0    0    0    0  0.00000000000E+00  0.00000000000E+00  0.45593999997E+02  0.45594000000E+02  0.51100000000E-03 0. -1.
         11   -1    0    0    0    0 -0.00000000000E+00 -0.00000000000E+00 -0.45593999997E+02  0.45594000000E+02  0.51100000000E-03 0.  1.
    9900012    2    1    2    0    0 -0.78028678368E+01  0.41437984267E+02 -0.10277737616E+02  0.47787272159E+02  0.20000005084E+02 0.  0.
         12    1    1    2    0    0  0.78028678368E+01 -0.41437984267E+02  0.10277737616E+02  0.43400727841E+02  0.00000000000E+00 0. -1.
         11    1    3    3    0    0  0.21670067571E+01  0.65186251226E+01  0.54604188018E+00  0.68910488150E+01  0.51100000000E-03 0. -1.
        -11    1    3    3    0    0 -0.90682099108E+01  0.34928180978E+02 -0.13145210879E+02  0.38405817616E+02  0.51100000000E-03 0.  1.
        -12    1    3    3    0    0 -0.90166468312E+00 -0.88218335631E-02  0.23214313834E+01  0.24904057286E+01  0.00000000000E+00 0.  1.
</event>
<event>
 7    1  0.1736465E-010  0.4778727E+02  0.7816164E-02  0.1312668E+00
        -11   -1    0    0    0    0  0.00000000000E+00  0.00000000000E+00  0.45593999997E+02  0.45594000000E+02  0.51100000000E-03 0.  1.
         11   -1    0    0    0    0 -0.00000000000E+00 -0.00000000000E+00 -0.45593999997E+02  0.45594000000E+02  0.51100000000E-03 0. -1.
    9900012    2    1    2    0    0  0.11799432843E+02 -0.90958123240E+01  0.40763498231E+02  0.47787271834E+02  0.20000003602E+02 0.  0.
         12    1    1    2    0    0 -0.11799432843E+02  0.90958123240E+01 -0.40763498231E+02  0.43400728166E+02  0.00000000000E+00 0. -1.
         11    1    3    3    0    0  0.86947620727E+00 -0.12076942454E+01 -0.49868481186E+00  0.15694588456E+01  0.51100000000E-03 0. -1.
        -11    1    3    3    0    0  0.33783489202E+01 -0.50323464439E+01  0.36166005093E+02  0.36670392373E+02  0.51100000000E-03 0.  1.
        -12    1    3    3    0    0  0.75516077151E+01 -0.28557716347E+01  0.50961779506E+01  0.95474206159E+01  0.00000000000E+00 0.  1.
</event>
<event>
 7    1  0.1736465E-010  0.4778727E+02  0.7816164E-02  0.1312668E+00
        -11   -1    0    0    0    0  0.00000000000E+00  0.00000000000E+00  0.45593999997E+02  0.45594000000E+02  0.51100000000E-03 0.  1.
         11   -1    0    0    0    0 -0.00000000000E+00 -0.00000000000E+00 -0.45593999997E+02  0.45594000000E+02  0.51100000000E-03 0. -1.
    9900012    2    1    2    0    0  0.11090845566E+01  0.17687069270E+02  0.39617684615E+02  0.47787269336E+02  0.19999992211E+02 0.  0.
         12    1    1    2    0    0 -0.11090845566E+01 -0.17687069270E+02 -0.39617684615E+02  0.43400730664E+02  0.00000000000E+00 0. -1.
         11    1    3    3    0    0 -0.11988999609E+01  0.94695389343E+01  0.11364103063E+02  0.14840901841E+02  0.51100000000E-03 0. -1.
        -11    1    3    3    0    0 -0.29587814094E+01 -0.18815131815E+01  0.15303671959E+02  0.15700218309E+02  0.51100000000E-03 0.  1.
        -12    1    3    3    0    0  0.52667659268E+01  0.10099043517E+02  0.12949909593E+02  0.17246149186E+02  0.00000000000E+00 0.  1.
</event>
<event>
 7    1  0.1736465E-010  0.4778727E+02  0.7816164E-02  0.1312668E+00
        -11   -1    0    0    0    0  0.00000000000E+00  0.00000000000E+00  0.45593999997E+02  0.45594000000E+02  0.51100000000E-03 0.  1.
         11   -1    0    0    0    0 -0.00000000000E+00 -0.00000000000E+00 -0.45593999997E+02  0.45594000000E+02  0.51100000000E-03 0. -1.
    9900012    2    1    2    0    0 -0.17868893370E+01  0.33747078438E+02  0.27231693877E+02  0.47787269269E+02  0.19999991904E+02 0.  0.
         12    1    1    2    0    0  0.17868893370E+01 -0.33747078438E+02 -0.27231693877E+02  0.43400730731E+02  0.00000000000E+00 0. -1.
         11    1    3    3    0    0 -0.36775125930E+01  0.34568956931E+00  0.34658457711E+01  0.50651443534E+01  0.51100000000E-03 0. -1.
        -11    1    3    3    0    0  0.78932376046E+00 -0.89138452006E+00  0.75538187659E+00  0.14100356031E+01  0.51100000000E-03 0.  1.
        -12    1    3    3    0    0  0.11012994955E+01  0.34292773389E+02  0.23010466229E+02  0.41312089312E+02  0.00000000000E+00 0.  1.
</event>
<event>
 7    1  0.1736465E-010  0.4778727E+02  0.7816164E-02  0.1312668E+00
        -11   -1    0    0    0    0  0.00000000000E+00  0.00000000000E+00  0.45593999997E+02  0.45594000000E+02  0.51100000000E-03 0. -1.
         11   -1    0    0    0    0 -0.00000000000E+00 -0.00000000000E+00 -0.45593999997E+02  0.45594000000E+02  0.51100000000E-03 0.  1.
    9900012    2    1    2    0    0  0.26307480819E+02 -0.30973661521E+02 -0.15237191675E+02  0.47787271145E+02  0.20000000456E+02 0.  0.
         12    1    1    2    0    0 -0.26307480819E+02  0.30973661521E+02  0.15237191675E+02  0.43400728855E+02  0.00000000000E+00 0. -1.
         11    1    3    3    0    0  0.11229893714E+02 -0.13954868022E+02 -0.16912345379E+02  0.24634859058E+02  0.51100000000E-03 0. -1.
        -11    1    3    3    0    0  0.30471675387E+01 -0.62166745408E+01  0.51918520232E+00  0.69427534805E+01  0.51100000000E-03 0.  1.
         12    1    3    3    0    0  0.12030419566E+02 -0.10802118959E+02  0.11559685023E+01  0.16209658606E+02  0.00000000000E+00 0. -1.
</event>
<event>
 7    1  0.1736465E-010  0.4778727E+02  0.7816164E-02  0.1312668E+00
        -11   -1    0    0    0    0  0.00000000000E+00  0.00000000000E+00  0.45593999997E+02  0.45594000000E+02  0.51100000000E-03 0.  1.
         11   -1    0    0    0    0 -0.00000000000E+00 -0.00000000000E+00 -0.45593999997E+02  0.45594000000E+02  0.51100000000E-03 0. -1.
    9900012    2    1    2    0    0  0.78575984512E+01 -0.36157975510E+02  0.22682199136E+02  0.47787271849E+02  0.20000003668E+02 0.  0.
         12    1    1    2    0    0 -0.78575984512E+01  0.36157975510E+02 -0.22682199136E+02  0.43400728151E+02  0.00000000000E+00 0. -1.
         11    1    3    3    0    0  0.48015982315E+01 -0.84844098446E+01  0.71645723574E+01  0.12098415322E+02  0.51100000000E-03 0. -1.
        -11    1    3    3    0    0 -0.63818883516E+01 -0.96172734952E+01  0.36258764218E+01  0.12098240719E+02  0.51100000000E-03 0.  1.
        -12    1    3    3    0    0  0.94378885714E+01 -0.18056292170E+02  0.11891750357E+02  0.23590615807E+02  0.00000000000E+00 0.  1.
</event>
<event>
 7    1  0.1736465E-010  0.4778727E+02  0.7816164E-02  0.1312668E+00
        -11   -1    0    0    0    0  0.00000000000E+00  0.00000000000E+00  0.45593999997E+02  0.45594000000E+02  0.51100000000E-03 0.  1.
         11   -1    0    0    0    0 -0.00000000000E+00 -0.00000000000E+00 -0.45593999997E+02  0.45594000000E+02  0.51100000000E-03 0. -1.
    9900012    2    1    2    0    0  0.10210992225E+02  0.18708469690E+02  0.37806772879E+02  0.47787271021E+02  0.19999999894E+02 0.  0.
         12    1    1    2    0    0 -0.10210992225E+02 -0.18708469690E+02 -0.37806772879E+02  0.43400728979E+02  0.00000000000E+00 0. -1.
         11    1    3    3    0    0  0.82156748349E+01  0.44392423693E-01  0.18626687118E+02  0.20358112804E+02  0.51100000000E-03 0. -1.
        -11    1    3    3    0    0  0.24226918860E+01  0.14129486969E+02  0.17385463591E+02  0.22533667756E+02  0.51100000000E-03 0.  1.
         12    1    3    3    0    0 -0.42737449558E+00  0.45345902975E+01  0.17946221694E+01  0.48954904613E+01  0.00000000000E+00 0. -1.
</event>
<event>
 7    1  0.1736465E-010  0.4778727E+02  0.7816164E-02  0.1312668E+00
        -11   -1    0    0    0    0  0.00000000000E+00  0.00000000000E+00  0.45593999997E+02  0.45594000000E+02  0.51100000000E-03 0.  1.
         11   -1    0    0    0    0 -0.00000000000E+00 -0.00000000000E+00 -0.45593999997E+02  0.45594000000E+02  0.51100000000E-03 0. -1.
    9900012    2    1    2    0    0  0.16074766488E+02 -0.66186148806E+01  0.39767058690E+02  0.47787272616E+02  0.20000007165E+02 0.  0.
         12    1    1    2    0    0 -0.16074766488E+02  0.66186148806E+01 -0.39767058690E+02  0.43400727384E+02  0.00000000000E+00 0. -1.
         11    1    3    3    0    0  0.10091581959E+01 -0.91470717873E+01  0.11238411627E+02  0.14525467934E+02  0.51100000000E-03 0. -1.
        -11    1    3    3    0    0  0.10492388786E+02 -0.62930982941E+00  0.23594695148E+02  0.25830135360E+02  0.51100000000E-03 0.  1.
        -12    1    3    3    0    0  0.45732195061E+01  0.31577667361E+01  0.49339519148E+01  0.74316693218E+01  0.00000000000E+00 0.  1.
</event>
<event>
 7    1  0.1736465E-010  0.4778727E+02  0.7816164E-02  0.1312668E+00
        -11   -1    0    0    0    0  0.00000000000E+00  0.00000000000E+00  0.45593999997E+02  0.45594000000E+02  0.51100000000E-03 0.  1.
         11   -1    0    0    0    0 -0.00000000000E+00 -0.00000000000E+00 -0.45593999997E+02  0.45594000000E+02  0.51100000000E-03 0. -1.
    9900012    2    1    2    0    0 -0.84943381717E+00  0.43291701135E+02 -0.29547412252E+01  0.47787269353E+02  0.19999992290E+02 0.  0.
         12    1    1    2    0    0  0.84943381717E+00 -0.43291701135E+02  0.29547412252E+01  0.43400730647E+02  0.00000000000E+00 0. -1.
         11    1    3    3    0    0 -0.24171434205E+01  0.14524505439E+02 -0.52135096768E+01  0.15620003968E+02  0.51100000000E-03 0. -1.
        -11    1    3    3    0    0  0.47865560313E+01  0.81198815893E+01 -0.41658508710E+01  0.10305236989E+02  0.51100000000E-03 0.  1.
        -12    1    3    3    0    0 -0.32188464279E+01  0.20647314106E+02  0.64246193227E+01  0.21862028396E+02  0.00000000000E+00 0.  1.
</event>
<event>
 7    1  0.1736465E-010  0.4778727E+02  0.7816164E-02  0.1312668E+00
        -11   -1    0    0    0    0  0.00000000000E+00  0.00000000000E+00  0.45593999997E+02  0.45594000000E+02  0.51100000000E-03 0.  1.
         11   -1    0    0    0    0 -0.00000000000E+00 -0.00000000000E+00 -0.45593999997E+02  0.45594000000E+02  0.51100000000E-03 0. -1.
    9900012    2    1    2    0    0 -0.67226419167E+01  0.26257306472E+02  0.33896657929E+02  0.47787268712E+02  0.19999989367E+02 0.  0.
         12    1    1    2    0    0  0.67226419167E+01 -0.26257306472E+02 -0.33896657929E+02  0.43400731288E+02  0.00000000000E+00 0. -1.
         11    1    3    3    0    0  0.26387574653E+01  0.10192201490E+01  0.16978422572E+01  0.32991694810E+01  0.51100000000E-03 0. -1.
        -11    1    3    3    0    0 -0.50060500927E+01 -0.78172202966E-01  0.49846606147E+01  0.70649479919E+01  0.51100000000E-03 0.  1.
        -12    1    3    3    0    0 -0.43553492893E+01  0.25316258526E+02  0.27214155057E+02  0.37423151240E+02  0.00000000000E+00 0.  1.
</event>
<event>
 7    1  0.1736465E-010  0.4778727E+02  0.7816164E-02  0.1312668E+00
        -11   -1    0    0    0    0  0.00000000000E+00  0.00000000000E+00  0.45593999997E+02  0.45594000000E+02  0.51100000000E-03 0. -1.
         11   -1    0    0    0    0 -0.00000000000E+00 -0.00000000000E+00 -0.45593999997E+02  0.45594000000E+02  0.51100000000E-03 0.  1.
    9900012    2    1    2    0    0 -0.54537763181E+01  0.19142656556E+02 -0.38567319290E+02  0.47787273124E+02  0.20000009482E+02 0.  0.
         12    1    1    2    0    0  0.54537763181E+01 -0.19142656556E+02  0.38567319290E+02  0.43400726876E+02  0.00000000000E+00 0. -1.
         11    1    3    3    0    0 -0.26940047064E+01  0.55000862912E+01  0.33175389666E+00  0.61334061889E+01  0.51100000000E-03 0. -1.
        -11    1    3    3    0    0 -0.27904950348E+01  0.29350718280E+01 -0.13378468290E+02  0.13978015711E+02  0.51100000000E-03 0.  1.
         12    1    3    3    0    0  0.30723423156E-01  0.10707498437E+02 -0.25520604897E+02  0.27675851225E+02  0.00000000000E+00 0. -1.
</event>
<event>
 7    1  0.1736465E-010  0.4778728E+02  0.7816164E-02  0.1312668E+00
        -11   -1    0    0    0    0  0.00000000000E+00  0.00000000000E+00  0.45593999997E+02  0.45594000000E+02  0.51100000000E-03 0.  1.
         11   -1    0    0    0    0 -0.00000000000E+00 -0.00000000000E+00 -0.45593999997E+02  0.45594000000E+02  0.51100000000E-03 0. -1.
    9900012    2    1    2    0    0 -0.10041922796E+02  0.38552510708E+01  0.42046629241E+02  0.47787283361E+02  0.20000056157E+02 0.  0.
         12    1    1    2    0    0  0.10041922796E+02 -0.38552510708E+01 -0.42046629241E+02  0.43400716639E+02  0.00000000000E+00 0. -1.
         11    1    3    3    0    0 -0.60297575281E+01 -0.49171735102E+01  0.10797422010E+02  0.13308677376E+02  0.51100000000E-03 0. -1.
        -11    1    3    3    0    0  0.16822369848E+01 -0.18355606615E+01  0.44512058503E+01  0.51002390138E+01  0.51100000000E-03 0.  1.
        -12    1    3    3    0    0 -0.56944022529E+01  0.10607985243E+02  0.26798001381E+02  0.29378366972E+02  0.00000000000E+00 0.  1.
</event>
<event>
 7    1  0.1736465E-010  0.4778727E+02  0.7816164E-02  0.1312668E+00
        -11   -1    0    0    0    0  0.00000000000E+00  0.00000000000E+00  0.45593999997E+02  0.45594000000E+02  0.51100000000E-03 0. -1.
         11   -1    0    0    0    0 -0.00000000000E+00 -0.00000000000E+00 -0.45593999997E+02  0.45594000000E+02  0.51100000000E-03 0.  1.
    9900012    2    1    2    0    0 -0.35935776390E+02  0.19282956914E+02  0.14846239613E+02  0.47787270942E+02  0.19999999533E+02 0.  0.
         12    1    1    2    0    0  0.35935776390E+02 -0.19282956914E+02 -0.14846239613E+02  0.43400729058E+02  0.00000000000E+00 0. -1.
         11    1    3    3    0    0 -0.63299641130E+01  0.11492657928E+02  0.11548326172E+00  0.13121088696E+02  0.51100000000E-03 0. -1.
        -11    1    3    3    0    0 -0.17728035728E+02  0.78670633188E+01  0.10515323615E+02  0.22062320073E+02  0.51100000000E-03 0.  1.
        -12    1    3    3    0    0 -0.11877776550E+02 -0.76764332945E-01  0.42154327362E+01  0.12603862173E+02  0.00000000000E+00 0.  1.
</event>
<event>
 7    1  0.1736465E-010  0.4778727E+02  0.7816164E-02  0.1312668E+00
        -11   -1    0    0    0    0  0.00000000000E+00  0.00000000000E+00  0.45593999997E+02  0.45594000000E+02  0.51100000000E-03 0.  1.
         11   -1    0    0    0    0 -0.00000000000E+00 -0.00000000000E+00 -0.45593999997E+02  0.45594000000E+02  0.51100000000E-03 0. -1.
    9900012    2    1    2    0    0 -0.20915217646E+02  0.26747175114E+01  0.37934450657E+02  0.47787274320E+02  0.20000014933E+02 0.  0.
         12    1    1    2    0    0  0.20915217646E+02 -0.26747175114E+01 -0.37934450657E+02  0.43400725680E+02  0.00000000000E+00 0. -1.
         11    1    3    3    0    0 -0.78251679132E+00  0.54892361195E+01  0.87214661592E+01  0.10334796463E+02  0.51100000000E-03 0. -1.
        -11    1    3    3    0    0  0.47792089501E+00 -0.27077650337E+01  0.44894425812E+01  0.52645507701E+01  0.51100000000E-03 0.  1.
        -12    1    3    3    0    0 -0.20610621749E+02 -0.10675357444E+00  0.24723541917E+02  0.32187927087E+02  0.00000000000E+00 0.  1.
</event>
<event>
 7    1  0.1736465E-010  0.4778727E+02  0.7816164E-02  0.1312668E+00
        -11   -1    0    0    0    0  0.00000000000E+00  0.00000000000E+00  0.45593999997E+02  0.45594000000E+02  0.51100000000E-03 0.  1.
         11   -1    0    0    0    0 -0.00000000000E+00 -0.00000000000E+00 -0.45593999997E+02  0.45594000000E+02  0.51100000000E-03 0. -1.
    9900012    2    1    2    0    0  0.31877260263E+02 -0.28222870845E+02  0.84221864240E+01  0.47787269767E+02  0.19999994176E+02 0.  0.
         12    1    1    2    0    0 -0.31877260263E+02  0.28222870845E+02 -0.84221864240E+01  0.43400730233E+02  0.00000000000E+00 0. -1.
         11    1    3    3    0    0  0.13323370025E+01 -0.15047152388E+00 -0.15994227078E+00  0.13503130595E+01  0.51100000000E-03 0. -1.
        -11    1    3    3    0    0  0.76217542985E+01  0.15999830423E+01  0.37089823216E+01  0.86259859985E+01  0.51100000000E-03 0.  1.
         12    1    3    3    0    0  0.22923168962E+02 -0.29672382364E+02  0.48731463731E+01  0.37810970709E+02  0.00000000000E+00 0. -1.
</event>
<event>
 7    1  0.1736465E-010  0.4778726E+02  0.7816164E-02  0.1312668E+00
        -11   -1    0    0    0    0  0.00000000000E+00  0.00000000000E+00  0.45593999997E+02  0.45594000000E+02  0.51100000000E-03 0.  1.
         11   -1    0    0    0    0 -0.00000000000E+00 -0.00000000000E+00 -0.45593999997E+02  0.45594000000E+02  0.51100000000E-03 0. -1.
    9900012    2    1    2    0    0  0.21776292703E+02  0.77736195238E+01  0.36728572530E+02  0.47787261245E+02  0.19999955320E+02 0.  0.
         12    1    1    2    0    0 -0.21776292703E+02 -0.77736195238E+01 -0.36728572530E+02  0.43400738755E+02  0.00000000000E+00 0. -1.
         11    1    3    3    0    0  0.28583561440E+01  0.13341330046E+01 -0.72616316211E+00  0.32368849098E+01  0.51100000000E-03 0. -1.
        -11    1    3    3    0    0  0.39247464765E+01 -0.47705637927E-01  0.20998906411E+02  0.21362583679E+02  0.51100000000E-03 0.  1.
         12    1    3    3    0    0  0.14993190082E+02  0.64871921572E+01  0.16455829282E+02  0.23187792656E+02  0.00000000000E+00 0. -1.
</event>
<event>
 7    1  0.1736465E-010  0.4778728E+02  0.7816164E-02  0.1312668E+00
        -11   -1    0    0    0    0  0.00000000000E+00  0.00000000000E+00  0.45593999997E+02  0.45594000000E+02  0.51100000000E-03 0.  1.
         11   -1    0    0    0    0 -0.00000000000E+00 -0.00000000000E+00 -0.45593999997E+02  0.45594000000E+02  0.51100000000E-03 0. -1.
    9900012    2    1    2    0    0 -0.30547340938E+02  0.28193690811E+02 -0.12473920152E+02  0.47787275077E+02  0.20000018384E+02 0.  0.
         12    1    1    2    0    0  0.30547340938E+02 -0.28193690811E+02  0.12473920152E+02  0.43400724923E+02  0.00000000000E+00 0. -1.
         11    1    3    3    0    0 -0.14555990954E+02  0.12120429076E+02 -0.99556445188E+01  0.21398517044E+02  0.51100000000E-03 0. -1.
        -11    1    3    3    0    0 -0.10103934036E+02  0.16974822478E+01  0.14697013777E+01  0.10350408272E+02  0.51100000000E-03 0.  1.
         12    1    3    3    0    0 -0.58874159473E+01  0.14375779487E+02 -0.39879770113E+01  0.16038349761E+02  0.00000000000E+00 0. -1.
</event>
<event>
 7    1  0.1736465E-010  0.4778727E+02  0.7816164E-02  0.1312668E+00
        -11   -1    0    0    0    0  0.00000000000E+00  0.00000000000E+00  0.45593999997E+02  0.45594000000E+02  0.51100000000E-03 0.  1.
         11   -1    0    0    0    0 -0.00000000000E+00 -0.00000000000E+00 -0.45593999997E+02  0.45594000000E+02  0.51100000000E-03 0. -1.
    9900012    2    1    2    0    0  0.28964232192E+02 -0.31130736695E+02  0.86933237893E+01  0.47787269682E+02  0.19999993788E+02 0.  0.
         12    1    1    2    0    0 -0.28964232192E+02  0.31130736695E+02 -0.86933237893E+01  0.43400730318E+02  0.00000000000E+00 0. -1.
         11    1    3    3    0    0  0.76786874221E+01 -0.19569778944E+02  0.64267571631E+01  0.21982759070E+02  0.51100000000E-03 0. -1.
        -11    1    3    3    0    0  0.66302341037E+01 -0.47413274892E+01 -0.31767817280E+01  0.87482645730E+01  0.51100000000E-03 0.  1.
        -12    1    3    3    0    0  0.14655310666E+02 -0.68196302614E+01  0.54433483542E+01  0.17056246038E+02  0.00000000000E+00 0.  1.
</event>
<event>
 7    1  0.1736465E-010  0.4778727E+02  0.7816164E-02  0.1312668E+00
        -11   -1    0    0    0    0  0.00000000000E+00  0.00000000000E+00  0.45593999997E+02  0.45594000000E+02  0.51100000000E-03 0.  1.
         11   -1    0    0    0    0 -0.00000000000E+00 -0.00000000000E+00 -0.45593999997E+02  0.45594000000E+02  0.51100000000E-03 0. -1.
    9900012    2    1    2    0    0 -0.42988845947E+02 -0.58226887781E+00  0.59366285280E+01  0.47787268771E+02  0.19999989636E+02 0.  0.
         12    1    1    2    0    0  0.42988845947E+02  0.58226887781E+00 -0.59366285280E+01  0.43400731229E+02  0.00000000000E+00 0. -1.
         11    1    3    3    0    0 -0.61656727269E+01  0.22961727719E+01 -0.44831262496E+01  0.79615545469E+01  0.51100000000E-03 0. -1.
        -11    1    3    3    0    0 -0.25270016289E+02 -0.12216616950E+01  0.18906833110E+01  0.25370078127E+02  0.51100000000E-03 0.  1.
        -12    1    3    3    0    0 -0.11553156932E+02 -0.16567799547E+01  0.85290714665E+01  0.14455636098E+02  0.00000000000E+00 0.  1.
</event>
<event>
 7    1  0.1736465E-010  0.4778727E+02  0.7816164E-02  0.1312668E+00
        -11   -1    0    0    0    0  0.00000000000E+00  0.00000000000E+00  0.45593999997E+02  0.45594000000E+02  0.51100000000E-03 0. -1.
         11   -1    0    0    0    0 -0.00000000000E+00 -0.00000000000E+00 -0.45593999997E+02  0.45594000000E+02  0.51100000000E-03 0.  1.
    9900012    2    1    2    0    0 -0.15396153861E+02  0.22896886852E+02 -0.33500959275E+02  0.47787271278E+02  0.20000001066E+02 0.  0.
         12    1    1    2    0    0  0.15396153861E+02 -0.22896886852E+02  0.33500959275E+02  0.43400728722E+02  0.00000000000E+00 0. -1.
         11    1    3    3    0    0 -0.31286209561E+01  0.11287582799E+02 -0.59039671893E+01  0.13116959380E+02  0.51100000000E-03 0. -1.
        -11    1    3    3    0    0 -0.54381968818E+00  0.21558554492E+01  0.93148737877E+00  0.24106268001E+01  0.51100000000E-03 0.  1.
        -12    1    3    3    0    0 -0.11723713216E+02  0.94534486033E+01 -0.28528479465E+02  0.32259685098E+02  0.00000000000E+00 0.  1.
</event>
<event>
 7    1  0.1736465E-010  0.4778728E+02  0.7816164E-02  0.1312668E+00
        -11   -1    0    0    0    0  0.00000000000E+00  0.00000000000E+00  0.45593999997E+02  0.45594000000E+02  0.51100000000E-03 0.  1.
         11   -1    0    0    0    0 -0.00000000000E+00 -0.00000000000E+00 -0.45593999997E+02  0.45594000000E+02  0.51100000000E-03 0. -1.
    9900012    2    1    2    0    0  0.26311535896E+02  0.34484450190E+02  0.14657931312E+01  0.47787276785E+02  0.20000026171E+02 0.  0.
         12    1    1    2    0    0 -0.26311535896E+02 -0.34484450190E+02 -0.14657931312E+01  0.43400723215E+02  0.00000000000E+00 0. -1.
         11    1    3    3    0    0  0.71191327096E+01  0.86996748920E+01 -0.56844789291E+01  0.12596812879E+02  0.51100000000E-03 0. -1.
        -11    1    3    3    0    0  0.39091566705E+01  0.15511846332E+02  0.24319583914E+01  0.16180645981E+02  0.51100000000E-03 0.  1.
        -12    1    3    3    0    0  0.15283246516E+02  0.10272928966E+02  0.47183136688E+01  0.19009817924E+02  0.00000000000E+00 0.  1.
</event>
<event>
 7    1  0.1736465E-010  0.4778727E+02  0.7816164E-02  0.1312668E+00
        -11   -1    0    0    0    0  0.00000000000E+00  0.00000000000E+00  0.45593999997E+02  0.45594000000E+02  0.51100000000E-03 0. -1.
         11   -1    0    0    0    0 -0.00000000000E+00 -0.00000000000E+00 -0.45593999997E+02  0.45594000000E+02  0.51100000000E-03 0.  1.
    9900012    2    1    2    0    0  0.94063170102E+01  0.22166375928E+02 -0.36108119836E+02  0.47787270288E+02  0.19999996551E+02 0.  0.
         12    1    1    2    0    0 -0.94063170102E+01 -0.22166375928E+02  0.36108119836E+02  0.43400729712E+02  0.00000000000E+00 0. -1.
         11    1    3    3    0    0  0.15092060567E+01  0.13134634302E+02 -0.16974335552E+02  0.21515677746E+02  0.51100000000E-03 0. -1.
        -11    1    3    3    0    0  0.44835662178E+01  0.11422262066E+02 -0.18281771573E+02  0.22018029177E+02  0.51100000000E-03 0.  1.
        -12    1    3    3    0    0  0.34135447357E+01 -0.23905204406E+01 -0.85201271049E+00  0.42535633648E+01  0.00000000000E+00 0.  1.
</event>
<event>
 7    1  0.1736465E-010  0.4778729E+02  0.7816164E-02  0.1312668E+00
        -11   -1    0    0    0    0  0.00000000000E+00  0.00000000000E+00  0.45593999997E+02  0.45594000000E+02  0.51100000000E-03 0. -1.
         11   -1    0    0    0    0 -0.00000000000E+00 -0.00000000000E+00 -0.45593999997E+02  0.45594000000E+02  0.51100000000E-03 0.  1.
    9900012    2    1    2    0    0 -0.18956826646E+02 -0.59297281169E+01 -0.38588838571E+02  0.47787292468E+02  0.20000097679E+02 0.  0.
         12    1    1    2    0    0  0.18956826646E+02  0.59297281169E+01  0.38588838571E+02  0.43400707532E+02  0.00000000000E+00 0. -1.
         11    1    3    3    0    0 -0.63768080522E+01 -0.86242737512E+01 -0.62139753681E+01  0.12395776249E+02  0.51100000000E-03 0. -1.
        -11    1    3    3    0    0 -0.81150956159E+01 -0.13709829870E+01 -0.19780220631E+02  0.21424086905E+02  0.51100000000E-03 0.  1.
        -12    1    3    3    0    0 -0.44649229776E+01  0.40655286213E+01 -0.12594642571E+02  0.13967429315E+02  0.00000000000E+00 0.  1.
</event>
<event>
 7    1  0.1736465E-010  0.4778727E+02  0.7816164E-02  0.1312668E+00
        -11   -1    0    0    0    0  0.00000000000E+00  0.00000000000E+00  0.45593999997E+02  0.45594000000E+02  0.51100000000E-03 0.  1.
         11   -1    0    0    0    0 -0.00000000000E+00 -0.00000000000E+00 -0.45593999997E+02  0.45594000000E+02  0.51100000000E-03 0. -1.
    9900012    2    1    2    0    0 -0.23522175276E+02 -0.29779594266E+01  0.36351927937E+02  0.47787266864E+02  0.19999980938E+02 0.  0.
         12    1    1    2    0    0  0.23522175276E+02  0.29779594266E+01 -0.36351927937E+02  0.43400733136E+02  0.00000000000E+00 0. -1.
         11    1    3    3    0    0 -0.17445770502E+01  0.19527017424E+01  0.87229596824E+00  0.27599807420E+01  0.51100000000E-03 0. -1.
        -11    1    3    3    0    0 -0.12392897158E+02 -0.10749983761E+02  0.24248440442E+02  0.29276832393E+02  0.51100000000E-03 0.  1.
        -12    1    3    3    0    0 -0.93847010682E+01  0.58193225918E+01  0.11231191526E+02  0.15750453729E+02  0.00000000000E+00 0.  1.
</event>
<event>
 7    1  0.1736465E-010  0.4778727E+02  0.7816164E-02  0.1312668E+00
        -11   -1    0    0    0    0  0.00000000000E+00  0.00000000000E+00  0.45593999997E+02  0.45594000000E+02  0.51100000000E-03 0.  1.
         11   -1    0    0    0    0 -0.00000000000E+00 -0.00000000000E+00 -0.45593999997E+02  0.45594000000E+02  0.51100000000E-03 0. -1.
    9900012    2    1    2    0    0  0.30879623817E+02  0.15888069572E+02  0.26031544001E+02  0.47787271839E+02  0.20000003623E+02 0.  0.
         12    1    1    2    0    0 -0.30879623817E+02 -0.15888069572E+02 -0.26031544001E+02  0.43400728161E+02  0.00000000000E+00 0. -1.
         11    1    3    3    0    0  0.52911740498E+01  0.27441609820E+01 -0.16253532550E+01  0.61780835042E+01  0.51100000000E-03 0. -1.
        -11    1    3    3    0    0  0.23714691333E+02  0.10775633027E+02  0.18451585150E+02  0.31921181791E+02  0.51100000000E-03 0.  1.
        -12    1    3    3    0    0  0.18737584342E+01  0.23682755631E+01  0.92053121065E+01  0.96880065437E+01  0.00000000000E+00 0.  1.
</event>
<event>
 7    1  0.1736465E-010  0.4778727E+02  0.7816164E-02  0.1312668E+00
        -11   -1    0    0    0    0  0.00000000000E+00  0.00000000000E+00  0.45593999997E+02  0.45594000000E+02  0.51100000000E-03 0. -1.
         11   -1    0    0    0    0 -0.00000000000E+00 -0.00000000000E+00 -0.45593999997E+02  0.45594000000E+02  0.51100000000E-03 0.  1.
    9900012    2    1    2    0    0 -0.37327321371E+02 -0.15908148596E+02 -0.15402120030E+02  0.47787269431E+02  0.19999992644E+02 0.  0.
         12    1    1    2    0    0  0.37327321371E+02  0.15908148596E+02  0.15402120030E+02  0.43400730569E+02  0.00000000000E+00 0. -1.
         11    1    3    3    0    0 -0.91975207606E+01 -0.24553257526E+01 -0.46933272920E+01  0.10613686166E+02  0.51100000000E-03 0. -1.
        -11    1    3    3    0    0 -0.24524268099E+02 -0.47751443992E+01 -0.11949089903E+02  0.27695170691E+02  0.51100000000E-03 0.  1.
         12    1    3    3    0    0 -0.36055325116E+01 -0.86776784439E+01  0.12402971654E+01  0.94784125742E+01  0.00000000000E+00 0. -1.
</event>
<event>
 7    1  0.1736465E-010  0.4778725E+02  0.7816164E-02  0.1312668E+00
        -11   -1    0    0    0    0  0.00000000000E+00  0.00000000000E+00  0.45593999997E+02  0.45594000000E+02  0.51100000000E-03 0. -1.
         11   -1    0    0    0    0 -0.00000000000E+00 -0.00000000000E+00 -0.45593999997E+02  0.45594000000E+02  0.51100000000E-03 0.  1.
    9900012    2    1    2    0    0 -0.42083696929E+02  0.60938474965E+01 -0.86863395726E+01  0.47787250931E+02  0.19999908296E+02 0.  0.
         12    1    1    2    0    0  0.42083696929E+02 -0.60938474965E+01  0.86863395726E+01  0.43400749069E+02  0.00000000000E+00 0. -1.
         11    1    3    3    0    0 -0.89002407681E+01  0.49478377222E+01  0.98943508135E+00  0.10231049110E+02  0.51100000000E-03 0. -1.
        -11    1    3    3    0    0 -0.35218958947E+01 -0.48541065260E+01 -0.10485827093E+01  0.60881546316E+01  0.51100000000E-03 0.  1.
        -12    1    3    3    0    0 -0.29661560267E+02  0.60001163004E+01 -0.86271919446E+01  0.31468047189E+02  0.00000000000E+00 0.  1.
</event>
<event>
 7    1  0.1736465E-010  0.4778727E+02  0.7816164E-02  0.1312668E+00
        -11   -1    0    0    0    0  0.00000000000E+00  0.00000000000E+00  0.45593999997E+02  0.45594000000E+02  0.51100000000E-03 0. -1.
         11   -1    0    0    0    0 -0.00000000000E+00 -0.00000000000E+00 -0.45593999997E+02  0.45594000000E+02  0.51100000000E-03 0.  1.
    9900012    2    1    2    0    0  0.40625806283E+02 -0.11768410514E+02  0.97299425927E+01  0.47787269533E+02  0.19999993109E+02 0.  0.
         12    1    1    2    0    0 -0.40625806283E+02  0.11768410514E+02 -0.97299425927E+01  0.43400730467E+02  0.00000000000E+00 0. -1.
         11    1    3    3    0    0  0.17431204013E+02 -0.13668857363E+01  0.73369010775E+01  0.18961681562E+02  0.51100000000E-03 0. -1.
        -11    1    3    3    0    0  0.14983379204E+02  0.60300646225E+00  0.12994642025E+01  0.15051706769E+02  0.51100000000E-03 0.  1.
        -12    1    3    3    0    0  0.82112230662E+01 -0.11004531240E+02  0.10935773127E+01  0.13773881203E+02  0.00000000000E+00 0.  1.
</event>
<event>
 7    1  0.1736465E-010  0.4778726E+02  0.7816164E-02  0.1312668E+00
        -11   -1    0    0    0    0  0.00000000000E+00  0.00000000000E+00  0.45593999997E+02  0.45594000000E+02  0.51100000000E-03 0.  1.
         11   -1    0    0    0    0 -0.00000000000E+00 -0.00000000000E+00 -0.45593999997E+02  0.45594000000E+02  0.51100000000E-03 0. -1.
    9900012    2    1    2    0    0 -0.19430487317E+02  0.38436495510E+02  0.53587599925E+01  0.47787258841E+02  0.19999944359E+02 0.  0.
         12    1    1    2    0    0  0.19430487317E+02 -0.38436495510E+02 -0.53587599925E+01  0.43400741159E+02  0.00000000000E+00 0. -1.
         11    1    3    3    0    0  0.27286137103E+00  0.15710722811E+02 -0.24459460244E+01  0.15902324258E+02  0.51100000000E-03 0. -1.
        -11    1    3    3    0    0 -0.55089878330E+01  0.88898327327E+01  0.58071906749E+01  0.11962505455E+02  0.51100000000E-03 0.  1.
         12    1    3    3    0    0 -0.14194360855E+02  0.13835939966E+02  0.19975153421E+01  0.19922429129E+02  0.00000000000E+00 0. -1.
</event>
<event>
 7    1  0.1736465E-010  0.4778727E+02  0.7816164E-02  0.1312668E+00
        -11   -1    0    0    0    0  0.00000000000E+00  0.00000000000E+00  0.45593999997E+02  0.45594000000E+02  0.51100000000E-03 0. -1.
         11   -1    0    0    0    0 -0.00000000000E+00 -0.00000000000E+00 -0.45593999997E+02  0.45594000000E+02  0.51100000000E-03 0.  1.
    9900012    2    1    2    0    0 -0.41344817800E+02  0.11475287473E+02 -0.65228231794E+01  0.47787269548E+02  0.19999993179E+02 0.  0.
         12    1    1    2    0    0  0.41344817800E+02 -0.11475287473E+02  0.65228231794E+01  0.43400730452E+02  0.00000000000E+00 0. -1.
         11    1    3    3    0    0  0.61313309633E+00 -0.34899903116E+00  0.11019145089E+01  0.13084144464E+01  0.51100000000E-03 0. -1.
        -11    1    3    3    0    0 -0.31717064143E+02  0.14575577268E+02 -0.34251587694E+01  0.35073513132E+02  0.51100000000E-03 0.  1.
        -12    1    3    3    0    0 -0.10240886753E+02 -0.27512907637E+01 -0.41995789190E+01  0.11405341970E+02  0.00000000000E+00 0.  1.
</event>
<event>
 7    1  0.1736465E-010  0.4778727E+02  0.7816164E-02  0.1312668E+00
        -11   -1    0    0    0    0  0.00000000000E+00  0.00000000000E+00  0.45593999997E+02  0.45594000000E+02  0.51100000000E-03 0. -1.
         11   -1    0    0    0    0 -0.00000000000E+00 -0.00000000000E+00 -0.45593999997E+02  0.45594000000E+02  0.51100000000E-03 0.  1.
    9900012    2    1    2    0    0  0.36690593817E+02  0.21290799383E+02 -0.91719876716E+01  0.47787272231E+02  0.20000005411E+02 0.  0.
         12    1    1    2    0    0 -0.36690593817E+02 -0.21290799383E+02  0.91719876716E+01  0.43400727769E+02  0.00000000000E+00 0. -1.
         11    1    3    3    0    0  0.32225745289E+01  0.55864109726E+01 -0.31597382738E+01  0.71817073436E+01  0.51100000000E-03 0. -1.
        -11    1    3    3    0    0  0.14849795414E+02  0.74696638160E+01 -0.10629313886E+02  0.19730550304E+02  0.51100000000E-03 0.  1.
         12    1    3    3    0    0  0.18618223874E+02  0.82347245948E+01  0.46170644878E+01  0.20875014583E+02  0.00000000000E+00 0. -1.
</event>
<event>
 7    1  0.1736465E-010  0.4778728E+02  0.7816164E-02  0.1312668E+00
        -11   -1    0    0    0    0  0.00000000000E+00  0.00000000000E+00  0.45593999997E+02  0.45594000000E+02  0.51100000000E-03 0.  1.
         11   -1    0    0    0    0 -0.00000000000E+00 -0.00000000000E+00 -0.45593999997E+02  0.45594000000E+02  0.51100000000E-03 0. -1.
    9900012    2    1    2    0    0 -0.33463230751E+02  0.15250738687E+00  0.27637144020E+02  0.47787276500E+02  0.20000024873E+02 0.  0.
         12    1    1    2    0    0  0.33463230751E+02 -0.15250738687E+00 -0.27637144020E+02  0.43400723500E+02  0.00000000000E+00 0. -1.
         11    1    3    3    0    0 -0.21418790058E+02  0.25224717529E+01  0.11898890323E+02  0.24631504674E+02  0.51100000000E-03 0. -1.
        -11    1    3    3    0    0 -0.12691023691E+02 -0.54497420658E+01  0.13306686213E+02  0.19178886025E+02  0.51100000000E-03 0.  1.
         12    1    3    3    0    0  0.64658299817E+00  0.30797776997E+01  0.24315674834E+01  0.39768858017E+01  0.00000000000E+00 0. -1.
</event>
<event>
 7    1  0.1736465E-010  0.4778726E+02  0.7816164E-02  0.1312668E+00
        -11   -1    0    0    0    0  0.00000000000E+00  0.00000000000E+00  0.45593999997E+02  0.45594000000E+02  0.51100000000E-03 0.  1.
         11   -1    0    0    0    0 -0.00000000000E+00 -0.00000000000E+00 -0.45593999997E+02  0.45594000000E+02  0.51100000000E-03 0. -1.
    9900012    2    1    2    0    0 -0.91578614817E+01 -0.47204343121E+01  0.42160112794E+02  0.47787262243E+02  0.19999959873E+02 0.  0.
         12    1    1    2    0    0  0.91578614817E+01  0.47204343121E+01 -0.42160112794E+02  0.43400737757E+02  0.00000000000E+00 0. -1.
         11    1    3    3    0    0 -0.17953848644E+01 -0.44408100873E+01  0.71202783238E+00  0.48426423509E+01  0.51100000000E-03 0. -1.
        -11    1    3    3    0    0 -0.29295839744E+01 -0.41034249035E+01  0.24515271311E+02  0.25028365626E+02  0.51100000000E-03 0.  1.
        -12    1    3    3    0    0 -0.44328926429E+01  0.38238006787E+01  0.16932813650E+02  0.17916254266E+02  0.00000000000E+00 0.  1.
</event>
<event>
 7    1  0.1736465E-010  0.4778725E+02  0.7816164E-02  0.1312668E+00
        -11   -1    0    0    0    0  0.00000000000E+00  0.00000000000E+00  0.45593999997E+02  0.45594000000E+02  0.51100000000E-03 0.  1.
         11   -1    0    0    0    0 -0.00000000000E+00 -0.00000000000E+00 -0.45593999997E+02  0.45594000000E+02  0.51100000000E-03 0. -1.
    9900012    2    1    2    0    0 -0.16110084763E+02  0.37732105482E+02  0.14155497212E+02  0.47787254425E+02  0.19999924225E+02 0.  0.
         12    1    1    2    0    0  0.16110084763E+02 -0.37732105482E+02 -0.14155497212E+02  0.43400745575E+02  0.00000000000E+00 0. -1.
         11    1    3    3    0    0 -0.86343811107E+01  0.28597778985E+02  0.13514274511E+02  0.32787514634E+02  0.51100000000E-03 0. -1.
        -11    1    3    3    0    0 -0.57146199282E+01  0.28338917456E+01  0.41168408713E+01  0.75918510503E+01  0.51100000000E-03 0.  1.
         12    1    3    3    0    0 -0.17610837242E+01  0.63004347509E+01 -0.34756181698E+01  0.74078887408E+01  0.00000000000E+00 0. -1.
</event>
<event>
 7    1  0.1736465E-010  0.4778727E+02  0.7816164E-02  0.1312668E+00
        -11   -1    0    0    0    0  0.00000000000E+00  0.00000000000E+00  0.45593999997E+02  0.45594000000E+02  0.51100000000E-03 0. -1.
         11   -1    0    0    0    0 -0.00000000000E+00 -0.00000000000E+00 -0.45593999997E+02  0.45594000000E+02  0.51100000000E-03 0.  1.
    9900012    2    1    2    0    0 -0.41453197738E+02  0.10791065103E+02 -0.69863047748E+01  0.47787272551E+02  0.20000006868E+02 0.  0.
         12    1    1    2    0    0  0.41453197738E+02 -0.10791065103E+02  0.69863047748E+01  0.43400727449E+02  0.00000000000E+00 0. -1.
         11    1    3    3    0    0 -0.88650961849E+01 -0.18383356451E+01  0.48300650733E+01  0.10261527040E+02  0.51100000000E-03 0. -1.
        -11    1    3    3    0    0 -0.20743521774E+02  0.67225247397E+01 -0.40465428989E+01  0.22177929213E+02  0.51100000000E-03 0.  1.
         12    1    3    3    0    0 -0.11844579778E+02  0.59068760081E+01 -0.77698269492E+01  0.15347816298E+02  0.00000000000E+00 0. -1.
</event>
<event>
 7    1  0.1736465E-010  0.4778727E+02  0.7816164E-02  0.1312668E+00
        -11   -1    0    0    0    0  0.00000000000E+00  0.00000000000E+00  0.45593999997E+02  0.45594000000E+02  0.51100000000E-03 0. -1.
         11   -1    0    0    0    0 -0.00000000000E+00 -0.00000000000E+00 -0.45593999997E+02  0.45594000000E+02  0.51100000000E-03 0.  1.
    9900012    2    1    2    0    0  0.26987364995E+02 -0.16245134948E+02 -0.29856339817E+02  0.47787270673E+02  0.19999998305E+02 0.  0.
         12    1    1    2    0    0 -0.26987364995E+02  0.16245134948E+02  0.29856339817E+02  0.43400729327E+02  0.00000000000E+00 0. -1.
         11    1    3    3    0    0  0.16830227618E+02 -0.88946595315E+01 -0.80728641453E+01  0.20677104866E+02  0.51100000000E-03 0. -1.
        -11    1    3    3    0    0  0.97578588011E+01 -0.96162980526E+01 -0.17269736094E+02  0.22043883089E+02  0.51100000000E-03 0.  1.
        -12    1    3    3    0    0  0.39927857542E+00  0.22658226361E+01 -0.45137395784E+01  0.50662827182E+01  0.00000000000E+00 0.  1.
</event>
<event>
 7    1  0.1736465E-010  0.4778727E+02  0.7816164E-02  0.1312668E+00
        -11   -1    0    0    0    0  0.00000000000E+00  0.00000000000E+00  0.45593999997E+02  0.45594000000E+02  0.51100000000E-03 0.  1.
         11   -1    0    0    0    0 -0.00000000000E+00 -0.00000000000E+00 -0.45593999997E+02  0.45594000000E+02  0.51100000000E-03 0. -1.
    9900012    2    1    2    0    0  0.40836714747E+02  0.11605704965E+01  0.14650569381E+02  0.47787269841E+02  0.19999994511E+02 0.  0.
         12    1    1    2    0    0 -0.40836714747E+02 -0.11605704965E+01 -0.14650569381E+02  0.43400730159E+02  0.00000000000E+00 0. -1.
         11    1    3    3    0    0  0.27488687645E+02 -0.30668400439E+01  0.24167089522E+01  0.27764616668E+02  0.51100000000E-03 0. -1.
        -11    1    3    3    0    0  0.11820406363E+02  0.39796321814E+01  0.64620685100E+01  0.14046985747E+02  0.51100000000E-03 0.  1.
        -12    1    3    3    0    0  0.15276207395E+01  0.24777835904E+00  0.57717919185E+01  0.59756674262E+01  0.00000000000E+00 0.  1.
</event>
<event>
 7    1  0.1736465E-010  0.4778727E+02  0.7816164E-02  0.1312668E+00
        -11   -1    0    0    0    0  0.00000000000E+00  0.00000000000E+00  0.45593999997E+02  0.45594000000E+02  0.51100000000E-03 0. -1.
         11   -1    0    0    0    0 -0.00000000000E+00 -0.00000000000E+00 -0.45593999997E+02  0.45594000000E+02  0.51100000000E-03 0.  1.
    9900012    2    1    2    0    0 -0.27361388109E+02  0.31994596671E+02 -0.10551003017E+02  0.47787269130E+02  0.19999991271E+02 0.  0.
         12    1    1    2    0    0  0.27361388109E+02 -0.31994596671E+02  0.10551003017E+02  0.43400730870E+02  0.00000000000E+00 0. -1.
         11    1    3    3    0    0 -0.10091682010E+02  0.11506676115E+02 -0.15433512413E+01  0.15382703739E+02  0.51100000000E-03 0. -1.
        -11    1    3    3    0    0 -0.21477918663E+01  0.97001251375E+00 -0.72819745453E+01  0.76538283046E+01  0.51100000000E-03 0.  1.
        -12    1    3    3    0    0 -0.15121914232E+02  0.19517908042E+02 -0.17256772303E+01  0.24750737086E+02  0.00000000000E+00 0.  1.
</event>
<event>
 7    1  0.1736465E-010  0.4778728E+02  0.7816164E-02  0.1312668E+00
        -11   -1    0    0    0    0  0.00000000000E+00  0.00000000000E+00  0.45593999997E+02  0.45594000000E+02  0.51100000000E-03 0.  1.
         11   -1    0    0    0    0 -0.00000000000E+00 -0.00000000000E+00 -0.45593999997E+02  0.45594000000E+02  0.51100000000E-03 0. -1.
    9900012    2    1    2    0    0  0.63473102487E+00 -0.37726908840E+02  0.21445279904E+02  0.47787279220E+02  0.20000037273E+02 0.  0.
         12    1    1    2    0    0 -0.63473102487E+00  0.37726908840E+02 -0.21445279904E+02  0.43400720780E+02  0.00000000000E+00 0. -1.
         11    1    3    3    0    0 -0.28114572974E+01 -0.23195303458E+01  0.29097155671E+01  0.46637922448E+01  0.51100000000E-03 0. -1.
        -11    1    3    3    0    0 -0.27415060892E+01 -0.29105155149E+02  0.10153362946E+02  0.30946998097E+02  0.51100000000E-03 0.  1.
         12    1    3    3    0    0  0.61876944114E+01 -0.63022233459E+01  0.83822013903E+01  0.12176488877E+02  0.00000000000E+00 0. -1.
</event>
<event>
 7    1  0.1736465E-010  0.4778727E+02  0.7816164E-02  0.1312668E+00
        -11   -1    0    0    0    0  0.00000000000E+00  0.00000000000E+00  0.45593999997E+02  0.45594000000E+02  0.51100000000E-03 0. -1.
         11   -1    0    0    0    0 -0.00000000000E+00 -0.00000000000E+00 -0.45593999997E+02  0.45594000000E+02  0.51100000000E-03 0.  1.
    9900012    2    1    2    0    0  0.75735060561E+01  0.41746377672E+02 -0.91381044575E+01  0.47787274248E+02  0.20000014608E+02 0.  0.
         12    1    1    2    0    0 -0.75735060561E+01 -0.41746377672E+02  0.91381044575E+01  0.43400725752E+02  0.00000000000E+00 0. -1.
         11    1    3    3    0    0  0.35483556590E+01  0.49441909176E+01 -0.57311987130E+01  0.83595747895E+01  0.51100000000E-03 0. -1.
        -11    1    3    3    0    0  0.58127414991E+01  0.13976744411E+02  0.34542587121E+01  0.15526404979E+02  0.51100000000E-03 0.  1.
        -12    1    3    3    0    0 -0.17875911020E+01  0.22825442343E+02 -0.68611644566E+01  0.23901294480E+02  0.00000000000E+00 0.  1.
</event>
<event>
 7    1  0.1736465E-010  0.4778727E+02  0.7816164E-02  0.1312668E+00
        -11   -1    0    0    0    0  0.00000000000E+00  0.00000000000E+00  0.45593999997E+02  0.45594000000E+02  0.51100000000E-03 0.  1.
         11   -1    0    0    0    0 -0.00000000000E+00 -0.00000000000E+00 -0.45593999997E+02  0.45594000000E+02  0.51100000000E-03 0. -1.
    9900012    2    1    2    0    0  0.41095483100E+02 -0.12514217083E+02  0.61789022536E+01  0.47787271971E+02  0.20000004224E+02 0.  0.
         12    1    1    2    0    0 -0.41095483100E+02  0.12514217083E+02 -0.61789022536E+01  0.43400728029E+02  0.00000000000E+00 0. -1.
         11    1    3    3    0    0  0.14165524179E+02  0.25344915981E+01  0.22709198156E+01  0.14568555179E+02  0.51100000000E-03 0.  1.
        -11    1    3    3    0    0  0.27754356929E+02 -0.14442526350E+02  0.50424220159E+01  0.31690959531E+02  0.51100000000E-03 0. -1.
         12    1    3    3    0    0 -0.82439800826E+00 -0.60618233121E+00 -0.11344395779E+01  0.15277572617E+01  0.00000000000E+00 0. -1.
</event>
<event>
 7    1  0.1736465E-010  0.4778727E+02  0.7816164E-02  0.1312668E+00
        -11   -1    0    0    0    0  0.00000000000E+00  0.00000000000E+00  0.45593999997E+02  0.45594000000E+02  0.51100000000E-03 0. -1.
         11   -1    0    0    0    0 -0.00000000000E+00 -0.00000000000E+00 -0.45593999997E+02  0.45594000000E+02  0.51100000000E-03 0.  1.
    9900012    2    1    2    0    0 -0.34165805354E+02 -0.16173906490E+01 -0.26715253844E+02  0.47787274247E+02  0.20000014600E+02 0.  0.
         12    1    1    2    0    0  0.34165805354E+02  0.16173906490E+01  0.26715253844E+02  0.43400725753E+02  0.00000000000E+00 0. -1.
         11    1    3    3    0    0 -0.56401707709E+01  0.10560460543E+01 -0.10173488786E+02  0.11680181246E+02  0.51100000000E-03 0.  1.
        -11    1    3    3    0    0 -0.10586417983E+02  0.40569231406E+01 -0.11810723148E+02  0.16371440151E+02  0.51100000000E-03 0. -1.
        -12    1    3    3    0    0 -0.17939216599E+02 -0.67303598440E+01 -0.47310419093E+01  0.19735652849E+02  0.00000000000E+00 0.  1.
</event>
<event>
 7    1  0.1736465E-010  0.4778727E+02  0.7816164E-02  0.1312668E+00
        -11   -1    0    0    0    0  0.00000000000E+00  0.00000000000E+00  0.45593999997E+02  0.45594000000E+02  0.51100000000E-03 0.  1.
         11   -1    0    0    0    0 -0.00000000000E+00 -0.00000000000E+00 -0.45593999997E+02  0.45594000000E+02  0.51100000000E-03 0. -1.
    9900012    2    1    2    0    0  0.19897678234E+02 -0.16504987195E+02  0.34861024569E+02  0.47787271487E+02  0.20000002019E+02 0.  0.
         12    1    1    2    0    0 -0.19897678234E+02  0.16504987195E+02 -0.34861024569E+02  0.43400728513E+02  0.00000000000E+00 0. -1.
         11    1    3    3    0    0  0.97316852920E+00 -0.86371426368E+01  0.11375149897E+02  0.14315771909E+02  0.51100000000E-03 0. -1.
        -11    1    3    3    0    0  0.13804802830E+02 -0.10310323902E+02  0.13125832964E+02  0.21660167391E+02  0.51100000000E-03 0.  1.
         12    1    3    3    0    0  0.51197068748E+01  0.24424793445E+01  0.10360041708E+02  0.11811332187E+02  0.00000000000E+00 0. -1.
</event>
<event>
 7    1  0.1736465E-010  0.4778728E+02  0.7816164E-02  0.1312668E+00
        -11   -1    0    0    0    0  0.00000000000E+00  0.00000000000E+00  0.45593999997E+02  0.45594000000E+02  0.51100000000E-03 0.  1.
         11   -1    0    0    0    0 -0.00000000000E+00 -0.00000000000E+00 -0.45593999997E+02  0.45594000000E+02  0.51100000000E-03 0. -1.
    9900012    2    1    2    0    0  0.15546848803E+02 -0.21700556022E+02  0.34219932580E+02  0.47787280822E+02  0.20000044580E+02 0.  0.
         12    1    1    2    0    0 -0.15546848803E+02  0.21700556022E+02 -0.34219932580E+02  0.43400719178E+02  0.00000000000E+00 0. -1.
         11    1    3    3    0    0  0.87417145316E+01 -0.33710067510E+01  0.63251231460E+01  0.11304355025E+02  0.51100000000E-03 0. -1.
        -11    1    3    3    0    0  0.80231934642E+01 -0.19177198157E+02  0.21453499227E+02  0.29872883889E+02  0.51100000000E-03 0.  1.
         12    1    3    3    0    0 -0.12180591924E+01  0.84764888640E+00  0.64413102074E+01  0.66100419075E+01  0.00000000000E+00 0. -1.
</event>
<event>
 7    1  0.1736465E-010  0.4778727E+02  0.7816164E-02  0.1312668E+00
        -11   -1    0    0    0    0  0.00000000000E+00  0.00000000000E+00  0.45593999997E+02  0.45594000000E+02  0.51100000000E-03 0.  1.
         11   -1    0    0    0    0 -0.00000000000E+00 -0.00000000000E+00 -0.45593999997E+02  0.45594000000E+02  0.51100000000E-03 0. -1.
    9900012    2    1    2    0    0 -0.27589859640E+02 -0.28057725081E+02  0.18308111829E+02  0.47787271314E+02  0.20000001230E+02 0.  0.
         12    1    1    2    0    0  0.27589859640E+02  0.28057725081E+02 -0.18308111829E+02  0.43400728686E+02  0.00000000000E+00 0. -1.
         11    1    3    3    0    0 -0.37704900970E+01 -0.93331960111E+01  0.55635226839E+01  0.11501214208E+02  0.51100000000E-03 0. -1.
        -11    1    3    3    0    0 -0.28144273072E+01 -0.82075922253E+01  0.89952644536E+01  0.12498014004E+02  0.51100000000E-03 0.  1.
         12    1    3    3    0    0 -0.21004942236E+02 -0.10516936845E+02  0.37493246914E+01  0.23788043101E+02  0.00000000000E+00 0. -1.
</event>
<event>
 7    1  0.1736465E-010  0.4778727E+02  0.7816164E-02  0.1312668E+00
        -11   -1    0    0    0    0  0.00000000000E+00  0.00000000000E+00  0.45593999997E+02  0.45594000000E+02  0.51100000000E-03 0.  1.
         11   -1    0    0    0    0 -0.00000000000E+00 -0.00000000000E+00 -0.45593999997E+02  0.45594000000E+02  0.51100000000E-03 0. -1.
    9900012    2    1    2    0    0 -0.14372208778E+02  0.78093130385E+01  0.40200467151E+02  0.47787270577E+02  0.19999997869E+02 0.  0.
         12    1    1    2    0    0  0.14372208778E+02 -0.78093130385E+01 -0.40200467151E+02  0.43400729423E+02  0.00000000000E+00 0. -1.
         11    1    3    3    0    0 -0.46680479286E+01 -0.40831525108E+01  0.56985768546E+01  0.84223859042E+01  0.51100000000E-03 0. -1.
        -11    1    3    3    0    0 -0.19647859890E+01  0.73989191871E+01  0.67517402856E+01  0.10207369214E+02  0.51100000000E-03 0.  1.
        -12    1    3    3    0    0 -0.77393748605E+01  0.44935463621E+01  0.27750150011E+02  0.29157515459E+02  0.00000000000E+00 0.  1.
</event>
<event>
 7    1  0.1736465E-010  0.4778727E+02  0.7816164E-02  0.1312668E+00
        -11   -1    0    0    0    0  0.00000000000E+00  0.00000000000E+00  0.45593999997E+02  0.45594000000E+02  0.51100000000E-03 0.  1.
         11   -1    0    0    0    0 -0.00000000000E+00 -0.00000000000E+00 -0.45593999997E+02  0.45594000000E+02  0.51100000000E-03 0. -1.
    9900012    2    1    2    0    0 -0.13969317030E+02  0.38950896495E+01  0.40906110913E+02  0.47787268996E+02  0.19999990661E+02 0.  0.
         12    1    1    2    0    0  0.13969317030E+02 -0.38950896495E+01 -0.40906110913E+02  0.43400731004E+02  0.00000000000E+00 0. -1.
         11    1    3    3    0    0  0.13594746507E+00  0.33187771763E+01  0.38578824885E+01  0.50907780560E+01  0.51100000000E-03 0. -1.
        -11    1    3    3    0    0 -0.17845313700E+01  0.68184497053E+01  0.89940281551E+01  0.11426650923E+02  0.51100000000E-03 0.  1.
        -12    1    3    3    0    0 -0.12320733125E+02 -0.62421372321E+01  0.28054200269E+02  0.31269840017E+02  0.00000000000E+00 0.  1.
</event>
<event>
 7    1  0.1736465E-010  0.4778727E+02  0.7816164E-02  0.1312668E+00
        -11   -1    0    0    0    0  0.00000000000E+00  0.00000000000E+00  0.45593999997E+02  0.45594000000E+02  0.51100000000E-03 0. -1.
         11   -1    0    0    0    0 -0.00000000000E+00 -0.00000000000E+00 -0.45593999997E+02  0.45594000000E+02  0.51100000000E-03 0.  1.
    9900012    2    1    2    0    0  0.62352404946E+01 -0.13292001777E+02 -0.40841984333E+02  0.47787271671E+02  0.20000002856E+02 0.  0.
         12    1    1    2    0    0 -0.62352404946E+01  0.13292001777E+02  0.40841984333E+02  0.43400728329E+02  0.00000000000E+00 0. -1.
         11    1    3    3    0    0  0.55151754615E+01 -0.43426117035E+01 -0.59974325646E+01  0.92328020886E+01  0.51100000000E-03 0. -1.
        -11    1    3    3    0    0 -0.13734050420E+01 -0.10869158416E+02 -0.33794827353E+02  0.35526260740E+02  0.51100000000E-03 0.  1.
         12    1    3    3    0    0  0.20934700751E+01  0.19197683424E+01 -0.10497244147E+01  0.30282088419E+01  0.00000000000E+00 0. -1.
</event>
<event>
 7    1  0.1736465E-010  0.4778728E+02  0.7816164E-02  0.1312668E+00
        -11   -1    0    0    0    0  0.00000000000E+00  0.00000000000E+00  0.45593999997E+02  0.45594000000E+02  0.51100000000E-03 0.  1.
         11   -1    0    0    0    0 -0.00000000000E+00 -0.00000000000E+00 -0.45593999997E+02  0.45594000000E+02  0.51100000000E-03 0. -1.
    9900012    2    1    2    0    0  0.40793884844E+02  0.12937167434E+02  0.72188349376E+01  0.47787275124E+02  0.20000018601E+02 0.  0.
         12    1    1    2    0    0 -0.40793884844E+02 -0.12937167434E+02 -0.72188349376E+01  0.43400724876E+02  0.00000000000E+00 0. -1.
         11    1    3    3    0    0  0.30696599194E+01 -0.85802313484E+00  0.52459039689E+01  0.61382835087E+01  0.51100000000E-03 0.  1.
        -11    1    3    3    0    0  0.93341557911E+01  0.68767544672E+01 -0.30764645018E+01  0.11995034407E+02  0.51100000000E-03 0. -1.
        -12    1    3    3    0    0  0.28390069134E+02  0.69184361021E+01  0.50493954705E+01  0.29653957208E+02  0.00000000000E+00 0.  1.
</event>
<event>
 7    1  0.1736465E-010  0.4778727E+02  0.7816164E-02  0.1312668E+00
        -11   -1    0    0    0    0  0.00000000000E+00  0.00000000000E+00  0.45593999997E+02  0.45594000000E+02  0.51100000000E-03 0.  1.
         11   -1    0    0    0    0 -0.00000000000E+00 -0.00000000000E+00 -0.45593999997E+02  0.45594000000E+02  0.51100000000E-03 0. -1.
    9900012    2    1    2    0    0 -0.83983371692E+01  0.35693754645E+01  0.42430540552E+02  0.47787270974E+02  0.19999999679E+02 0.  0.
         12    1    1    2    0    0  0.83983371692E+01 -0.35693754645E+01 -0.42430540552E+02  0.43400729026E+02  0.00000000000E+00 0. -1.
         11    1    3    3    0    0 -0.52963862497E+01 -0.46545252358E+01  0.44871409617E+01  0.83576759178E+01  0.51100000000E-03 0. -1.
        -11    1    3    3    0    0 -0.40891623656E+01  0.34728512922E+01  0.13857697965E+02  0.14859937352E+02  0.51100000000E-03 0.  1.
         12    1    3    3    0    0  0.98721144604E+00  0.47510494081E+01  0.24085701625E+02  0.24569657704E+02  0.00000000000E+00 0. -1.
</event>
<event>
 7    1  0.1736465E-010  0.4778727E+02  0.7816164E-02  0.1312668E+00
        -11   -1    0    0    0    0  0.00000000000E+00  0.00000000000E+00  0.45593999997E+02  0.45594000000E+02  0.51100000000E-03 0. -1.
         11   -1    0    0    0    0 -0.00000000000E+00 -0.00000000000E+00 -0.45593999997E+02  0.45594000000E+02  0.51100000000E-03 0.  1.
    9900012    2    1    2    0    0  0.24733236672E+02  0.25974957806E+02 -0.24437509580E+02  0.47787270700E+02  0.19999998430E+02 0.  0.
         12    1    1    2    0    0 -0.24733236672E+02 -0.25974957806E+02  0.24437509580E+02  0.43400729300E+02  0.00000000000E+00 0. -1.
         11    1    3    3    0    0  0.57128763140E+01  0.23772844101E+01 -0.14150889437E+01  0.63475124202E+01  0.51100000000E-03 0. -1.
        -11    1    3    3    0    0  0.97412158777E+01  0.22775661299E+02 -0.19323106633E+02  0.31416627518E+02  0.51100000000E-03 0.  1.
        -12    1    3    3    0    0  0.92791444802E+01  0.82201209672E+00 -0.36993140033E+01  0.10023130762E+02  0.00000000000E+00 0.  1.
</event>
<event>
 7    1  0.1736465E-010  0.4778727E+02  0.7816164E-02  0.1312668E+00
        -11   -1    0    0    0    0  0.00000000000E+00  0.00000000000E+00  0.45593999997E+02  0.45594000000E+02  0.51100000000E-03 0. -1.
         11   -1    0    0    0    0 -0.00000000000E+00 -0.00000000000E+00 -0.45593999997E+02  0.45594000000E+02  0.51100000000E-03 0.  1.
    9900012    2    1    2    0    0 -0.26885547766E+02 -0.31274756445E+02 -0.13515926937E+02  0.47787270164E+02  0.19999995984E+02 0.  0.
         12    1    1    2    0    0  0.26885547766E+02  0.31274756445E+02  0.13515926937E+02  0.43400729836E+02  0.00000000000E+00 0. -1.
         11    1    3    3    0    0 -0.10653622918E+02 -0.88642299353E+01 -0.78091856683E+01  0.15907785348E+02  0.51100000000E-03 0. -1.
        -11    1    3    3    0    0 -0.12842898549E+02 -0.96678888644E+01 -0.88137383170E+01  0.18332760338E+02  0.51100000000E-03 0.  1.
        -12    1    3    3    0    0 -0.33890262996E+01 -0.12742637645E+02  0.31069970486E+01  0.13546724477E+02  0.00000000000E+00 0.  1.
</event>
<event>
 7    1  0.1736465E-010  0.4778727E+02  0.7816164E-02  0.1312668E+00
        -11   -1    0    0    0    0  0.00000000000E+00  0.00000000000E+00  0.45593999997E+02  0.45594000000E+02  0.51100000000E-03 0. -1.
         11   -1    0    0    0    0 -0.00000000000E+00 -0.00000000000E+00 -0.45593999997E+02  0.45594000000E+02  0.51100000000E-03 0.  1.
    9900012    2    1    2    0    0  0.12991319147E+02  0.15292106543E+02 -0.38483772471E+02  0.47787266835E+02  0.19999980807E+02 0.  0.
         12    1    1    2    0    0 -0.12991319147E+02 -0.15292106543E+02  0.38483772471E+02  0.43400733165E+02  0.00000000000E+00 0. -1.
         11    1    3    3    0    0  0.94598707144E+00 -0.26625208751E+01 -0.64121658666E+01  0.70071235405E+01  0.51100000000E-03 0. -1.
        -11    1    3    3    0    0  0.21925259441E+01  0.14441236183E+02 -0.16696078401E+02  0.22183676583E+02  0.51100000000E-03 0.  1.
         12    1    3    3    0    0  0.98528061316E+01  0.35133912352E+01 -0.15375528203E+02  0.18596466712E+02  0.00000000000E+00 0. -1.
</event>
<event>
 7    1  0.1736465E-010  0.4778727E+02  0.7816164E-02  0.1312668E+00
        -11   -1    0    0    0    0  0.00000000000E+00  0.00000000000E+00  0.45593999997E+02  0.45594000000E+02  0.51100000000E-03 0. -1.
         11   -1    0    0    0    0 -0.00000000000E+00 -0.00000000000E+00 -0.45593999997E+02  0.45594000000E+02  0.51100000000E-03 0.  1.
    9900012    2    1    2    0    0  0.33689655103E+02 -0.26218724189E+01 -0.27235205498E+02  0.47787268503E+02  0.19999988411E+02 0.  0.
         12    1    1    2    0    0 -0.33689655103E+02  0.26218724189E+01  0.27235205498E+02  0.43400731497E+02  0.00000000000E+00 0. -1.
         11    1    3    3    0    0 -0.13583799031E+01  0.10791177762E-01 -0.58729161310E+01  0.60279728395E+01  0.51100000000E-03 0. -1.
        -11    1    3    3    0    0  0.14635254938E+02 -0.27658432786E+01 -0.12740393561E+02  0.19599954196E+02  0.51100000000E-03 0.  1.
         12    1    3    3    0    0  0.20412780069E+02  0.13317968192E+00 -0.86218958066E+01  0.22159341467E+02  0.00000000000E+00 0. -1.
</event>
<event>
 7    1  0.1736465E-010  0.4778727E+02  0.7816164E-02  0.1312668E+00
        -11   -1    0    0    0    0  0.00000000000E+00  0.00000000000E+00  0.45593999997E+02  0.45594000000E+02  0.51100000000E-03 0.  1.
         11   -1    0    0    0    0 -0.00000000000E+00 -0.00000000000E+00 -0.45593999997E+02  0.45594000000E+02  0.51100000000E-03 0. -1.
    9900012    2    1    2    0    0 -0.14456786923E+02 -0.32268577645E+02  0.25166723627E+02  0.47787265335E+02  0.19999973967E+02 0.  0.
         12    1    1    2    0    0  0.14456786923E+02  0.32268577645E+02 -0.25166723627E+02  0.43400734665E+02  0.00000000000E+00 0. -1.
         11    1    3    3    0    0 -0.59013916698E+00  0.22305262975E+01  0.98001977850E+00  0.25067809692E+01  0.51100000000E-03 0. -1.
        -11    1    3    3    0    0 -0.95185118649E+01 -0.11766576183E+02  0.96633482957E+01  0.17956466349E+02  0.51100000000E-03 0.  1.
        -12    1    3    3    0    0 -0.43481358910E+01 -0.22732527760E+02  0.14523355553E+02  0.27324018017E+02  0.00000000000E+00 0.  1.
</event>
<event>
 7    1  0.1736465E-010  0.4778727E+02  0.7816164E-02  0.1312668E+00
        -11   -1    0    0    0    0  0.00000000000E+00  0.00000000000E+00  0.45593999997E+02  0.45594000000E+02  0.51100000000E-03 0.  1.
         11   -1    0    0    0    0 -0.00000000000E+00 -0.00000000000E+00 -0.45593999997E+02  0.45594000000E+02  0.51100000000E-03 0. -1.
    9900012    2    1    2    0    0 -0.71280670049E+01 -0.17514537693E+02  0.39064752037E+02  0.47787271647E+02  0.20000002748E+02 0.  0.
         12    1    1    2    0    0  0.71280670049E+01  0.17514537693E+02 -0.39064752037E+02  0.43400728353E+02  0.00000000000E+00 0. -1.
         11    1    3    3    0    0 -0.35735525713E+01  0.22910683183E+01  0.60712796414E+01  0.74080840144E+01  0.51100000000E-03 0. -1.
        -11    1    3    3    0    0 -0.75923497031E+01 -0.12569246156E+02  0.24117504431E+02  0.28236213329E+02  0.51100000000E-03 0.  1.
        -12    1    3    3    0    0  0.40378352695E+01 -0.72363598547E+01  0.88759679653E+01  0.12142974303E+02  0.00000000000E+00 0.  1.
</event>
<event>
 7    1  0.1736465E-010  0.4778727E+02  0.7816164E-02  0.1312668E+00
        -11   -1    0    0    0    0  0.00000000000E+00  0.00000000000E+00  0.45593999997E+02  0.45594000000E+02  0.51100000000E-03 0.  1.
         11   -1    0    0    0    0 -0.00000000000E+00 -0.00000000000E+00 -0.45593999997E+02  0.45594000000E+02  0.51100000000E-03 0. -1.
    9900012    2    1    2    0    0  0.32355057561E+02 -0.20642387111E+01  0.28853292663E+02  0.47787270412E+02  0.19999997117E+02 0.  0.
         12    1    1    2    0    0 -0.32355057561E+02  0.20642387111E+01 -0.28853292663E+02  0.43400729588E+02  0.00000000000E+00 0. -1.
         11    1    3    3    0    0  0.93561172576E+01  0.73120363155E+00  0.81231829710E+00  0.94197372662E+01  0.51100000000E-03 0. -1.
        -11    1    3    3    0    0  0.12222398212E+02 -0.32712830122E+01  0.63820434437E+01  0.14171054632E+02  0.51100000000E-03 0.  1.
         12    1    3    3    0    0  0.10776542092E+02  0.47584066962E+00  0.21658930922E+02  0.24196478514E+02  0.00000000000E+00 0. -1.
</event>
<event>
 7    1  0.1736465E-010  0.4778727E+02  0.7816164E-02  0.1312668E+00
        -11   -1    0    0    0    0  0.00000000000E+00  0.00000000000E+00  0.45593999997E+02  0.45594000000E+02  0.51100000000E-03 0. -1.
         11   -1    0    0    0    0 -0.00000000000E+00 -0.00000000000E+00 -0.45593999997E+02  0.45594000000E+02  0.51100000000E-03 0.  1.
    9900012    2    1    2    0    0 -0.41749392774E+02 -0.12964756830E+00 -0.11857265488E+02  0.47787270163E+02  0.19999995982E+02 0.  0.
         12    1    1    2    0    0  0.41749392774E+02  0.12964756830E+00  0.11857265488E+02  0.43400729837E+02  0.00000000000E+00 0. -1.
         11    1    3    3    0    0 -0.55081742645E-01  0.36454645986E+01  0.11286660511E+01  0.38165866234E+01  0.51100000000E-03 0. -1.
        -11    1    3    3    0    0 -0.19630316928E+02 -0.31915138363E+01 -0.72223265000E+01  0.21158854024E+02  0.51100000000E-03 0.  1.
         12    1    3    3    0    0 -0.22063994104E+02 -0.58359833055E+00 -0.57636050390E+01  0.22811829516E+02  0.00000000000E+00 0. -1.
</event>
<event>
 7    1  0.1736465E-010  0.4778722E+02  0.7816164E-02  0.1312668E+00
        -11   -1    0    0    0    0  0.00000000000E+00  0.00000000000E+00  0.45593999997E+02  0.45594000000E+02  0.51100000000E-03 0. -1.
         11   -1    0    0    0    0 -0.00000000000E+00 -0.00000000000E+00 -0.45593999997E+02  0.45594000000E+02  0.51100000000E-03 0.  1.
    9900012    2    1    2    0    0 -0.35664634007E+02  0.97034580520E+01 -0.22748723975E+02  0.47787220519E+02  0.19999769635E+02 0.  0.
         12    1    1    2    0    0  0.35664634007E+02 -0.97034580520E+01  0.22748723975E+02  0.43400779481E+02  0.00000000000E+00 0. -1.
         11    1    3    3    0    0 -0.16194688987E+02  0.61189777308E+01 -0.12910920074E+02  0.21596335274E+02  0.51100000000E-03 0. -1.
        -11    1    3    3    0    0 -0.19031158691E+02  0.98881681216E+00 -0.12221887082E+02  0.22639286294E+02  0.51100000000E-03 0.  1.
         12    1    3    3    0    0 -0.43878632948E+00  0.25956635091E+01  0.23840831810E+01  0.35515989511E+01  0.00000000000E+00 0. -1.
</event>
<event>
 7    1  0.1736465E-010  0.4778728E+02  0.7816164E-02  0.1312668E+00
        -11   -1    0    0    0    0  0.00000000000E+00  0.00000000000E+00  0.45593999997E+02  0.45594000000E+02  0.51100000000E-03 0. -1.
         11   -1    0    0    0    0 -0.00000000000E+00 -0.00000000000E+00 -0.45593999997E+02  0.45594000000E+02  0.51100000000E-03 0.  1.
    9900012    2    1    2    0    0  0.28007233614E+02 -0.33049311524E+02  0.26383129452E+01  0.47787276249E+02  0.20000023730E+02 0.  0.
         12    1    1    2    0    0 -0.28007233614E+02  0.33049311524E+02 -0.26383129452E+01  0.43400723751E+02  0.00000000000E+00 0. -1.
         11    1    3    3    0    0  0.11154975454E+02 -0.10501258298E+02  0.89998823767E+01  0.17768167781E+02  0.51100000000E-03 0. -1.
        -11    1    3    3    0    0  0.12827157730E+02 -0.11138030361E+02 -0.17778101440E+01  0.17080758324E+02  0.51100000000E-03 0.  1.
        -12    1    3    3    0    0  0.40251004294E+01 -0.11410022865E+02 -0.45837592875E+01  0.12938350144E+02  0.00000000000E+00 0.  1.
</event>
<event>
 7    1  0.1736465E-010  0.4778727E+02  0.7816164E-02  0.1312668E+00
        -11   -1    0    0    0    0  0.00000000000E+00  0.00000000000E+00  0.45593999997E+02  0.45594000000E+02  0.51100000000E-03 0.  1.
         11   -1    0    0    0    0 -0.00000000000E+00 -0.00000000000E+00 -0.45593999997E+02  0.45594000000E+02  0.51100000000E-03 0. -1.
    9900012    2    1    2    0    0  0.21791730793E+02  0.37478254054E+02 -0.20307575402E+01  0.47787273807E+02  0.20000012595E+02 0.  0.
         12    1    1    2    0    0 -0.21791730793E+02 -0.37478254054E+02  0.20307575402E+01  0.43400726193E+02  0.00000000000E+00 0. -1.
         11    1    3    3    0    0  0.12870542613E+02  0.17712550413E+02 -0.62048408833E+00  0.21903659741E+02  0.51100000000E-03 0. -1.
        -11    1    3    3    0    0  0.30409117967E+01  0.22114692115E+01  0.50321454142E+01  0.62817376863E+01  0.51100000000E-03 0.  1.
         12    1    3    3    0    0  0.58802763836E+01  0.17554234430E+02 -0.64424188660E+01  0.19601876380E+02  0.00000000000E+00 0. -1.
</event>
<event>
 7    1  0.1736465E-010  0.4778727E+02  0.7816164E-02  0.1312668E+00
        -11   -1    0    0    0    0  0.00000000000E+00  0.00000000000E+00  0.45593999997E+02  0.45594000000E+02  0.51100000000E-03 0.  1.
         11   -1    0    0    0    0 -0.00000000000E+00 -0.00000000000E+00 -0.45593999997E+02  0.45594000000E+02  0.51100000000E-03 0. -1.
    9900012    2    1    2    0    0 -0.38608571116E+02 -0.14743845414E+02  0.13252188350E+02  0.47787271466E+02  0.20000001921E+02 0.  0.
         12    1    1    2    0    0  0.38608571116E+02  0.14743845414E+02 -0.13252188350E+02  0.43400728534E+02  0.00000000000E+00 0. -1.
         11    1    3    3    0    0 -0.93925966863E+01 -0.44087402151E+00 -0.36452456782E+00  0.94100011071E+01  0.51100000000E-03 0. -1.
        -11    1    3    3    0    0 -0.96709374751E+01  0.15086388431E+01  0.79423635662E+01  0.12604926104E+02  0.51100000000E-03 0.  1.
         12    1    3    3    0    0 -0.19545036955E+02 -0.15811610235E+02  0.56743493520E+01  0.25772344255E+02  0.00000000000E+00 0. -1.
</event>
<event>
 7    1  0.1736465E-010  0.4778727E+02  0.7816164E-02  0.1312668E+00
        -11   -1    0    0    0    0  0.00000000000E+00  0.00000000000E+00  0.45593999997E+02  0.45594000000E+02  0.51100000000E-03 0.  1.
         11   -1    0    0    0    0 -0.00000000000E+00 -0.00000000000E+00 -0.45593999997E+02  0.45594000000E+02  0.51100000000E-03 0. -1.
    9900012    2    1    2    0    0  0.15801374939E+02 -0.28823961357E+02  0.28339355046E+02  0.47787271404E+02  0.20000001639E+02 0.  0.
         12    1    1    2    0    0 -0.15801374939E+02  0.28823961357E+02 -0.28339355046E+02  0.43400728596E+02  0.00000000000E+00 0. -1.
         11    1    3    3    0    0  0.45824565488E+01  0.71159689504E+00  0.49562801017E+01  0.67874878173E+01  0.51100000000E-03 0. -1.
        -11    1    3    3    0    0 -0.11006172285E+01 -0.12932193283E+02  0.97824128955E+01  0.16252648514E+02  0.51100000000E-03 0.  1.
         12    1    3    3    0    0  0.12319535618E+02 -0.16603364969E+02  0.13600662048E+02  0.24747135073E+02  0.00000000000E+00 0. -1.
</event>
<event>
 7    1  0.1736465E-010  0.4778727E+02  0.7816164E-02  0.1312668E+00
        -11   -1    0    0    0    0  0.00000000000E+00  0.00000000000E+00  0.45593999997E+02  0.45594000000E+02  0.51100000000E-03 0. -1.
         11   -1    0    0    0    0 -0.00000000000E+00 -0.00000000000E+00 -0.45593999997E+02  0.45594000000E+02  0.51100000000E-03 0.  1.
    9900012    2    1    2    0    0 -0.63065882508E+01  0.38303411130E+02 -0.19408729796E+02  0.47787272450E+02  0.20000006408E+02 0.  0.
         12    1    1    2    0    0  0.63065882508E+01 -0.38303411130E+02  0.19408729796E+02  0.43400727550E+02  0.00000000000E+00 0. -1.
         11    1    3    3    0    0 -0.16502949575E+01  0.78685936631E+01  0.10589443541E+01  0.81092295003E+01  0.51100000000E-03 0. -1.
        -11    1    3    3    0    0  0.47425884159E+01  0.94512526810E+01 -0.94520941391E+01  0.14183102834E+02  0.51100000000E-03 0.  1.
         12    1    3    3    0    0 -0.93988817091E+01  0.20983564786E+02 -0.11015580011E+02  0.25494940116E+02  0.00000000000E+00 0. -1.
</event>
<event>
 7    1  0.1736465E-010  0.4778728E+02  0.7816164E-02  0.1312668E+00
        -11   -1    0    0    0    0  0.00000000000E+00  0.00000000000E+00  0.45593999997E+02  0.45594000000E+02  0.51100000000E-03 0.  1.
         11   -1    0    0    0    0 -0.00000000000E+00 -0.00000000000E+00 -0.45593999997E+02  0.45594000000E+02  0.51100000000E-03 0. -1.
    9900012    2    1    2    0    0  0.30398398881E+02 -0.30229594539E+02 -0.67625156254E+01  0.47787278139E+02  0.20000032347E+02 0.  0.
         12    1    1    2    0    0 -0.30398398881E+02  0.30229594539E+02  0.67625156254E+01  0.43400721861E+02  0.00000000000E+00 0. -1.
         11    1    3    3    0    0  0.64304627436E+01 -0.33383045916E+01 -0.30077721787E+01  0.78448596153E+01  0.51100000000E-03 0. -1.
        -11    1    3    3    0    0  0.18732247230E+02 -0.27160974799E+02 -0.70650956717E+01  0.33742128199E+02  0.51100000000E-03 0.  1.
        -12    1    3    3    0    0  0.52356889073E+01  0.26968485228E+00  0.33103522250E+01  0.62002903244E+01  0.00000000000E+00 0.  1.
</event>
<event>
 7    1  0.1736465E-010  0.4778727E+02  0.7816164E-02  0.1312668E+00
        -11   -1    0    0    0    0  0.00000000000E+00  0.00000000000E+00  0.45593999997E+02  0.45594000000E+02  0.51100000000E-03 0.  1.
         11   -1    0    0    0    0 -0.00000000000E+00 -0.00000000000E+00 -0.45593999997E+02  0.45594000000E+02  0.51100000000E-03 0. -1.
    9900012    2    1    2    0    0 -0.86671976086E+01 -0.40287618093E+02  0.13616558425E+02  0.47787272479E+02  0.20000006543E+02 0.  0.
         12    1    1    2    0    0  0.86671976086E+01  0.40287618093E+02 -0.13616558425E+02  0.43400727521E+02  0.00000000000E+00 0. -1.
         11    1    3    3    0    0 -0.45295442158E+00 -0.11676189643E+01 -0.28896576783E+01  0.31493846244E+01  0.51100000000E-03 0. -1.
        -11    1    3    3    0    0  0.23287435069E+01 -0.67371699528E+01  0.92902276056E+00  0.71885734916E+01  0.51100000000E-03 0.  1.
        -12    1    3    3    0    0 -0.10542986694E+02 -0.32382829176E+02  0.15577193343E+02  0.37449314363E+02  0.00000000000E+00 0.  1.
</event>
<event>
 7    1  0.1736465E-010  0.4778727E+02  0.7816164E-02  0.1312668E+00
        -11   -1    0    0    0    0  0.00000000000E+00  0.00000000000E+00  0.45593999997E+02  0.45594000000E+02  0.51100000000E-03 0.  1.
         11   -1    0    0    0    0 -0.00000000000E+00 -0.00000000000E+00 -0.45593999997E+02  0.45594000000E+02  0.51100000000E-03 0. -1.
    9900012    2    1    2    0    0 -0.30965164453E+02  0.28402233721E+02 -0.10867164039E+02  0.47787267930E+02  0.19999985800E+02 0.  0.
         12    1    1    2    0    0  0.30965164453E+02 -0.28402233721E+02  0.10867164039E+02  0.43400732070E+02  0.00000000000E+00 0. -1.
         11    1    3    3    0    0 -0.65079229802E+00  0.52311956215E+01 -0.22502355224E+00  0.52763220245E+01  0.51100000000E-03 0. -1.
        -11    1    3    3    0    0 -0.31168591654E+02  0.24451549589E+02 -0.10147641468E+02  0.40894180645E+02  0.51100000000E-03 0.  1.
        -12    1    3    3    0    0  0.85421949917E+00 -0.12805114896E+01 -0.49449901909E+00  0.16167652605E+01  0.00000000000E+00 0.  1.
</event>
<event>
 7    1  0.1736465E-010  0.4778731E+02  0.7816164E-02  0.1312668E+00
        -11   -1    0    0    0    0  0.00000000000E+00  0.00000000000E+00  0.45593999997E+02  0.45594000000E+02  0.51100000000E-03 0.  1.
         11   -1    0    0    0    0 -0.00000000000E+00 -0.00000000000E+00 -0.45593999997E+02  0.45594000000E+02  0.51100000000E-03 0. -1.
    9900012    2    1    2    0    0  0.21477740835E+02  0.27489407524E+02  0.25819748432E+02  0.47787305461E+02  0.20000156919E+02 0.  0.
         12    1    1    2    0    0 -0.21477740835E+02 -0.27489407524E+02 -0.25819748432E+02  0.43400694539E+02  0.00000000000E+00 0. -1.
         11    1    3    3    0    0  0.51929111783E+01  0.60146681630E-01  0.13319483802E+01  0.53613459949E+01  0.51100000000E-03 0. -1.
        -11    1    3    3    0    0  0.17568842971E+02  0.21206543473E+02  0.23048401553E+02  0.35911147904E+02  0.51100000000E-03 0.  1.
         12    1    3    3    0    0 -0.12840133141E+01  0.62227173690E+01  0.14393984986E+01  0.65148115616E+01  0.00000000000E+00 0. -1.
</event>
<event>
 7    1  0.1736465E-010  0.4778727E+02  0.7816164E-02  0.1312668E+00
        -11   -1    0    0    0    0  0.00000000000E+00  0.00000000000E+00  0.45593999997E+02  0.45594000000E+02  0.51100000000E-03 0.  1.
         11   -1    0    0    0    0 -0.00000000000E+00 -0.00000000000E+00 -0.45593999997E+02  0.45594000000E+02  0.51100000000E-03 0. -1.
    9900012    2    1    2    0    0  0.23904679383E+02 -0.33359242710E+02  0.14119160506E+02  0.47787268854E+02  0.19999990013E+02 0.  0.
         12    1    1    2    0    0 -0.23904679383E+02  0.33359242710E+02 -0.14119160506E+02  0.43400731146E+02  0.00000000000E+00 0. -1.
         11    1    3    3    0    0  0.51041826964E+00 -0.30334503524E+00 -0.19196440684E+01  0.20093726959E+01  0.51100000000E-03 0. -1.
        -11    1    3    3    0    0  0.90775528184E+01 -0.19509616608E+02  0.20643324759E+01  0.21616858565E+02  0.51100000000E-03 0.  1.
        -12    1    3    3    0    0  0.14316708295E+02 -0.13546281066E+02  0.13974472099E+02  0.24161037593E+02  0.00000000000E+00 0.  1.
</event>
<event>
 7    1  0.1736465E-010  0.4778727E+02  0.7816164E-02  0.1312668E+00
        -11   -1    0    0    0    0  0.00000000000E+00  0.00000000000E+00  0.45593999997E+02  0.45594000000E+02  0.51100000000E-03 0. -1.
         11   -1    0    0    0    0 -0.00000000000E+00 -0.00000000000E+00 -0.45593999997E+02  0.45594000000E+02  0.51100000000E-03 0.  1.
    9900012    2    1    2    0    0  0.16285037524E+02  0.36787779600E+02 -0.16281281417E+02  0.47787270748E+02  0.19999998649E+02 0.  0.
         12    1    1    2    0    0 -0.16285037524E+02 -0.36787779600E+02  0.16281281417E+02  0.43400729252E+02  0.00000000000E+00 0. -1.
         11    1    3    3    0    0  0.10496557410E+02  0.32809544554E+02 -0.82332449104E+01  0.35417936887E+02  0.51100000000E-03 0. -1.
        -11    1    3    3    0    0  0.56324334543E+01  0.40926766394E+01 -0.34554511866E+01  0.77726734047E+01  0.51100000000E-03 0.  1.
        -12    1    3    3    0    0  0.15604665923E+00 -0.11444159350E+00 -0.45925853196E+01  0.45966604569E+01  0.00000000000E+00 0.  1.
</event>
<event>
 7    1  0.1736465E-010  0.4778727E+02  0.7816164E-02  0.1312668E+00
        -11   -1    0    0    0    0  0.00000000000E+00  0.00000000000E+00  0.45593999997E+02  0.45594000000E+02  0.51100000000E-03 0.  1.
         11   -1    0    0    0    0 -0.00000000000E+00 -0.00000000000E+00 -0.45593999997E+02  0.45594000000E+02  0.51100000000E-03 0. -1.
    9900012    2    1    2    0    0  0.77361410409E+01 -0.36721799722E+02  0.21801026374E+02  0.47787271849E+02  0.20000003668E+02 0.  0.
         12    1    1    2    0    0 -0.77361410409E+01  0.36721799722E+02 -0.21801026374E+02  0.43400728151E+02  0.00000000000E+00 0. -1.
         11    1    3    3    0    0  0.13415103219E+02 -0.21205044258E+02  0.17072378706E+02  0.30349382388E+02  0.51100000000E-03 0. -1.
        -11    1    3    3    0    0 -0.25125399556E+01 -0.74396540230E+01  0.37666479855E+01  0.87091300552E+01  0.51100000000E-03 0.  1.
         12    1    3    3    0    0 -0.31664222226E+01 -0.80771014410E+01  0.96199968302E+00  0.87287594061E+01  0.00000000000E+00 0. -1.
</event>
<event>
 7    1  0.1736465E-010  0.4778727E+02  0.7816164E-02  0.1312668E+00
        -11   -1    0    0    0    0  0.00000000000E+00  0.00000000000E+00  0.45593999997E+02  0.45594000000E+02  0.51100000000E-03 0. -1.
         11   -1    0    0    0    0 -0.00000000000E+00 -0.00000000000E+00 -0.45593999997E+02  0.45594000000E+02  0.51100000000E-03 0.  1.
    9900012    2    1    2    0    0  0.61133373501E+01  0.42376948926E+02  0.71024176680E+01  0.47787273847E+02  0.20000012780E+02 0.  0.
         12    1    1    2    0    0 -0.61133373501E+01 -0.42376948926E+02 -0.71024176680E+01  0.43400726153E+02  0.00000000000E+00 0. -1.
         11    1    3    3    0    0  0.39680098165E+01  0.30221964221E+02  0.60559602828E+01  0.31077111811E+02  0.51100000000E-03 0. -1.
        -11    1    3    3    0    0 -0.43980032022E+01  0.72757588889E+01  0.19882548515E+00  0.85040361835E+01  0.51100000000E-03 0.  1.
        -12    1    3    3    0    0  0.65433307357E+01  0.48792258159E+01  0.84763190008E+00  0.82061258532E+01  0.00000000000E+00 0.  1.
</event>
<event>
 7    1  0.1736465E-010  0.4778727E+02  0.7816164E-02  0.1312668E+00
        -11   -1    0    0    0    0  0.00000000000E+00  0.00000000000E+00  0.45593999997E+02  0.45594000000E+02  0.51100000000E-03 0. -1.
         11   -1    0    0    0    0 -0.00000000000E+00 -0.00000000000E+00 -0.45593999997E+02  0.45594000000E+02  0.51100000000E-03 0.  1.
    9900012    2    1    2    0    0  0.29562959645E+02  0.26980409677E+02 -0.16784282194E+02  0.47787271687E+02  0.20000002931E+02 0.  0.
         12    1    1    2    0    0 -0.29562959645E+02 -0.26980409677E+02  0.16784282194E+02  0.43400728313E+02  0.00000000000E+00 0. -1.
         11    1    3    3    0    0  0.12646109445E+02  0.22970570812E+01 -0.75117489549E+01  0.14887139683E+02  0.51100000000E-03 0. -1.
        -11    1    3    3    0    0  0.71773036930E+01  0.12091159161E+02 -0.95172020188E+01  0.16979015068E+02  0.51100000000E-03 0.  1.
         12    1    3    3    0    0  0.97395465067E+01  0.12592193435E+02  0.24466878012E+00  0.15921116936E+02  0.00000000000E+00 0. -1.
</event>
<event>
 7    1  0.1736465E-010  0.4778727E+02  0.7816164E-02  0.1312668E+00
        -11   -1    0    0    0    0  0.00000000000E+00  0.00000000000E+00  0.45593999997E+02  0.45594000000E+02  0.51100000000E-03 0.  1.
         11   -1    0    0    0    0 -0.00000000000E+00 -0.00000000000E+00 -0.45593999997E+02  0.45594000000E+02  0.51100000000E-03 0. -1.
    9900012    2    1    2    0    0  0.72126602164E+01  0.12757244616E+02  0.40851606820E+02  0.47787268009E+02  0.19999986158E+02 0.  0.
         12    1    1    2    0    0 -0.72126602164E+01 -0.12757244616E+02 -0.40851606820E+02  0.43400731991E+02  0.00000000000E+00 0. -1.
         11    1    3    3    0    0 -0.28330682376E+01 -0.45198890363E+00  0.15966405701E+02  0.16222104699E+02  0.51100000000E-03 0. -1.
        -11    1    3    3    0    0  0.12948149382E+01  0.98954205849E+01  0.14284299477E+02  0.17425185970E+02  0.51100000000E-03 0.  1.
        -12    1    3    3    0    0  0.87509135157E+01  0.33138129343E+01  0.10600901642E+02  0.14139977339E+02  0.00000000000E+00 0.  1.
</event>
<event>
 7    1  0.1736465E-010  0.4778728E+02  0.7816164E-02  0.1312668E+00
        -11   -1    0    0    0    0  0.00000000000E+00  0.00000000000E+00  0.45593999997E+02  0.45594000000E+02  0.51100000000E-03 0.  1.
         11   -1    0    0    0    0 -0.00000000000E+00 -0.00000000000E+00 -0.45593999997E+02  0.45594000000E+02  0.51100000000E-03 0. -1.
    9900012    2    1    2    0    0 -0.22980666343E+02  0.18997716392E+01  0.36768228118E+02  0.47787277001E+02  0.20000027159E+02 0.  0.
         12    1    1    2    0    0  0.22980666343E+02 -0.18997716392E+01 -0.36768228118E+02  0.43400722999E+02  0.00000000000E+00 0. -1.
         11    1    3    3    0    0 -0.18188412411E+02  0.15457157661E+01  0.21440890907E+02  0.28158824308E+02  0.51100000000E-03 0.  1.
        -11    1    3    3    0    0 -0.11045967903E+01  0.55146128585E+01  0.93608097998E+01  0.10920432657E+02  0.51100000000E-03 0. -1.
        -12    1    3    3    0    0 -0.36876571420E+01 -0.51605569855E+01  0.59665274116E+01  0.87080200362E+01  0.00000000000E+00 0.  1.
</event>
<event>
 7    1  0.1736465E-010  0.4778727E+02  0.7816164E-02  0.1312668E+00
        -11   -1    0    0    0    0  0.00000000000E+00  0.00000000000E+00  0.45593999997E+02  0.45594000000E+02  0.51100000000E-03 0. -1.
         11   -1    0    0    0    0 -0.00000000000E+00 -0.00000000000E+00 -0.45593999997E+02  0.45594000000E+02  0.51100000000E-03 0.  1.
    9900012    2    1    2    0    0  0.54775772360E+01  0.36958788831E+02 -0.22083190006E+02  0.47787271837E+02  0.20000003614E+02 0.  0.
         12    1    1    2    0    0 -0.54775772360E+01 -0.36958788831E+02  0.22083190006E+02  0.43400728163E+02  0.00000000000E+00 0. -1.
         11    1    3    3    0    0  0.13305969136E+01 -0.33560292347E-01 -0.52472403248E+01  0.54134227368E+01  0.51100000000E-03 0. -1.
        -11    1    3    3    0    0  0.58971041603E+01  0.10487070353E+02 -0.76965055975E+01  0.14282530614E+02  0.51100000000E-03 0.  1.
         12    1    3    3    0    0 -0.17501238379E+01  0.26505278770E+02 -0.91394440840E+01  0.28091318486E+02  0.00000000000E+00 0. -1.
</event>
<event>
 7    1  0.1736465E-010  0.4778727E+02  0.7816164E-02  0.1312668E+00
        -11   -1    0    0    0    0  0.00000000000E+00  0.00000000000E+00  0.45593999997E+02  0.45594000000E+02  0.51100000000E-03 0.  1.
         11   -1    0    0    0    0 -0.00000000000E+00 -0.00000000000E+00 -0.45593999997E+02  0.45594000000E+02  0.51100000000E-03 0. -1.
    9900012    2    1    2    0    0 -0.28112984310E+02  0.22978545847E+02  0.23775403841E+02  0.47787270930E+02  0.19999999478E+02 0.  0.
         12    1    1    2    0    0  0.28112984310E+02 -0.22978545847E+02 -0.23775403841E+02  0.43400729070E+02  0.00000000000E+00 0. -1.
         11    1    3    3    0    0 -0.14867378005E+02  0.10700559060E+02  0.61518845338E+01  0.19323213411E+02  0.51100000000E-03 0. -1.
        -11    1    3    3    0    0  0.14322548458E+01  0.51328660390E+01  0.15390060176E+01  0.55467294419E+01  0.51100000000E-03 0.  1.
        -12    1    3    3    0    0 -0.14677861150E+02  0.71451207481E+01  0.16084513289E+02  0.22917328077E+02  0.00000000000E+00 0.  1.
</event>
<event>
 7    1  0.1736465E-010  0.4778727E+02  0.7816164E-02  0.1312668E+00
        -11   -1    0    0    0    0  0.00000000000E+00  0.00000000000E+00  0.45593999997E+02  0.45594000000E+02  0.51100000000E-03 0. -1.
         11   -1    0    0    0    0 -0.00000000000E+00 -0.00000000000E+00 -0.45593999997E+02  0.45594000000E+02  0.51100000000E-03 0.  1.
    9900012    2    1    2    0    0 -0.54834908653E+01  0.71407832569E+00 -0.43047006554E+02  0.47787270131E+02  0.19999995835E+02 0.  0.
         12    1    1    2    0    0  0.54834908653E+01 -0.71407832569E+00  0.43047006554E+02  0.43400729869E+02  0.00000000000E+00 0. -1.
         11    1    3    3    0    0 -0.41886498472E+01 -0.35813745135E+01 -0.18109582317E+02  0.18929553690E+02  0.51100000000E-03 0. -1.
        -11    1    3    3    0    0  0.34274018526E+01 -0.33392101623E+01 -0.13468251802E+02  0.14293047780E+02  0.51100000000E-03 0.  1.
         12    1    3    3    0    0 -0.47222428708E+01  0.76346630016E+01 -0.11469172435E+02  0.14564668661E+02  0.00000000000E+00 0. -1.
</event>
<event>
 7    1  0.1736465E-010  0.4778727E+02  0.7816164E-02  0.1312668E+00
        -11   -1    0    0    0    0  0.00000000000E+00  0.00000000000E+00  0.45593999997E+02  0.45594000000E+02  0.51100000000E-03 0.  1.
         11   -1    0    0    0    0 -0.00000000000E+00 -0.00000000000E+00 -0.45593999997E+02  0.45594000000E+02  0.51100000000E-03 0. -1.
    9900012    2    1    2    0    0  0.24947475175E+02  0.54322311083E+01  0.35096118238E+02  0.47787272266E+02  0.20000005571E+02 0.  0.
         12    1    1    2    0    0 -0.24947475175E+02 -0.54322311083E+01 -0.35096118238E+02  0.43400727734E+02  0.00000000000E+00 0. -1.
         11    1    3    3    0    0  0.70637838377E+01  0.55640039402E+01  0.37357514725E+01  0.97370951149E+01  0.51100000000E-03 0. -1.
        -11    1    3    3    0    0  0.18586883152E+02  0.20417240005E+01  0.24505427192E+02  0.30824613936E+02  0.51100000000E-03 0.  1.
        -12    1    3    3    0    0 -0.70319181507E+00 -0.21734968323E+01  0.68549395741E+01  0.72255632149E+01  0.00000000000E+00 0.  1.
</event>
<event>
 7    1  0.1736465E-010  0.4778727E+02  0.7816164E-02  0.1312668E+00
        -11   -1    0    0    0    0  0.00000000000E+00  0.00000000000E+00  0.45593999997E+02  0.45594000000E+02  0.51100000000E-03 0.  1.
         11   -1    0    0    0    0 -0.00000000000E+00 -0.00000000000E+00 -0.45593999997E+02  0.45594000000E+02  0.51100000000E-03 0. -1.
    9900012    2    1    2    0    0 -0.31396180413E+02 -0.25571286398E+01  0.29855724844E+02  0.47787270083E+02  0.19999995615E+02 0.  0.
         12    1    1    2    0    0  0.31396180413E+02  0.25571286398E+01 -0.29855724844E+02  0.43400729917E+02  0.00000000000E+00 0. -1.
         11    1    3    3    0    0 -0.71696112473E+01  0.43241254558E+01  0.22328481473E+01  0.86652753854E+01  0.51100000000E-03 0. -1.
        -11    1    3    3    0    0 -0.30973752786E+01 -0.75261447872E+00  0.11264173500E+02  0.11706483975E+02  0.51100000000E-03 0.  1.
         12    1    3    3    0    0 -0.21129193887E+02 -0.61286396168E+01  0.16358703197E+02  0.27415510722E+02  0.00000000000E+00 0. -1.
</event>
<event>
 7    1  0.1736465E-010  0.4778727E+02  0.7816164E-02  0.1312668E+00
        -11   -1    0    0    0    0  0.00000000000E+00  0.00000000000E+00  0.45593999997E+02  0.45594000000E+02  0.51100000000E-03 0.  1.
         11   -1    0    0    0    0 -0.00000000000E+00 -0.00000000000E+00 -0.45593999997E+02  0.45594000000E+02  0.51100000000E-03 0. -1.
    9900012    2    1    2    0    0 -0.89486375777E+01  0.41846321415E+02  0.72408929222E+01  0.47787271195E+02  0.20000000688E+02 0.  0.
         12    1    1    2    0    0  0.89486375777E+01 -0.41846321415E+02 -0.72408929222E+01  0.43400728805E+02  0.00000000000E+00 0. -1.
         11    1    3    3    0    0 -0.26377266345E-01 -0.62532448801E+00 -0.88278360856E+00  0.10821430756E+01  0.51100000000E-03 0. -1.
        -11    1    3    3    0    0 -0.74428300172E+01  0.29287349218E+02  0.12547767100E+02  0.32719886955E+02  0.51100000000E-03 0.  1.
        -12    1    3    3    0    0 -0.14794302941E+01  0.13184296685E+02 -0.44240905693E+01  0.13985241165E+02  0.00000000000E+00 0.  1.
</event>
<event>
 7    1  0.1736465E-010  0.4778726E+02  0.7816164E-02  0.1312668E+00
        -11   -1    0    0    0    0  0.00000000000E+00  0.00000000000E+00  0.45593999997E+02  0.45594000000E+02  0.51100000000E-03 0.  1.
         11   -1    0    0    0    0 -0.00000000000E+00 -0.00000000000E+00 -0.45593999997E+02  0.45594000000E+02  0.51100000000E-03 0. -1.
    9900012    2    1    2    0    0  0.73288481275E+01 -0.24562448196E+02  0.35022820282E+02  0.47787264790E+02  0.19999971481E+02 0.  0.
         12    1    1    2    0    0 -0.73288481275E+01  0.24562448196E+02 -0.35022820282E+02  0.43400735210E+02  0.00000000000E+00 0. -1.
         11    1    3    3    0    0  0.15033109966E+01  0.10351980950E+01  0.95400366445E+01  0.97130777042E+01  0.51100000000E-03 0. -1.
        -11    1    3    3    0    0  0.71859772005E+01 -0.86256817436E+01  0.91943542579E+01  0.14511264740E+02  0.51100000000E-03 0.  1.
         12    1    3    3    0    0 -0.13604400696E+01 -0.16971964548E+02  0.16288429380E+02  0.23562922346E+02  0.00000000000E+00 0. -1.
</event>
<event>
 7    1  0.2380753E-010  0.4778727E+02  0.7816164E-02  0.1312668E+00
        -11   -1    0    0    0    0  0.00000000000E+00  0.00000000000E+00  0.45593999997E+02  0.45594000000E+02  0.51100000000E-03 0. -1.
         11   -1    0    0    0    0 -0.00000000000E+00 -0.00000000000E+00 -0.45593999997E+02  0.45594000000E+02  0.51100000000E-03 0.  1.
    9900012    2    1    2    0    0 -0.35756768734E+01  0.17102536625E+02 -0.39728341436E+02  0.47787270313E+02  0.19999996665E+02 0.  0.
         12    1    1    2    0    0  0.35756768734E+01 -0.17102536625E+02  0.39728341436E+02  0.43400729687E+02  0.00000000000E+00 0. -1.
         11    1    3    3    0    0  0.11699772699E+01  0.19149008115E+01 -0.36884336340E+00  0.22741454698E+01  0.51100000000E-03 0. -1.
        -11    1    3    3    0    0 -0.86675353239E+01  0.80062427543E+01 -0.33307302152E+02  0.35335569453E+02  0.51100000000E-03 0.  1.
        -12    1    3    3    0    0  0.39218811807E+01  0.71813930594E+01 -0.60521959199E+01  0.10177555390E+02  0.00000000000E+00 0.  1.
</event>
<event>
 7    1  0.1736465E-010  0.4778727E+02  0.7816164E-02  0.1312668E+00
        -11   -1    0    0    0    0  0.00000000000E+00  0.00000000000E+00  0.45593999997E+02  0.45594000000E+02  0.51100000000E-03 0.  1.
         11   -1    0    0    0    0 -0.00000000000E+00 -0.00000000000E+00 -0.45593999997E+02  0.45594000000E+02  0.51100000000E-03 0. -1.
    9900012    2    1    2    0    0 -0.17918513835E+02  0.33736303383E+02  0.20601258235E+02  0.47787272531E+02  0.20000006778E+02 0.  0.
         12    1    1    2    0    0  0.17918513835E+02 -0.33736303383E+02 -0.20601258235E+02  0.43400727469E+02  0.00000000000E+00 0. -1.
         11    1    3    3    0    0 -0.29920080853E+01  0.77750932800E+00  0.22063632644E+01  0.37979826557E+01  0.51100000000E-03 0. -1.
        -11    1    3    3    0    0  0.48285886571E+00  0.14691478732E+02  0.16144458380E+01  0.14787803612E+02  0.51100000000E-03 0.  1.
        -12    1    3    3    0    0 -0.15409364615E+02  0.18267315322E+02  0.16780449132E+02  0.29201486264E+02  0.00000000000E+00 0.  1.
</event>
<event>
 7    1  0.1736465E-010  0.4778727E+02  0.7816164E-02  0.1312668E+00
        -11   -1    0    0    0    0  0.00000000000E+00  0.00000000000E+00  0.45593999997E+02  0.45594000000E+02  0.51100000000E-03 0. -1.
         11   -1    0    0    0    0 -0.00000000000E+00 -0.00000000000E+00 -0.45593999997E+02  0.45594000000E+02  0.51100000000E-03 0.  1.
    9900012    2    1    2    0    0 -0.12120853954E+02  0.26499645181E+01 -0.41589492081E+02  0.47787271157E+02  0.20000000513E+02 0.  0.
         12    1    1    2    0    0  0.12120853954E+02 -0.26499645181E+01  0.41589492081E+02  0.43400728843E+02  0.00000000000E+00 0. -1.
         11    1    3    3    0    0  0.26886658224E+00 -0.21633564045E+01  0.56829246451E+00  0.22528552458E+01  0.51100000000E-03 0. -1.
        -11    1    3    3    0    0 -0.43205873578E+01 -0.12131971879E+01 -0.38121980553E+01  0.58883084844E+01  0.51100000000E-03 0.  1.
        -12    1    3    3    0    0 -0.80691331782E+01  0.60265181105E+01 -0.38345586491E+02  0.39646107427E+02  0.00000000000E+00 0.  1.
</event>
<event>
 7    1  0.1736465E-010  0.4778727E+02  0.7816164E-02  0.1312668E+00
        -11   -1    0    0    0    0  0.00000000000E+00  0.00000000000E+00  0.45593999997E+02  0.45594000000E+02  0.51100000000E-03 0.  1.
         11   -1    0    0    0    0 -0.00000000000E+00 -0.00000000000E+00 -0.45593999997E+02  0.45594000000E+02  0.51100000000E-03 0. -1.
    9900012    2    1    2    0    0  0.27932524428E+02 -0.25450216692E+02  0.21346746616E+02  0.47787273719E+02  0.20000012196E+02 0.  0.
         12    1    1    2    0    0 -0.27932524428E+02  0.25450216692E+02 -0.21346746616E+02  0.43400726281E+02  0.00000000000E+00 0. -1.
         11    1    3    3    0    0  0.18232367518E+02 -0.87995837359E+01  0.71398484420E+01  0.21466935861E+02  0.51100000000E-03 0. -1.
        -11    1    3    3    0    0  0.11916620473E+02 -0.15744116413E+02  0.12344428878E+02  0.23286647885E+02  0.51100000000E-03 0.  1.
         12    1    3    3    0    0 -0.22164635640E+01 -0.90651654379E+00  0.18624692957E+01  0.30336899730E+01  0.00000000000E+00 0. -1.
</event>
<event>
 7    1  0.1736465E-010  0.4778727E+02  0.7816164E-02  0.1312668E+00
        -11   -1    0    0    0    0  0.00000000000E+00  0.00000000000E+00  0.45593999997E+02  0.45594000000E+02  0.51100000000E-03 0.  1.
         11   -1    0    0    0    0 -0.00000000000E+00 -0.00000000000E+00 -0.45593999997E+02  0.45594000000E+02  0.51100000000E-03 0. -1.
    9900012    2    1    2    0    0 -0.26233589503E+02 -0.32792838541E+02  0.10956809163E+02  0.47787272531E+02  0.20000006778E+02 0.  0.
         12    1    1    2    0    0  0.26233589503E+02  0.32792838541E+02 -0.10956809163E+02  0.43400727469E+02  0.00000000000E+00 0. -1.
         11    1    3    3    0    0 -0.19854493911E+02 -0.21054601034E+02  0.13055952217E+02  0.31748307699E+02  0.51100000000E-03 0. -1.
        -11    1    3    3    0    0 -0.53644039611E+01 -0.12536921777E+02 -0.73333560762E-01  0.13636591054E+02  0.51100000000E-03 0.  1.
         12    1    3    3    0    0 -0.10146916306E+01  0.79868426933E+00 -0.20258094936E+01  0.24023737785E+01  0.00000000000E+00 0. -1.
</event>
<event>
 7    1  0.1736465E-010  0.4778728E+02  0.7816164E-02  0.1312668E+00
        -11   -1    0    0    0    0  0.00000000000E+00  0.00000000000E+00  0.45593999997E+02  0.45594000000E+02  0.51100000000E-03 0.  1.
         11   -1    0    0    0    0 -0.00000000000E+00 -0.00000000000E+00 -0.45593999997E+02  0.45594000000E+02  0.51100000000E-03 0. -1.
    9900012    2    1    2    0    0 -0.19963434074E+02 -0.38094096887E+02  0.58243941988E+01  0.47787280128E+02  0.20000041416E+02 0.  0.
         12    1    1    2    0    0  0.19963434074E+02  0.38094096887E+02 -0.58243941988E+01  0.43400719872E+02  0.00000000000E+00 0. -1.
         11    1    3    3    0    0  0.14787601222E+01 -0.11426215727E+02  0.38091224193E+01  0.12134848627E+02  0.51100000000E-03 0. -1.
        -11    1    3    3    0    0 -0.20314540187E+02 -0.19966231100E+02 -0.26227669240E+00  0.28485078843E+02  0.51100000000E-03 0.  1.
        -12    1    3    3    0    0 -0.11276540091E+01 -0.67016500598E+01  0.22775484719E+01  0.71673526584E+01  0.00000000000E+00 0.  1.
</event>
<event>
 7    1  0.1736465E-010  0.4778727E+02  0.7816164E-02  0.1312668E+00
        -11   -1    0    0    0    0  0.00000000000E+00  0.00000000000E+00  0.45593999997E+02  0.45594000000E+02  0.51100000000E-03 0.  1.
         11   -1    0    0    0    0 -0.00000000000E+00 -0.00000000000E+00 -0.45593999997E+02  0.45594000000E+02  0.51100000000E-03 0. -1.
    9900012    2    1    2    0    0  0.15143506016E+02  0.27287847314E+02  0.30160748763E+02  0.47787272455E+02  0.20000006432E+02 0.  0.
         12    1    1    2    0    0 -0.15143506016E+02 -0.27287847314E+02 -0.30160748763E+02  0.43400727545E+02  0.00000000000E+00 0. -1.
         11    1    3    3    0    0 -0.31031246048E+01  0.77704692720E+01  0.88814486092E+01  0.12202036907E+02  0.51100000000E-03 0. -1.
        -11    1    3    3    0    0  0.11235567091E+02  0.11871926107E+02  0.18814121070E+02  0.24922916147E+02  0.51100000000E-03 0.  1.
        -12    1    3    3    0    0  0.70110635298E+01  0.76454519349E+01  0.24651790835E+01  0.10662319402E+02  0.00000000000E+00 0.  1.
</event>
<event>
 7    1  0.1736465E-010  0.4778727E+02  0.7816164E-02  0.1312668E+00
        -11   -1    0    0    0    0  0.00000000000E+00  0.00000000000E+00  0.45593999997E+02  0.45594000000E+02  0.51100000000E-03 0.  1.
         11   -1    0    0    0    0 -0.00000000000E+00 -0.00000000000E+00 -0.45593999997E+02  0.45594000000E+02  0.51100000000E-03 0. -1.
    9900012    2    1    2    0    0 -0.21669863028E+02  0.37595537488E+02  0.78483926777E+00  0.47787269876E+02  0.19999994672E+02 0.  0.
         12    1    1    2    0    0  0.21669863028E+02 -0.37595537488E+02 -0.78483926777E+00  0.43400730124E+02  0.00000000000E+00 0. -1.
         11    1    3    3    0    0  0.13897766492E+01  0.41403347514E+01  0.22604606151E+01  0.49176756138E+01  0.51100000000E-03 0. -1.
        -11    1    3    3    0    0 -0.14897389680E+02  0.14438451368E+02  0.47029959025E+01  0.21272500274E+02  0.51100000000E-03 0.  1.
         12    1    3    3    0    0 -0.81622499972E+01  0.19016751368E+02 -0.61786172498E+01  0.21597093988E+02  0.00000000000E+00 0. -1.
</event>
<event>
 7    1  0.1736465E-010  0.4778726E+02  0.7816164E-02  0.1312668E+00
        -11   -1    0    0    0    0  0.00000000000E+00  0.00000000000E+00  0.45593999997E+02  0.45594000000E+02  0.51100000000E-03 0.  1.
         11   -1    0    0    0    0 -0.00000000000E+00 -0.00000000000E+00 -0.45593999997E+02  0.45594000000E+02  0.51100000000E-03 0. -1.
    9900012    2    1    2    0    0  0.33846847221E+02  0.24144402341E+02  0.12452438108E+02  0.47787257540E+02  0.19999938428E+02 0.  0.
         12    1    1    2    0    0 -0.33846847221E+02 -0.24144402341E+02 -0.12452438108E+02  0.43400742460E+02  0.00000000000E+00 0. -1.
         11    1    3    3    0    0  0.18995548301E+02  0.17236195591E+02  0.89812916029E+01  0.27176844791E+02  0.51100000000E-03 0.  1.
        -11    1    3    3    0    0  0.15173561399E+02  0.29933343452E+01  0.52026375473E+01  0.16317611765E+02  0.51100000000E-03 0. -1.
         12    1    3    3    0    0 -0.32226247797E+00  0.39148724049E+01 -0.17314910421E+01  0.42928009831E+01  0.00000000000E+00 0. -1.
</event>
<event>
 7    1  0.1736465E-010  0.4778727E+02  0.7816164E-02  0.1312668E+00
        -11   -1    0    0    0    0  0.00000000000E+00  0.00000000000E+00  0.45593999997E+02  0.45594000000E+02  0.51100000000E-03 0.  1.
         11   -1    0    0    0    0 -0.00000000000E+00 -0.00000000000E+00 -0.45593999997E+02  0.45594000000E+02  0.51100000000E-03 0. -1.
    9900012    2    1    2    0    0 -0.27509151723E+01  0.15594683353E+02  0.40408681631E+02  0.47787271500E+02  0.20000002077E+02 0.  0.
         12    1    1    2    0    0  0.27509151723E+01 -0.15594683353E+02 -0.40408681631E+02  0.43400728500E+02  0.00000000000E+00 0. -1.
         11    1    3    3    0    0  0.46426025341E+01  0.50289879875E+01  0.98316758522E+01  0.11979412707E+02  0.51100000000E-03 0. -1.
        -11    1    3    3    0    0 -0.28394808862E+01 -0.12163838388E+01  0.16940890043E+02  0.17220220587E+02  0.51100000000E-03 0.  1.
         12    1    3    3    0    0 -0.45540368203E+01  0.11782079205E+02  0.13636115736E+02  0.18587638207E+02  0.00000000000E+00 0. -1.
</event>
<event>
 7    1  0.1736465E-010  0.4778727E+02  0.7816164E-02  0.1312668E+00
        -11   -1    0    0    0    0  0.00000000000E+00  0.00000000000E+00  0.45593999997E+02  0.45594000000E+02  0.51100000000E-03 0. -1.
         11   -1    0    0    0    0 -0.00000000000E+00 -0.00000000000E+00 -0.45593999997E+02  0.45594000000E+02  0.51100000000E-03 0.  1.
    9900012    2    1    2    0    0  0.11048183183E+02 -0.29693761375E+02 -0.29662120913E+02  0.47787271513E+02  0.20000002134E+02 0.  0.
         12    1    1    2    0    0 -0.11048183183E+02  0.29693761375E+02  0.29662120913E+02  0.43400728487E+02  0.00000000000E+00 0. -1.
         11    1    3    3    0    0  0.13455412995E+02 -0.14383910349E+02 -0.14615342378E+02  0.24526582495E+02  0.51100000000E-03 0. -1.
        -11    1    3    3    0    0 -0.25398476413E+01 -0.36347952984E+01 -0.91776728595E+01  0.10192754401E+02  0.51100000000E-03 0.  1.
        -12    1    3    3    0    0  0.13261782916E+00 -0.11675055727E+02 -0.58691056754E+01  0.13067934617E+02  0.00000000000E+00 0.  1.
</event>
<event>
 7    1  0.1736465E-010  0.4778727E+02  0.7816164E-02  0.1312668E+00
        -11   -1    0    0    0    0  0.00000000000E+00  0.00000000000E+00  0.45593999997E+02  0.45594000000E+02  0.51100000000E-03 0.  1.
         11   -1    0    0    0    0 -0.00000000000E+00 -0.00000000000E+00 -0.45593999997E+02  0.45594000000E+02  0.51100000000E-03 0. -1.
    9900012    2    1    2    0    0 -0.16018733426E+02 -0.34032376688E+02  0.21652268395E+02  0.47787271778E+02  0.20000003344E+02 0.  0.
         12    1    1    2    0    0  0.16018733426E+02  0.34032376688E+02 -0.21652268395E+02  0.43400728222E+02  0.00000000000E+00 0. -1.
         11    1    3    3    0    0  0.16933711574E+01 -0.49043346454E+01  0.60586269932E+01  0.79766512708E+01  0.51100000000E-03 0. -1.
        -11    1    3    3    0    0 -0.13635060084E+02 -0.10707376163E+02  0.10500538356E+02  0.20268795569E+02  0.51100000000E-03 0.  1.
        -12    1    3    3    0    0 -0.40770444988E+01 -0.18420665879E+02  0.50931030458E+01  0.19541824938E+02  0.00000000000E+00 0.  1.
</event>
<event>
 7    1  0.1736465E-010  0.4778727E+02  0.7816164E-02  0.1312668E+00
        -11   -1    0    0    0    0  0.00000000000E+00  0.00000000000E+00  0.45593999997E+02  0.45594000000E+02  0.51100000000E-03 0. -1.
         11   -1    0    0    0    0 -0.00000000000E+00 -0.00000000000E+00 -0.45593999997E+02  0.45594000000E+02  0.51100000000E-03 0.  1.
    9900012    2    1    2    0    0  0.17322165660E+02  0.30321770356E+02 -0.25771234356E+02  0.47787266125E+02  0.19999977569E+02 0.  0.
         12    1    1    2    0    0 -0.17322165660E+02 -0.30321770356E+02  0.25771234356E+02  0.43400733875E+02  0.00000000000E+00 0. -1.
         11    1    3    3    0    0  0.56089526386E+01  0.34793889597E+01 -0.11077030152E+01  0.66927948920E+01  0.51100000000E-03 0. -1.
        -11    1    3    3    0    0  0.10379787891E+02  0.21524937308E+02 -0.26140062173E+02  0.35417026603E+02  0.51100000000E-03 0.  1.
         12    1    3    3    0    0  0.13334251304E+01  0.53174440891E+01  0.14765308325E+01  0.56774446293E+01  0.00000000000E+00 0. -1.
</event>
<event>
 7    1  0.1736465E-010  0.4778727E+02  0.7816164E-02  0.1312668E+00
        -11   -1    0    0    0    0  0.00000000000E+00  0.00000000000E+00  0.45593999997E+02  0.45594000000E+02  0.51100000000E-03 0.  1.
         11   -1    0    0    0    0 -0.00000000000E+00 -0.00000000000E+00 -0.45593999997E+02  0.45594000000E+02  0.51100000000E-03 0. -1.
    9900012    2    1    2    0    0  0.12470773656E+02  0.57326038019E+01  0.41173297748E+02  0.47787269713E+02  0.19999993931E+02 0.  0.
         12    1    1    2    0    0 -0.12470773656E+02 -0.57326038019E+01 -0.41173297748E+02  0.43400730287E+02  0.00000000000E+00 0. -1.
         11    1    3    3    0    0  0.90918806155E+01 -0.62269068037E+00  0.76709495985E+01  0.11911906011E+02  0.51100000000E-03 0. -1.
        -11    1    3    3    0    0 -0.35733159654E+01  0.25659071149E+01  0.75080016310E+01  0.87018707795E+01  0.51100000000E-03 0.  1.
        -12    1    3    3    0    0  0.69522090058E+01  0.37893873674E+01  0.25994346519E+02  0.27173492923E+02  0.00000000000E+00 0.  1.
</event>
<event>
 7    1  0.1736465E-010  0.4778726E+02  0.7816164E-02  0.1312668E+00
        -11   -1    0    0    0    0  0.00000000000E+00  0.00000000000E+00  0.45593999997E+02  0.45594000000E+02  0.51100000000E-03 0.  1.
         11   -1    0    0    0    0 -0.00000000000E+00 -0.00000000000E+00 -0.45593999997E+02  0.45594000000E+02  0.51100000000E-03 0. -1.
    9900012    2    1    2    0    0 -0.31561254054E+02 -0.14523088254E+02  0.26011368321E+02  0.47787261161E+02  0.19999954935E+02 0.  0.
         12    1    1    2    0    0  0.31561254054E+02  0.14523088254E+02 -0.26011368321E+02  0.43400738839E+02  0.00000000000E+00 0. -1.
         11    1    3    3    0    0 -0.51729850742E+00  0.12760778657E+01  0.19271305786E+01  0.23685026901E+01  0.51100000000E-03 0. -1.
        -11    1    3    3    0    0 -0.27876369534E+02 -0.11450279475E+02  0.12461551774E+02  0.32611212049E+02  0.51100000000E-03 0.  1.
        -12    1    3    3    0    0 -0.31675860122E+01 -0.43488866451E+01  0.11622685969E+02  0.12807546421E+02  0.00000000000E+00 0.  1.
</event>
<event>
 7    1  0.1736465E-010  0.4778731E+02  0.7816164E-02  0.1312668E+00
        -11   -1    0    0    0    0  0.00000000000E+00  0.00000000000E+00  0.45593999997E+02  0.45594000000E+02  0.51100000000E-03 0.  1.
         11   -1    0    0    0    0 -0.00000000000E+00 -0.00000000000E+00 -0.45593999997E+02  0.45594000000E+02  0.51100000000E-03 0. -1.
    9900012    2    1    2    0    0 -0.29737559556E+02 -0.27629601139E+02  0.15359130228E+02  0.47787306586E+02  0.20000162047E+02 0.  0.
         12    1    1    2    0    0  0.29737559556E+02  0.27629601139E+02 -0.15359130228E+02  0.43400693414E+02  0.00000000000E+00 0. -1.
         11    1    3    3    0    0 -0.45669908564E+01 -0.99852233897E+01  0.97146951823E+01  0.14660743309E+02  0.51100000000E-03 0. -1.
        -11    1    3    3    0    0 -0.24309221434E+02 -0.17469956671E+02  0.76837467346E+01  0.30905947599E+02  0.51100000000E-03 0.  1.
         12    1    3    3    0    0 -0.86134726576E+00 -0.17442107847E+00 -0.20393116891E+01  0.22206156782E+01  0.00000000000E+00 0. -1.
</event>
<event>
 7    1  0.1736465E-010  0.4778726E+02  0.7816164E-02  0.1312668E+00
        -11   -1    0    0    0    0  0.00000000000E+00  0.00000000000E+00  0.45593999997E+02  0.45594000000E+02  0.51100000000E-03 0. -1.
         11   -1    0    0    0    0 -0.00000000000E+00 -0.00000000000E+00 -0.45593999997E+02  0.45594000000E+02  0.51100000000E-03 0.  1.
    9900012    2    1    2    0    0  0.26810490858E+02  0.33511260676E+02 -0.64666017700E+01  0.47787263248E+02  0.19999964455E+02 0.  0.
         12    1    1    2    0    0 -0.26810490858E+02 -0.33511260676E+02  0.64666017700E+01  0.43400736752E+02  0.00000000000E+00 0. -1.
         11    1    3    3    0    0 -0.10815915949E+01  0.13908626352E+01  0.12691865107E+01  0.21714451198E+01  0.51100000000E-03 0. -1.
        -11    1    3    3    0    0  0.20291483171E+02  0.12344013812E+02 -0.47191484144E+01  0.24215477041E+02  0.51100000000E-03 0.  1.
        -12    1    3    3    0    0  0.76005992818E+01  0.19776384229E+02 -0.30166398664E+01  0.21400341088E+02  0.00000000000E+00 0.  1.
</event>
<event>
 7    1  0.1736465E-010  0.4778727E+02  0.7816164E-02  0.1312668E+00
        -11   -1    0    0    0    0  0.00000000000E+00  0.00000000000E+00  0.45593999997E+02  0.45594000000E+02  0.51100000000E-03 0.  1.
         11   -1    0    0    0    0 -0.00000000000E+00 -0.00000000000E+00 -0.45593999997E+02  0.45594000000E+02  0.51100000000E-03 0. -1.
    9900012    2    1    2    0    0 -0.11191366732E+02 -0.98253567127E+01  0.40765663849E+02  0.47787266448E+02  0.19999979041E+02 0.  0.
         12    1    1    2    0    0  0.11191366732E+02  0.98253567127E+01 -0.40765663849E+02  0.43400733552E+02  0.00000000000E+00 0. -1.
         11    1    3    3    0    0 -0.29265381602E+01  0.13440092543E+01  0.25317313473E+01  0.40964192113E+01  0.51100000000E-03 0. -1.
        -11    1    3    3    0    0 -0.90347514500E+01  0.50223959525E+00  0.20953248888E+02  0.22823619730E+02  0.51100000000E-03 0.  1.
        -12    1    3    3    0    0  0.76992287779E+00 -0.11671605562E+02  0.17280683614E+02  0.20867227506E+02  0.00000000000E+00 0.  1.
</event>
<event>
 7    1  0.1736465E-010  0.4778727E+02  0.7816164E-02  0.1312668E+00
        -11   -1    0    0    0    0  0.00000000000E+00  0.00000000000E+00  0.45593999997E+02  0.45594000000E+02  0.51100000000E-03 0. -1.
         11   -1    0    0    0    0 -0.00000000000E+00 -0.00000000000E+00 -0.45593999997E+02  0.45594000000E+02  0.51100000000E-03 0.  1.
    9900012    2    1    2    0    0 -0.43160914204E+02  0.38983195708E+01  0.23584197338E+01  0.47787267817E+02  0.19999985285E+02 0.  0.
         12    1    1    2    0    0  0.43160914204E+02 -0.38983195708E+01 -0.23584197338E+01  0.43400732183E+02  0.00000000000E+00 0. -1.
         11    1    3    3    0    0 -0.68294873736E+01 -0.39304767339E+01  0.31456267861E+01  0.84844276931E+01  0.51100000000E-03 0. -1.
        -11    1    3    3    0    0 -0.28308895758E+02  0.48215372832E+00 -0.18470288592E+01  0.28373183944E+02  0.51100000000E-03 0.  1.
         12    1    3    3    0    0 -0.80225310726E+01  0.73466425764E+01  0.10598218069E+01  0.10929656180E+02  0.00000000000E+00 0. -1.
</event>
<event>
 7    1  0.1736465E-010  0.4778726E+02  0.7816164E-02  0.1312668E+00
        -11   -1    0    0    0    0  0.00000000000E+00  0.00000000000E+00  0.45593999997E+02  0.45594000000E+02  0.51100000000E-03 0.  1.
         11   -1    0    0    0    0 -0.00000000000E+00 -0.00000000000E+00 -0.45593999997E+02  0.45594000000E+02  0.51100000000E-03 0. -1.
    9900012    2    1    2    0    0  0.31742930129E+02  0.28843816751E+02  0.66366166532E+01  0.47787262004E+02  0.19999958783E+02 0.  0.
         12    1    1    2    0    0 -0.31742930129E+02 -0.28843816751E+02 -0.66366166532E+01  0.43400737996E+02  0.00000000000E+00 0. -1.
         11    1    3    3    0    0  0.12870310906E+02  0.62160197955E+01 -0.18676687178E+00  0.14294008781E+02  0.51100000000E-03 0. -1.
        -11    1    3    3    0    0  0.18142114782E+02  0.11228964764E+02  0.37304816721E+01  0.21659696955E+02  0.51100000000E-03 0.  1.
        -12    1    3    3    0    0  0.73050444160E+00  0.11398832192E+02  0.30929018529E+01  0.11833556268E+02  0.00000000000E+00 0.  1.
</event>
<event>
 7    1  0.1736465E-010  0.4778727E+02  0.7816164E-02  0.1312668E+00
        -11   -1    0    0    0    0  0.00000000000E+00  0.00000000000E+00  0.45593999997E+02  0.45594000000E+02  0.51100000000E-03 0. -1.
         11   -1    0    0    0    0 -0.00000000000E+00 -0.00000000000E+00 -0.45593999997E+02  0.45594000000E+02  0.51100000000E-03 0.  1.
    9900012    2    1    2    0    0  0.41312321047E+02  0.77958191892E+01 -0.10776854547E+02  0.47787271193E+02  0.20000000676E+02 0.  0.
         12    1    1    2    0    0 -0.41312321047E+02 -0.77958191892E+01  0.10776854547E+02  0.43400728807E+02  0.00000000000E+00 0. -1.
         11    1    3    3    0    0  0.12466015411E+02 -0.29509536574E+01 -0.17404220470E+01  0.12928214760E+02  0.51100000000E-03 0. -1.
        -11    1    3    3    0    0  0.25013477846E+02  0.11260467954E+02 -0.12045258041E+02  0.29959313311E+02  0.51100000000E-03 0.  1.
         12    1    3    3    0    0  0.38328277890E+01 -0.51369510700E+00  0.30088255415E+01  0.48997431221E+01  0.00000000000E+00 0. -1.
</event>
<event>
 7    1  0.1736465E-010  0.4778727E+02  0.7816164E-02  0.1312668E+00
        -11   -1    0    0    0    0  0.00000000000E+00  0.00000000000E+00  0.45593999997E+02  0.45594000000E+02  0.51100000000E-03 0.  1.
         11   -1    0    0    0    0 -0.00000000000E+00 -0.00000000000E+00 -0.45593999997E+02  0.45594000000E+02  0.51100000000E-03 0. -1.
    9900012    2    1    2    0    0  0.23792110373E+02 -0.18276973203E+02  0.31360976753E+02  0.47787272721E+02  0.20000007645E+02 0.  0.
         12    1    1    2    0    0 -0.23792110373E+02  0.18276973203E+02 -0.31360976753E+02  0.43400727279E+02  0.00000000000E+00 0. -1.
         11    1    3    3    0    0  0.76931114146E+01 -0.34735549983E+01  0.27916237783E+01  0.88905967822E+01  0.51100000000E-03 0. -1.
        -11    1    3    3    0    0  0.30975182811E+01 -0.12787700408E+02  0.15812976349E+02  0.20571099205E+02  0.51100000000E-03 0.  1.
        -12    1    3    3    0    0  0.13001480677E+02 -0.20157177977E+01  0.12756376625E+02  0.18325576734E+02  0.00000000000E+00 0.  1.
</event>
<event>
 7    1  0.1736465E-010  0.4778732E+02  0.7816164E-02  0.1312668E+00
        -11   -1    0    0    0    0  0.00000000000E+00  0.00000000000E+00  0.45593999997E+02  0.45594000000E+02  0.51100000000E-03 0. -1.
         11   -1    0    0    0    0 -0.00000000000E+00 -0.00000000000E+00 -0.45593999997E+02  0.45594000000E+02  0.51100000000E-03 0.  1.
    9900012    2    1    2    0    0 -0.23155800344E+02  0.34749078579E+02 -0.11829182611E+02  0.47787318981E+02  0.20000218559E+02 0.  0.
         12    1    1    2    0    0  0.23155800344E+02 -0.34749078579E+02  0.11829182611E+02  0.43400681019E+02  0.00000000000E+00 0. -1.
         11    1    3    3    0    0 -0.14141011639E+02  0.10277908389E+02  0.29184105949E+01  0.17723451461E+02  0.51100000000E-03 0. -1.
        -11    1    3    3    0    0 -0.25760230046E+01  0.67959940580E+01 -0.54237490280E+01  0.90685436281E+01  0.51100000000E-03 0.  1.
        -12    1    3    3    0    0 -0.64387657006E+01  0.17675176132E+02 -0.93238441782E+01  0.20995323891E+02  0.00000000000E+00 0.  1.
</event>
<event>
 7    1  0.1736465E-010  0.4778730E+02  0.7816164E-02  0.1312668E+00
        -11   -1    0    0    0    0  0.00000000000E+00  0.00000000000E+00  0.45593999997E+02  0.45594000000E+02  0.51100000000E-03 0.  1.
         11   -1    0    0    0    0 -0.00000000000E+00 -0.00000000000E+00 -0.45593999997E+02  0.45594000000E+02  0.51100000000E-03 0. -1.
    9900012    2    1    2    0    0 -0.27543576745E+02  0.31960953937E+02  0.10171980058E+02  0.47787304444E+02  0.20000152280E+02 0.  0.
         12    1    1    2    0    0  0.27543576745E+02 -0.31960953937E+02 -0.10171980058E+02  0.43400695556E+02  0.00000000000E+00 0. -1.
         11    1    3    3    0    0 -0.14634583890E+02  0.15862707744E+02 -0.34569879607E+00  0.21585088615E+02  0.51100000000E-03 0. -1.
        -11    1    3    3    0    0 -0.13710075368E+02  0.11717702880E+02  0.11818836460E+02  0.21562829659E+02  0.51100000000E-03 0.  1.
         12    1    3    3    0    0  0.80108251247E+00  0.43805433139E+01 -0.13011576065E+01  0.46393861699E+01  0.00000000000E+00 0. -1.
</event>
<event>
 7    1  0.1736465E-010  0.4778727E+02  0.7816164E-02  0.1312668E+00
        -11   -1    0    0    0    0  0.00000000000E+00  0.00000000000E+00  0.45593999997E+02  0.45594000000E+02  0.51100000000E-03 0. -1.
         11   -1    0    0    0    0 -0.00000000000E+00 -0.00000000000E+00 -0.45593999997E+02  0.45594000000E+02  0.51100000000E-03 0.  1.
    9900012    2    1    2    0    0 -0.77254249858E+01  0.92834453947E+01 -0.41686434903E+02  0.47787269540E+02  0.19999993139E+02 0.  0.
         12    1    1    2    0    0  0.77254249858E+01 -0.92834453947E+01  0.41686434903E+02  0.43400730460E+02  0.00000000000E+00 0. -1.
         11    1    3    3    0    0 -0.59916790813E+01  0.91773529193E+01 -0.13589362692E+02  0.17458373448E+02  0.51100000000E-03 0. -1.
        -11    1    3    3    0    0  0.42176388961E+01  0.13520399045E+01 -0.63099468431E+01  0.77092100234E+01  0.51100000000E-03 0.  1.
        -12    1    3    3    0    0 -0.59513848005E+01 -0.12459474291E+01 -0.21787125367E+02  0.22619686068E+02  0.00000000000E+00 0.  1.
</event>
<event>
 7    1  0.1736465E-010  0.4778727E+02  0.7816164E-02  0.1312668E+00
        -11   -1    0    0    0    0  0.00000000000E+00  0.00000000000E+00  0.45593999997E+02  0.45594000000E+02  0.51100000000E-03 0.  1.
         11   -1    0    0    0    0 -0.00000000000E+00 -0.00000000000E+00 -0.45593999997E+02  0.45594000000E+02  0.51100000000E-03 0. -1.
    9900012    2    1    2    0    0 -0.23966949422E+02 -0.29386104908E+02  0.21110791386E+02  0.47787270292E+02  0.19999996568E+02 0.  0.
         12    1    1    2    0    0  0.23966949422E+02  0.29386104908E+02 -0.21110791386E+02  0.43400729708E+02  0.00000000000E+00 0. -1.
         11    1    3    3    0    0 -0.25808849952E+01 -0.43947700287E+01  0.23504939804E+00  0.51019819134E+01  0.51100000000E-03 0. -1.
        -11    1    3    3    0    0 -0.11256818103E+02 -0.22259094621E+02  0.82565244850E+01  0.26274577903E+02  0.51100000000E-03 0.  1.
         12    1    3    3    0    0 -0.10129246324E+02 -0.27322402588E+01  0.12619217503E+02  0.16410710475E+02  0.00000000000E+00 0. -1.
</event>
<event>
 7    1  0.1736465E-010  0.4778727E+02  0.7816164E-02  0.1312668E+00
        -11   -1    0    0    0    0  0.00000000000E+00  0.00000000000E+00  0.45593999997E+02  0.45594000000E+02  0.51100000000E-03 0. -1.
         11   -1    0    0    0    0 -0.00000000000E+00 -0.00000000000E+00 -0.45593999997E+02  0.45594000000E+02  0.51100000000E-03 0.  1.
    9900012    2    1    2    0    0  0.11577261340E+02  0.10476887073E+02 -0.40494754066E+02  0.47787271322E+02  0.20000001267E+02 0.  0.
         12    1    1    2    0    0 -0.11577261340E+02 -0.10476887073E+02  0.40494754066E+02  0.43400728678E+02  0.00000000000E+00 0. -1.
         11    1    3    3    0    0  0.60640550921E+01  0.53198823455E+01 -0.15797455870E+02  0.17737912069E+02  0.51100000000E-03 0.  1.
        -11    1    3    3    0    0 -0.14737678376E+01  0.54132720240E+01 -0.14800961678E+01  0.58022573687E+01  0.51100000000E-03 0. -1.
        -12    1    3    3    0    0  0.69869740860E+01 -0.25626729642E+00 -0.23217202028E+02  0.24247101885E+02  0.00000000000E+00 0.  1.
</event>
<event>
 7    1  0.1736465E-010  0.4778728E+02  0.7816164E-02  0.1312668E+00
        -11   -1    0    0    0    0  0.00000000000E+00  0.00000000000E+00  0.45593999997E+02  0.45594000000E+02  0.51100000000E-03 0.  1.
         11   -1    0    0    0    0 -0.00000000000E+00 -0.00000000000E+00 -0.45593999997E+02  0.45594000000E+02  0.51100000000E-03 0. -1.
    9900012    2    1    2    0    0 -0.26153204066E+02  0.10111928130E+02  0.33126751346E+02  0.47787276179E+02  0.20000023412E+02 0.  0.
         12    1    1    2    0    0  0.26153204066E+02 -0.10111928130E+02 -0.33126751346E+02  0.43400723821E+02  0.00000000000E+00 0. -1.
         11    1    3    3    0    0 -0.68413806993E+01  0.47513264432E+01  0.11398824840E+02  0.14117818558E+02  0.51100000000E-03 0. -1.
        -11    1    3    3    0    0 -0.19712329562E+02  0.91874134609E+01  0.19575432317E+02  0.29260588742E+02  0.51100000000E-03 0.  1.
         12    1    3    3    0    0  0.40050619530E+00 -0.38268117736E+01  0.21524941887E+01  0.44088688794E+01  0.00000000000E+00 0. -1.
</event>
<event>
 7    1  0.1736465E-010  0.4778728E+02  0.7816164E-02  0.1312668E+00
        -11   -1    0    0    0    0  0.00000000000E+00  0.00000000000E+00  0.45593999997E+02  0.45594000000E+02  0.51100000000E-03 0.  1.
         11   -1    0    0    0    0 -0.00000000000E+00 -0.00000000000E+00 -0.45593999997E+02  0.45594000000E+02  0.51100000000E-03 0. -1.
    9900012    2    1    2    0    0  0.28134524820E+02  0.33030818054E+02  0.10177863944E+01  0.47787282064E+02  0.20000050244E+02 0.  0.
         12    1    1    2    0    0 -0.28134524820E+02 -0.33030818054E+02 -0.10177863944E+01  0.43400717936E+02  0.00000000000E+00 0. -1.
         11    1    3    3    0    0  0.27265537225E+01 -0.20490933226E+01 -0.24825768545E+00  0.34197237880E+01  0.51100000000E-03 0. -1.
        -11    1    3    3    0    0  0.16292686613E+02  0.19378088451E+02  0.50639638592E+01  0.25818707933E+02  0.51100000000E-03 0.  1.
        -12    1    3    3    0    0  0.91152844844E+01  0.15701822925E+02 -0.37979197794E+01  0.18548850343E+02  0.00000000000E+00 0.  1.
</event>
<event>
 7    1  0.1736465E-010  0.4778727E+02  0.7816164E-02  0.1312668E+00
        -11   -1    0    0    0    0  0.00000000000E+00  0.00000000000E+00  0.45593999997E+02  0.45594000000E+02  0.51100000000E-03 0.  1.
         11   -1    0    0    0    0 -0.00000000000E+00 -0.00000000000E+00 -0.45593999997E+02  0.45594000000E+02  0.51100000000E-03 0. -1.
    9900012    2    1    2    0    0  0.18549031334E+02  0.23000773880E+02  0.31788701129E+02  0.47787266342E+02  0.19999978562E+02 0.  0.
         12    1    1    2    0    0 -0.18549031334E+02 -0.23000773880E+02 -0.31788701129E+02  0.43400733658E+02  0.00000000000E+00 0. -1.
         11    1    3    3    0    0 -0.75085092752E+00  0.12603555352E+02  0.14330615735E+02  0.19099212870E+02  0.51100000000E-03 0. -1.
        -11    1    3    3    0    0  0.87672142992E+01  0.74150086794E+01  0.11383528487E+02  0.16168831787E+02  0.51100000000E-03 0.  1.
         12    1    3    3    0    0  0.10532667963E+02  0.29822098483E+01  0.60745569069E+01  0.12519221685E+02  0.00000000000E+00 0. -1.
</event>
<event>
 7    1  0.1736465E-010  0.4778727E+02  0.7816164E-02  0.1312668E+00
        -11   -1    0    0    0    0  0.00000000000E+00  0.00000000000E+00  0.45593999997E+02  0.45594000000E+02  0.51100000000E-03 0. -1.
         11   -1    0    0    0    0 -0.00000000000E+00 -0.00000000000E+00 -0.45593999997E+02  0.45594000000E+02  0.51100000000E-03 0.  1.
    9900012    2    1    2    0    0  0.21666712946E+02 -0.25269967814E+02 -0.27849689725E+02  0.47787274879E+02  0.20000017485E+02 0.  0.
         12    1    1    2    0    0 -0.21666712946E+02  0.25269967814E+02  0.27849689725E+02  0.43400725121E+02  0.00000000000E+00 0. -1.
         11    1    3    3    0    0  0.14211141703E+02 -0.13042010814E+02 -0.15554760507E+02  0.24779046980E+02  0.51100000000E-03 0. -1.
        -11    1    3    3    0    0  0.12278009339E+01 -0.12145162004E+02 -0.11424827417E+02  0.16719423944E+02  0.51100000000E-03 0.  1.
         12    1    3    3    0    0  0.62277703100E+01 -0.82794995797E-01 -0.87010180114E+00  0.62888039554E+01  0.00000000000E+00 0. -1.
</event>
<event>
 7    1  0.1736465E-010  0.4778727E+02  0.7816164E-02  0.1312668E+00
        -11   -1    0    0    0    0  0.00000000000E+00  0.00000000000E+00  0.45593999997E+02  0.45594000000E+02  0.51100000000E-03 0.  1.
         11   -1    0    0    0    0 -0.00000000000E+00 -0.00000000000E+00 -0.45593999997E+02  0.45594000000E+02  0.51100000000E-03 0. -1.
    9900012    2    1    2    0    0  0.22811420410E+01  0.25507104033E+02  0.35040078304E+02  0.47787273592E+02  0.20000011615E+02 0.  0.
         12    1    1    2    0    0 -0.22811420410E+01 -0.25507104033E+02 -0.35040078304E+02  0.43400726408E+02  0.00000000000E+00 0. -1.
         11    1    3    3    0    0  0.37873491159E+01 -0.32065755683E+00  0.30070742133E+01  0.48465792246E+01  0.51100000000E-03 0. -1.
        -11    1    3    3    0    0 -0.42990720964E+01  0.69580821292E+01  0.16211623670E+02  0.18158019443E+02  0.51100000000E-03 0.  1.
        -12    1    3    3    0    0  0.27928650216E+01  0.18869679461E+02  0.15821380420E+02  0.24782674924E+02  0.00000000000E+00 0.  1.
</event>
<event>
 7    1  0.1736465E-010  0.4778733E+02  0.7816164E-02  0.1312667E+00
        -11   -1    0    0    0    0  0.00000000000E+00  0.00000000000E+00  0.45593999997E+02  0.45594000000E+02  0.51100000000E-03 0.  1.
         11   -1    0    0    0    0 -0.00000000000E+00 -0.00000000000E+00 -0.45593999997E+02  0.45594000000E+02  0.51100000000E-03 0. -1.
    9900012    2    1    2    0    0 -0.41238298856E+02 -0.96582648830E+01  0.94730575142E+01  0.47787329593E+02  0.20000266947E+02 0.  0.
         12    1    1    2    0    0  0.41238298856E+02  0.96582648830E+01 -0.94730575142E+01  0.43400670407E+02  0.00000000000E+00 0. -1.
         11    1    3    3    0    0 -0.17253342287E+02  0.63747911477E-01  0.25583175884E+01  0.17442100590E+02  0.51100000000E-03 0. -1.
        -11    1    3    3    0    0 -0.22596105782E+02 -0.31718267151E+01  0.59466103657E+01  0.23579793391E+02  0.51100000000E-03 0.  1.
         12    1    3    3    0    0 -0.13888507866E+01 -0.65501860794E+01  0.96812956019E+00  0.67654356125E+01  0.00000000000E+00 0. -1.
</event>
<event>
 7    1  0.1736465E-010  0.4778727E+02  0.7816164E-02  0.1312668E+00
        -11   -1    0    0    0    0  0.00000000000E+00  0.00000000000E+00  0.45593999997E+02  0.45594000000E+02  0.51100000000E-03 0.  1.
         11   -1    0    0    0    0 -0.00000000000E+00 -0.00000000000E+00 -0.45593999997E+02  0.45594000000E+02  0.51100000000E-03 0. -1.
    9900012    2    1    2    0    0 -0.12240946719E+02 -0.31912656626E+02  0.26746312243E+02  0.47787266733E+02  0.19999980342E+02 0.  0.
         12    1    1    2    0    0  0.12240946719E+02  0.31912656626E+02 -0.26746312243E+02  0.43400733267E+02  0.00000000000E+00 0. -1.
         11    1    3    3    0    0  0.22975511078E+01 -0.15567411958E+02  0.16199475149E+02  0.22584199156E+02  0.51100000000E-03 0. -1.
        -11    1    3    3    0    0 -0.57313498122E+01 -0.29985865983E+01  0.53347507564E+01  0.83844772139E+01  0.51100000000E-03 0.  1.
         12    1    3    3    0    0 -0.88071480144E+01 -0.13346658070E+02  0.52120863371E+01  0.16818590362E+02  0.00000000000E+00 0. -1.
</event>
<event>
 7    1  0.1736465E-010  0.4778727E+02  0.7816164E-02  0.1312668E+00
        -11   -1    0    0    0    0  0.00000000000E+00  0.00000000000E+00  0.45593999997E+02  0.45594000000E+02  0.51100000000E-03 0.  1.
         11   -1    0    0    0    0 -0.00000000000E+00 -0.00000000000E+00 -0.45593999997E+02  0.45594000000E+02  0.51100000000E-03 0. -1.
    9900012    2    1    2    0    0  0.17794298681E+02  0.37738344503E+02  0.11950030121E+02  0.47787274991E+02  0.20000017996E+02 0.  0.
         12    1    1    2    0    0 -0.17794298681E+02 -0.37738344503E+02 -0.11950030121E+02  0.43400725009E+02  0.00000000000E+00 0. -1.
         11    1    3    3    0    0 -0.22196211121E+01  0.43538334689E+01  0.10799521753E+01  0.50048856848E+01  0.51100000000E-03 0. -1.
        -11    1    3    3    0    0  0.13777469208E+02  0.31025819129E+02  0.58765469764E+01  0.34452197535E+02  0.51100000000E-03 0.  1.
         12    1    3    3    0    0  0.62364505848E+01  0.23586919055E+01  0.49935309695E+01  0.83301917712E+01  0.00000000000E+00 0. -1.
</event>
<event>
 7    1  0.1736465E-010  0.4778727E+02  0.7816164E-02  0.1312668E+00
        -11   -1    0    0    0    0  0.00000000000E+00  0.00000000000E+00  0.45593999997E+02  0.45594000000E+02  0.51100000000E-03 0. -1.
         11   -1    0    0    0    0 -0.00000000000E+00 -0.00000000000E+00 -0.45593999997E+02  0.45594000000E+02  0.51100000000E-03 0.  1.
    9900012    2    1    2    0    0  0.26127913313E+02 -0.15222422004E+02 -0.31132513199E+02  0.47787270008E+02  0.19999995276E+02 0.  0.
         12    1    1    2    0    0 -0.26127913313E+02  0.15222422004E+02  0.31132513199E+02  0.43400729992E+02  0.00000000000E+00 0. -1.
         11    1    3    3    0    0  0.78586179471E+01 -0.83660658149E+01 -0.19202588713E+02  0.22371596877E+02  0.51100000000E-03 0. -1.
        -11    1    3    3    0    0  0.92299791527E+01 -0.42881626241E+01 -0.12357336276E+02  0.16008891715E+02  0.51100000000E-03 0.  1.
         12    1    3    3    0    0  0.90393162128E+01 -0.25681935650E+01  0.42741179052E+00  0.94067814167E+01  0.00000000000E+00 0. -1.
</event>
<event>
 7    1  0.1736465E-010  0.4778727E+02  0.7816164E-02  0.1312668E+00
        -11   -1    0    0    0    0  0.00000000000E+00  0.00000000000E+00  0.45593999997E+02  0.45594000000E+02  0.51100000000E-03 0.  1.
         11   -1    0    0    0    0 -0.00000000000E+00 -0.00000000000E+00 -0.45593999997E+02  0.45594000000E+02  0.51100000000E-03 0. -1.
    9900012    2    1    2    0    0 -0.25346803528E+02 -0.26311338475E+02  0.23428109428E+02  0.47787270827E+02  0.19999999007E+02 0.  0.
         12    1    1    2    0    0  0.25346803528E+02  0.26311338475E+02 -0.23428109428E+02  0.43400729173E+02  0.00000000000E+00 0. -1.
         11    1    3    3    0    0 -0.43234673162E+01 -0.96151704053E+01  0.25045092104E+01  0.10835886591E+02  0.51100000000E-03 0. -1.
        -11    1    3    3    0    0 -0.50795517227E+01 -0.65942644674E+01  0.15024758617E+02  0.17176423997E+02  0.51100000000E-03 0.  1.
        -12    1    3    3    0    0 -0.15943784489E+02 -0.10101903602E+02  0.58988416005E+01  0.19774960239E+02  0.00000000000E+00 0.  1.
</event>
<event>
 7    1  0.1736465E-010  0.4778728E+02  0.7816164E-02  0.1312668E+00
        -11   -1    0    0    0    0  0.00000000000E+00  0.00000000000E+00  0.45593999997E+02  0.45594000000E+02  0.51100000000E-03 0. -1.
         11   -1    0    0    0    0 -0.00000000000E+00 -0.00000000000E+00 -0.45593999997E+02  0.45594000000E+02  0.51100000000E-03 0.  1.
    9900012    2    1    2    0    0  0.94720436562E+01 -0.35037899851E+02 -0.23795982772E+02  0.47787276123E+02  0.20000023153E+02 0.  0.
         12    1    1    2    0    0 -0.94720436562E+01  0.35037899851E+02  0.23795982772E+02  0.43400723877E+02  0.00000000000E+00 0. -1.
         11    1    3    3    0    0  0.19825938363E+01 -0.16924399933E+02 -0.18002313977E+02  0.24788087869E+02  0.51100000000E-03 0.  1.
        -11    1    3    3    0    0 -0.13209389123E+01  0.57624545589E+00  0.26853052848E+00  0.14659629399E+01  0.51100000000E-03 0. -1.
         12    1    3    3    0    0  0.88103887321E+01 -0.18689745374E+02 -0.60621993226E+01  0.21533225313E+02  0.00000000000E+00 0. -1.
</event>
<event>
 7    1  0.1736465E-010  0.4778727E+02  0.7816164E-02  0.1312668E+00
        -11   -1    0    0    0    0  0.00000000000E+00  0.00000000000E+00  0.45593999997E+02  0.45594000000E+02  0.51100000000E-03 0. -1.
         11   -1    0    0    0    0 -0.00000000000E+00 -0.00000000000E+00 -0.45593999997E+02  0.45594000000E+02  0.51100000000E-03 0.  1.
    9900012    2    1    2    0    0  0.50999158892E+01 -0.42584572809E+02  0.66459265573E+01  0.47787270476E+02  0.19999997410E+02 0.  0.
         12    1    1    2    0    0 -0.50999158892E+01  0.42584572809E+02 -0.66459265573E+01  0.43400729524E+02  0.00000000000E+00 0. -1.
         11    1    3    3    0    0 -0.19137398773E+00 -0.49521372115E+01 -0.39029097932E+01  0.63081686788E+01  0.51100000000E-03 0. -1.
        -11    1    3    3    0    0  0.14209356784E+01 -0.13273786376E+02  0.10220294570E+02  0.16812700090E+02  0.51100000000E-03 0.  1.
        -12    1    3    3    0    0  0.38703541986E+01 -0.24358649221E+02  0.32854178101E+00  0.24666401708E+02  0.00000000000E+00 0.  1.
</event>
<event>
 7    1  0.1736465E-010  0.4778727E+02  0.7816164E-02  0.1312668E+00
        -11   -1    0    0    0    0  0.00000000000E+00  0.00000000000E+00  0.45593999997E+02  0.45594000000E+02  0.51100000000E-03 0. -1.
         11   -1    0    0    0    0 -0.00000000000E+00 -0.00000000000E+00 -0.45593999997E+02  0.45594000000E+02  0.51100000000E-03 0.  1.
    9900012    2    1    2    0    0 -0.51118485216E+01 -0.25944094396E+02 -0.34415061883E+02  0.47787268281E+02  0.19999987399E+02 0.  0.
         12    1    1    2    0    0  0.51118485216E+01  0.25944094396E+02  0.34415061883E+02  0.43400731719E+02  0.00000000000E+00 0. -1.
         11    1    3    3    0    0  0.13808253763E+00 -0.61786881656E+01 -0.13515035327E+02  0.14861071105E+02  0.51100000000E-03 0. -1.
        -11    1    3    3    0    0 -0.64418636608E+01 -0.13343237997E+01 -0.30891018246E+01  0.72677766732E+01  0.51100000000E-03 0.  1.
         12    1    3    3    0    0  0.11919326016E+01 -0.18431082431E+02 -0.17810924732E+02  0.25658420503E+02  0.00000000000E+00 0. -1.
</event>
<event>
 7    1  0.1736465E-010  0.4778727E+02  0.7816164E-02  0.1312668E+00
        -11   -1    0    0    0    0  0.00000000000E+00  0.00000000000E+00  0.45593999997E+02  0.45594000000E+02  0.51100000000E-03 0. -1.
         11   -1    0    0    0    0 -0.00000000000E+00 -0.00000000000E+00 -0.45593999997E+02  0.45594000000E+02  0.51100000000E-03 0.  1.
    9900012    2    1    2    0    0 -0.24999906175E+02  0.34989063123E+02 -0.58645907145E+01  0.47787271075E+02  0.20000000139E+02 0.  0.
         12    1    1    2    0    0  0.24999906175E+02 -0.34989063123E+02  0.58645907145E+01  0.43400728925E+02  0.00000000000E+00 0. -1.
         11    1    3    3    0    0 -0.66842597542E+01  0.12042812825E+02  0.54965102927E+01  0.14829709871E+02  0.51100000000E-03 0. -1.
        -11    1    3    3    0    0 -0.35779881918E+01  0.11973274802E+02 -0.56677149434E+01  0.13721672709E+02  0.51100000000E-03 0.  1.
        -12    1    3    3    0    0 -0.14737658229E+02  0.10972975495E+02 -0.56933860637E+01  0.19235888495E+02  0.00000000000E+00 0.  1.
</event>
<event>
 7    1  0.1736465E-010  0.4778725E+02  0.7816164E-02  0.1312668E+00
        -11   -1    0    0    0    0  0.00000000000E+00  0.00000000000E+00  0.45593999997E+02  0.45594000000E+02  0.51100000000E-03 0.  1.
         11   -1    0    0    0    0 -0.00000000000E+00 -0.00000000000E+00 -0.45593999997E+02  0.45594000000E+02  0.51100000000E-03 0. -1.
    9900012    2    1    2    0    0  0.39117761126E+02 -0.11914486181E+02 -0.14542033894E+02  0.47787251547E+02  0.19999911103E+02 0.  0.
         12    1    1    2    0    0 -0.39117761126E+02  0.11914486181E+02  0.14542033894E+02  0.43400748453E+02  0.00000000000E+00 0. -1.
         11    1    3    3    0    0  0.55963968495E+01 -0.77248865856E+01 -0.38686789713E+01  0.10293697475E+02  0.51100000000E-03 0. -1.
        -11    1    3    3    0    0  0.17023531641E+02  0.32207398291E+01 -0.20154850016E+01  0.17442361498E+02  0.51100000000E-03 0.  1.
         12    1    3    3    0    0  0.16497832636E+02 -0.74103394248E+01 -0.86578699211E+01  0.20051192574E+02  0.00000000000E+00 0. -1.
</event>
<event>
 7    1  0.1736465E-010  0.4778727E+02  0.7816164E-02  0.1312668E+00
        -11   -1    0    0    0    0  0.00000000000E+00  0.00000000000E+00  0.45593999997E+02  0.45594000000E+02  0.51100000000E-03 0. -1.
         11   -1    0    0    0    0 -0.00000000000E+00 -0.00000000000E+00 -0.45593999997E+02  0.45594000000E+02  0.51100000000E-03 0.  1.
    9900012    2    1    2    0    0  0.61687310814E+01  0.42959866193E+02 -0.14076479862E+00  0.47787272343E+02  0.20000005919E+02 0.  0.
         12    1    1    2    0    0 -0.61687310814E+01 -0.42959866193E+02  0.14076479862E+00  0.43400727657E+02  0.00000000000E+00 0. -1.
         11    1    3    3    0    0 -0.29724414688E+01  0.34892728955E+02  0.15547232815E+01  0.35053603338E+02  0.51100000000E-03 0. -1.
        -11    1    3    3    0    0  0.46132475069E+01  0.61804585688E+01 -0.11642456395E+01  0.77997172290E+01  0.51100000000E-03 0.  1.
         12    1    3    3    0    0  0.45279250433E+01  0.18866786692E+01 -0.53124244065E+00  0.49339517761E+01  0.00000000000E+00 0. -1.
</event>
<event>
 7    1  0.1736465E-010  0.4778727E+02  0.7816164E-02  0.1312668E+00
        -11   -1    0    0    0    0  0.00000000000E+00  0.00000000000E+00  0.45593999997E+02  0.45594000000E+02  0.51100000000E-03 0.  1.
         11   -1    0    0    0    0 -0.00000000000E+00 -0.00000000000E+00 -0.45593999997E+02  0.45594000000E+02  0.51100000000E-03 0. -1.
    9900012    2    1    2    0    0  0.25960843850E+02 -0.33361497812E+02  0.98320024344E+01  0.47787271647E+02  0.20000002747E+02 0.  0.
         12    1    1    2    0    0 -0.25960843850E+02  0.33361497812E+02 -0.98320024344E+01  0.43400728353E+02  0.00000000000E+00 0. -1.
         11    1    3    3    0    0  0.10488242410E+02 -0.24506530282E+02  0.32667446567E+01  0.26856002611E+02  0.51100000000E-03 0. -1.
        -11    1    3    3    0    0  0.13309953444E+02 -0.80760163810E+01  0.18403135143E+01  0.15676850939E+02  0.51100000000E-03 0.  1.
        -12    1    3    3    0    0  0.21626479965E+01 -0.77895114929E+00  0.47249442634E+01  0.52544180974E+01  0.00000000000E+00 0.  1.
</event>
<event>
 7    1  0.1736465E-010  0.4778727E+02  0.7816164E-02  0.1312668E+00
        -11   -1    0    0    0    0  0.00000000000E+00  0.00000000000E+00  0.45593999997E+02  0.45594000000E+02  0.51100000000E-03 0. -1.
         11   -1    0    0    0    0 -0.00000000000E+00 -0.00000000000E+00 -0.45593999997E+02  0.45594000000E+02  0.51100000000E-03 0.  1.
    9900012    2    1    2    0    0 -0.98147281820E+01  0.42273192226E+02 -0.52096288503E+00  0.47787273364E+02  0.20000010575E+02 0.  0.
         12    1    1    2    0    0  0.98147281820E+01 -0.42273192226E+02  0.52096288503E+00  0.43400726636E+02  0.00000000000E+00 0. -1.
         11    1    3    3    0    0 -0.12877663861E+02  0.23251179847E+02 -0.47180645569E+01  0.26994661032E+02  0.51100000000E-03 0. -1.
        -11    1    3    3    0    0 -0.34029971272E+00  0.15365932827E+02  0.31775331865E+01  0.15694725641E+02  0.51100000000E-03 0.  1.
        -12    1    3    3    0    0  0.34032353915E+01  0.36560795516E+01  0.10195684854E+01  0.50978866910E+01  0.00000000000E+00 0.  1.
</event>
<event>
 7    1  0.1736465E-010  0.4778727E+02  0.7816164E-02  0.1312668E+00
        -11   -1    0    0    0    0  0.00000000000E+00  0.00000000000E+00  0.45593999997E+02  0.45594000000E+02  0.51100000000E-03 0.  1.
         11   -1    0    0    0    0 -0.00000000000E+00 -0.00000000000E+00 -0.45593999997E+02  0.45594000000E+02  0.51100000000E-03 0. -1.
    9900012    2    1    2    0    0  0.33715878910E+02 -0.23451647372E+02  0.14031495469E+02  0.47787272815E+02  0.20000008072E+02 0.  0.
         12    1    1    2    0    0 -0.33715878910E+02  0.23451647372E+02 -0.14031495469E+02  0.43400727185E+02  0.00000000000E+00 0. -1.
         11    1    3    3    0    0  0.48885099433E+01 -0.37423233258E+00 -0.17572843596E+01  0.52082269427E+01  0.51100000000E-03 0. -1.
        -11    1    3    3    0    0  0.26685114258E+02 -0.23070133515E+02  0.10393980393E+02  0.36774464130E+02  0.51100000000E-03 0.  1.
        -12    1    3    3    0    0  0.21422547083E+01 -0.72815243238E-02  0.53947994356E+01  0.58045817426E+01  0.00000000000E+00 0.  1.
</event>
<event>
 7    1  0.1736465E-010  0.4778727E+02  0.7816164E-02  0.1312668E+00
        -11   -1    0    0    0    0  0.00000000000E+00  0.00000000000E+00  0.45593999997E+02  0.45594000000E+02  0.51100000000E-03 0.  1.
         11   -1    0    0    0    0 -0.00000000000E+00 -0.00000000000E+00 -0.45593999997E+02  0.45594000000E+02  0.51100000000E-03 0. -1.
    9900012    2    1    2    0    0 -0.77490902942E+01  0.15956940917E+02  0.39609991594E+02  0.47787265008E+02  0.19999972476E+02 0.  0.
         12    1    1    2    0    0  0.77490902942E+01 -0.15956940917E+02 -0.39609991594E+02  0.43400734992E+02  0.00000000000E+00 0. -1.
         11    1    3    3    0    0  0.20186053431E+01  0.39460846199E+01  0.26515921505E+02  0.26883832407E+02  0.51100000000E-03 0. -1.
        -11    1    3    3    0    0 -0.53387553053E+01  0.31615522517E+01  0.66467536796E+01  0.90926924279E+01  0.51100000000E-03 0.  1.
         12    1    3    3    0    0 -0.44289403321E+01  0.88493040456E+01  0.64473164093E+01  0.11810740173E+02  0.00000000000E+00 0. -1.
</event>
<event>
 7    1  0.1736465E-010  0.4778727E+02  0.7816164E-02  0.1312668E+00
        -11   -1    0    0    0    0  0.00000000000E+00  0.00000000000E+00  0.45593999997E+02  0.45594000000E+02  0.51100000000E-03 0. -1.
         11   -1    0    0    0    0 -0.00000000000E+00 -0.00000000000E+00 -0.45593999997E+02  0.45594000000E+02  0.51100000000E-03 0.  1.
    9900012    2    1    2    0    0 -0.29746118285E+02  0.20113757990E+02 -0.24376807040E+02  0.47787268037E+02  0.19999986286E+02 0.  0.
         12    1    1    2    0    0  0.29746118285E+02 -0.20113757990E+02  0.24376807040E+02  0.43400731963E+02  0.00000000000E+00 0. -1.
         11    1    3    3    0    0 -0.15930840140E+02  0.70859634234E+01 -0.91815397562E+01  0.19705410875E+02  0.51100000000E-03 0.  1.
        -11    1    3    3    0    0 -0.39714779687E+01  0.12296372676E+02 -0.12188215511E+02  0.17763051986E+02  0.51100000000E-03 0. -1.
         12    1    3    3    0    0 -0.98438001758E+01  0.73142189043E+00 -0.30070517733E+01  0.10318805175E+02  0.00000000000E+00 0. -1.
</event>
<event>
 7    1  0.1736465E-010  0.4778728E+02  0.7816164E-02  0.1312668E+00
        -11   -1    0    0    0    0  0.00000000000E+00  0.00000000000E+00  0.45593999997E+02  0.45594000000E+02  0.51100000000E-03 0.  1.
         11   -1    0    0    0    0 -0.00000000000E+00 -0.00000000000E+00 -0.45593999997E+02  0.45594000000E+02  0.51100000000E-03 0. -1.
    9900012    2    1    2    0    0  0.13597278424E+02  0.34674026597E+02 -0.22281130368E+02  0.47787275680E+02  0.20000021135E+02 0.  0.
         12    1    1    2    0    0 -0.13597278424E+02 -0.34674026597E+02  0.22281130368E+02  0.43400724320E+02  0.00000000000E+00 0. -1.
         11    1    3    3    0    0  0.57138260610E+01  0.42547015825E+01 -0.55825814037E+01  0.90507187119E+01  0.51100000000E-03 0. -1.
        -11    1    3    3    0    0 -0.45013980433E+01  0.90345852975E+01 -0.64809328739E+01  0.11995366064E+02  0.51100000000E-03 0.  1.
        -12    1    3    3    0    0  0.12384850407E+02  0.21384739717E+02 -0.10217616091E+02  0.26741190904E+02  0.00000000000E+00 0.  1.
</event>
<event>
 7    1  0.1736465E-010  0.4778728E+02  0.7816164E-02  0.1312668E+00
        -11   -1    0    0    0    0  0.00000000000E+00  0.00000000000E+00  0.45593999997E+02  0.45594000000E+02  0.51100000000E-03 0. -1.
         11   -1    0    0    0    0 -0.00000000000E+00 -0.00000000000E+00 -0.45593999997E+02  0.45594000000E+02  0.51100000000E-03 0.  1.
    9900012    2    1    2    0    0 -0.17875315217E+02 -0.18984064617E+02 -0.34694393747E+02  0.47787279258E+02  0.20000037447E+02 0.  0.
         12    1    1    2    0    0  0.17875315217E+02  0.18984064617E+02  0.34694393747E+02  0.43400720742E+02  0.00000000000E+00 0. -1.
         11    1    3    3    0    0 -0.22552964970E+01 -0.12931140855E+01 -0.26507039942E+01  0.37127803940E+01  0.51100000000E-03 0. -1.
        -11    1    3    3    0    0 -0.12599745630E+02 -0.34516268717E+01 -0.24294386036E+02  0.27584135134E+02  0.51100000000E-03 0.  1.
         12    1    3    3    0    0 -0.30202730897E+01 -0.14239323659E+02 -0.77493037174E+01  0.16490363729E+02  0.00000000000E+00 0. -1.
</event>
<event>
 7    1  0.1736465E-010  0.4778727E+02  0.7816164E-02  0.1312668E+00
        -11   -1    0    0    0    0  0.00000000000E+00  0.00000000000E+00  0.45593999997E+02  0.45594000000E+02  0.51100000000E-03 0.  1.
         11   -1    0    0    0    0 -0.00000000000E+00 -0.00000000000E+00 -0.45593999997E+02  0.45594000000E+02  0.51100000000E-03 0. -1.
    9900012    2    1    2    0    0  0.30403651793E+02 -0.18793724998E+02  0.24617821624E+02  0.47787270937E+02  0.19999999512E+02 0.  0.
         12    1    1    2    0    0 -0.30403651793E+02  0.18793724998E+02 -0.24617821624E+02  0.43400729063E+02  0.00000000000E+00 0. -1.
         11    1    3    3    0    0  0.65503427082E+01  0.14234366871E+01  0.63248003473E+01  0.92160870922E+01  0.51100000000E-03 0. -1.
        -11    1    3    3    0    0  0.16889405079E+02 -0.17374405514E+02  0.19306203583E+02  0.30981469751E+02  0.51100000000E-03 0.  1.
         12    1    3    3    0    0  0.69639040055E+01 -0.28427561712E+01 -0.10131823060E+01  0.75897140942E+01  0.00000000000E+00 0. -1.
</event>
<event>
 7    1  0.1736465E-010  0.4778726E+02  0.7816164E-02  0.1312668E+00
        -11   -1    0    0    0    0  0.00000000000E+00  0.00000000000E+00  0.45593999997E+02  0.45594000000E+02  0.51100000000E-03 0. -1.
         11   -1    0    0    0    0 -0.00000000000E+00 -0.00000000000E+00 -0.45593999997E+02  0.45594000000E+02  0.51100000000E-03 0.  1.
    9900012    2    1    2    0    0  0.16704224589E+02 -0.40057375332E+02 -0.40307441580E-02  0.47787257451E+02  0.19999938020E+02 0.  0.
         12    1    1    2    0    0 -0.16704224589E+02  0.40057375332E+02  0.40307441580E-02  0.43400742549E+02  0.00000000000E+00 0. -1.
         11    1    3    3    0    0  0.15776338631E+02 -0.21180911339E+02  0.44281312231E+01  0.26779324341E+02  0.51100000000E-03 0. -1.
        -11    1    3    3    0    0  0.41998635017E+00 -0.54057433112E+00  0.15661023786E+01  0.17091770134E+01  0.51100000000E-03 0.  1.
        -12    1    3    3    0    0  0.50789960704E+00 -0.18335889662E+02 -0.59982643459E+01  0.19298756096E+02  0.00000000000E+00 0.  1.
</event>
<event>
 7    1  0.1736465E-010  0.4778727E+02  0.7816164E-02  0.1312668E+00
        -11   -1    0    0    0    0  0.00000000000E+00  0.00000000000E+00  0.45593999997E+02  0.45594000000E+02  0.51100000000E-03 0.  1.
         11   -1    0    0    0    0 -0.00000000000E+00 -0.00000000000E+00 -0.45593999997E+02  0.45594000000E+02  0.51100000000E-03 0. -1.
    9900012    2    1    2    0    0 -0.19265924844E+02 -0.26696056771E+02  0.28280171814E+02  0.47787269303E+02  0.19999992058E+02 0.  0.
         12    1    1    2    0    0  0.19265924844E+02  0.26696056771E+02 -0.28280171814E+02  0.43400730697E+02  0.00000000000E+00 0. -1.
         11    1    3    3    0    0 -0.63250085091E+01 -0.45417053565E+01 -0.14459621895E+01  0.79198249412E+01  0.51100000000E-03 0. -1.
        -11    1    3    3    0    0 -0.86840886495E+01 -0.83719254891E+01  0.12014725795E+02  0.17025162797E+02  0.51100000000E-03 0.  1.
         12    1    3    3    0    0 -0.42568276850E+01 -0.13782425926E+02  0.17711408209E+02  0.22842281565E+02  0.00000000000E+00 0. -1.
</event>
<event>
 7    1  0.1736465E-010  0.4778727E+02  0.7816164E-02  0.1312668E+00
        -11   -1    0    0    0    0  0.00000000000E+00  0.00000000000E+00  0.45593999997E+02  0.45594000000E+02  0.51100000000E-03 0.  1.
         11   -1    0    0    0    0 -0.00000000000E+00 -0.00000000000E+00 -0.45593999997E+02  0.45594000000E+02  0.51100000000E-03 0. -1.
    9900012    2    1    2    0    0  0.24066443317E+02 -0.30083237624E+02  0.19985711400E+02  0.47787267978E+02  0.19999986020E+02 0.  0.
         12    1    1    2    0    0 -0.24066443317E+02  0.30083237624E+02 -0.19985711400E+02  0.43400732022E+02  0.00000000000E+00 0. -1.
         11    1    3    3    0    0  0.21338385206E+02 -0.10905843992E+02  0.11521110062E+02  0.26589473363E+02  0.51100000000E-03 0. -1.
        -11    1    3    3    0    0 -0.21562716249E-01 -0.45797086289E+01  0.19463257448E+01  0.49761812912E+01  0.51100000000E-03 0.  1.
         12    1    3    3    0    0  0.27496208270E+01 -0.14597685003E+02  0.65182755929E+01  0.16221613325E+02  0.00000000000E+00 0. -1.
</event>
<event>
 7    1  0.1736465E-010  0.4778727E+02  0.7816164E-02  0.1312668E+00
        -11   -1    0    0    0    0  0.00000000000E+00  0.00000000000E+00  0.45593999997E+02  0.45594000000E+02  0.51100000000E-03 0.  1.
         11   -1    0    0    0    0 -0.00000000000E+00 -0.00000000000E+00 -0.45593999997E+02  0.45594000000E+02  0.51100000000E-03 0. -1.
    9900012    2    1    2    0    0 -0.24564598531E+02 -0.22865928122E+02  0.27520050081E+02  0.47787270440E+02  0.19999997244E+02 0.  0.
         12    1    1    2    0    0  0.24564598531E+02  0.22865928122E+02 -0.27520050081E+02  0.43400729560E+02  0.00000000000E+00 0. -1.
         11    1    3    3    0    0 -0.87307285860E+01  0.11340599885E+01  0.12403437485E+02  0.15210423249E+02  0.51100000000E-03 0. -1.
        -11    1    3    3    0    0 -0.31450700511E+01 -0.66870996937E+01  0.40609886553E+01  0.84321051381E+01  0.51100000000E-03 0.  1.
         12    1    3    3    0    0 -0.12688799894E+02 -0.17312888417E+02  0.11055623940E+02  0.24144742053E+02  0.00000000000E+00 0. -1.
</event>
<event>
 7    1  0.1736465E-010  0.4778727E+02  0.7816164E-02  0.1312668E+00
        -11   -1    0    0    0    0  0.00000000000E+00  0.00000000000E+00  0.45593999997E+02  0.45594000000E+02  0.51100000000E-03 0.  1.
         11   -1    0    0    0    0 -0.00000000000E+00 -0.00000000000E+00 -0.45593999997E+02  0.45594000000E+02  0.51100000000E-03 0. -1.
    9900012    2    1    2    0    0 -0.27264318084E+02  0.21190274393E+02  0.26291677300E+02  0.47787273455E+02  0.20000010990E+02 0.  0.
         12    1    1    2    0    0  0.27264318084E+02 -0.21190274393E+02 -0.26291677300E+02  0.43400726545E+02  0.00000000000E+00 0. -1.
         11    1    3    3    0    0 -0.23211916917E+02  0.18961961304E+02  0.25923369365E+02  0.39627896020E+02  0.51100000000E-03 0. -1.
        -11    1    3    3    0    0 -0.35959023482E+01  0.44563080435E+01 -0.44643875983E+00  0.57435618656E+01  0.51100000000E-03 0.  1.
         12    1    3    3    0    0 -0.45649881799E+00 -0.22279949547E+01  0.81474669510E+00  0.24158155696E+01  0.00000000000E+00 0. -1.
</event>
<event>
 7    1  0.1736465E-010  0.4778726E+02  0.7816164E-02  0.1312668E+00
        -11   -1    0    0    0    0  0.00000000000E+00  0.00000000000E+00  0.45593999997E+02  0.45594000000E+02  0.51100000000E-03 0.  1.
         11   -1    0    0    0    0 -0.00000000000E+00 -0.00000000000E+00 -0.45593999997E+02  0.45594000000E+02  0.51100000000E-03 0. -1.
    9900012    2    1    2    0    0 -0.39854837159E+02  0.11060453640E+02  0.13148471296E+02  0.47787262943E+02  0.19999963060E+02 0.  0.
         12    1    1    2    0    0  0.39854837159E+02 -0.11060453640E+02 -0.13148471296E+02  0.43400737057E+02  0.00000000000E+00 0. -1.
         11    1    3    3    0    0 -0.69656808461E+01  0.91384961813E+01  0.32991139194E+01  0.11954788790E+02  0.51100000000E-03 0.  1.
        -11    1    3    3    0    0 -0.56804384312E+01 -0.27143181709E+01 -0.59026592857E+00  0.63232363573E+01  0.51100000000E-03 0. -1.
        -12    1    3    3    0    0 -0.27208717882E+02  0.46362756295E+01  0.10439623305E+02  0.29509237795E+02  0.00000000000E+00 0.  1.
</event>
<event>
 7    1  0.1736465E-010  0.4778727E+02  0.7816164E-02  0.1312668E+00
        -11   -1    0    0    0    0  0.00000000000E+00  0.00000000000E+00  0.45593999997E+02  0.45594000000E+02  0.51100000000E-03 0.  1.
         11   -1    0    0    0    0 -0.00000000000E+00 -0.00000000000E+00 -0.45593999997E+02  0.45594000000E+02  0.51100000000E-03 0. -1.
    9900012    2    1    2    0    0 -0.23833391121E+01  0.36913178481E+02  0.22701549303E+02  0.47787269687E+02  0.19999993813E+02 0.  0.
         12    1    1    2    0    0  0.23833391121E+01 -0.36913178481E+02 -0.22701549303E+02  0.43400730313E+02  0.00000000000E+00 0. -1.
         11    1    3    3    0    0  0.37485733396E+01  0.97775247524E+01  0.16818067618E+01  0.10605671436E+02  0.51100000000E-03 0. -1.
        -11    1    3    3    0    0 -0.13543497487E+01  0.24520110627E+02  0.19929682920E+02  0.31626924447E+02  0.51100000000E-03 0.  1.
        -12    1    3    3    0    0 -0.47775627029E+01  0.26155431015E+01  0.10900596213E+01  0.55546738044E+01  0.00000000000E+00 0.  1.
</event>
<event>
 7    1  0.1736465E-010  0.4778727E+02  0.7816164E-02  0.1312668E+00
        -11   -1    0    0    0    0  0.00000000000E+00  0.00000000000E+00  0.45593999997E+02  0.45594000000E+02  0.51100000000E-03 0. -1.
         11   -1    0    0    0    0 -0.00000000000E+00 -0.00000000000E+00 -0.45593999997E+02  0.45594000000E+02  0.51100000000E-03 0.  1.
    9900012    2    1    2    0    0  0.10640334104E+02 -0.40836193574E+02 -0.10139627685E+02  0.47787268842E+02  0.19999989959E+02 0.  0.
         12    1    1    2    0    0 -0.10640334104E+02  0.40836193574E+02  0.10139627685E+02  0.43400731158E+02  0.00000000000E+00 0. -1.
         11    1    3    3    0    0  0.64477790918E+01 -0.48061673190E+01 -0.19373072574E+01  0.82720166336E+01  0.51100000000E-03 0. -1.
        -11    1    3    3    0    0  0.16091926590E+01 -0.19451593129E+02 -0.11152141265E+02  0.22479417949E+02  0.51100000000E-03 0.  1.
        -12    1    3    3    0    0  0.25833623532E+01 -0.16578433126E+02  0.29498208373E+01  0.17035834260E+02  0.00000000000E+00 0.  1.
</event>
<event>
 7    1  0.1736465E-010  0.4778727E+02  0.7816164E-02  0.1312668E+00
        -11   -1    0    0    0    0  0.00000000000E+00  0.00000000000E+00  0.45593999997E+02  0.45594000000E+02  0.51100000000E-03 0.  1.
         11   -1    0    0    0    0 -0.00000000000E+00 -0.00000000000E+00 -0.45593999997E+02  0.45594000000E+02  0.51100000000E-03 0. -1.
    9900012    2    1    2    0    0 -0.21688778631E+02 -0.52967989907E+01  0.37217797482E+02  0.47787266740E+02  0.19999980375E+02 0.  0.
         12    1    1    2    0    0  0.21688778631E+02  0.52967989907E+01 -0.37217797482E+02  0.43400733260E+02  0.00000000000E+00 0. -1.
         11    1    3    3    0    0 -0.58164578113E+01 -0.62247410532E+01  0.19101805325E+02  0.20915485880E+02  0.51100000000E-03 0. -1.
        -11    1    3    3    0    0 -0.11318818816E+02  0.46260823521E+01  0.16934959404E+02  0.20888014449E+02  0.51100000000E-03 0.  1.
         12    1    3    3    0    0 -0.45535020041E+01 -0.36981402897E+01  0.11810327524E+01  0.59837664113E+01  0.00000000000E+00 0. -1.
</event>
<event>
 7    1  0.1736465E-010  0.4778727E+02  0.7816164E-02  0.1312668E+00
        -11   -1    0    0    0    0  0.00000000000E+00  0.00000000000E+00  0.45593999997E+02  0.45594000000E+02  0.51100000000E-03 0.  1.
         11   -1    0    0    0    0 -0.00000000000E+00 -0.00000000000E+00 -0.45593999997E+02  0.45594000000E+02  0.51100000000E-03 0. -1.
    9900012    2    1    2    0    0  0.27187082899E+02  0.23223337289E+02  0.24600055388E+02  0.47787267328E+02  0.19999983054E+02 0.  0.
         12    1    1    2    0    0 -0.27187082899E+02 -0.23223337289E+02 -0.24600055388E+02  0.43400732672E+02  0.00000000000E+00 0. -1.
         11    1    3    3    0    0  0.40480831619E+00 -0.29772830214E+00 -0.20716046971E+01  0.21316796657E+01  0.51100000000E-03 0. -1.
        -11    1    3    3    0    0  0.15498556491E+02  0.69104606556E+01  0.11854528426E+02  0.20699989475E+02  0.51100000000E-03 0.  1.
         12    1    3    3    0    0  0.11283718092E+02  0.16610604935E+02  0.14817131659E+02  0.24955598187E+02  0.00000000000E+00 0. -1.
</event>
<event>
 7    1  0.1736465E-010  0.4778727E+02  0.7816164E-02  0.1312668E+00
        -11   -1    0    0    0    0  0.00000000000E+00  0.00000000000E+00  0.45593999997E+02  0.45594000000E+02  0.51100000000E-03 0.  1.
         11   -1    0    0    0    0 -0.00000000000E+00 -0.00000000000E+00 -0.45593999997E+02  0.45594000000E+02  0.51100000000E-03 0. -1.
    9900012    2    1    2    0    0  0.33711436459E+02 -0.18335221020E+01  0.27272708307E+02  0.47787269939E+02  0.19999994959E+02 0.  0.
         12    1    1    2    0    0 -0.33711436459E+02  0.18335221020E+01 -0.27272708307E+02  0.43400730061E+02  0.00000000000E+00 0. -1.
         11    1    3    3    0    0  0.48686141319E+01 -0.72570418802E+01  0.54958031418E+01  0.10323367321E+02  0.51100000000E-03 0. -1.
        -11    1    3    3    0    0  0.10623870581E+02  0.59610743732E+01  0.74414926498E+01  0.14275042799E+02  0.51100000000E-03 0.  1.
        -12    1    3    3    0    0  0.18218951746E+02 -0.53755459501E+00  0.14335412516E+02  0.23188859818E+02  0.00000000000E+00 0.  1.
</event>
<event>
 7    1  0.1736465E-010  0.4778727E+02  0.7816164E-02  0.1312668E+00
        -11   -1    0    0    0    0  0.00000000000E+00  0.00000000000E+00  0.45593999997E+02  0.45594000000E+02  0.51100000000E-03 0.  1.
         11   -1    0    0    0    0 -0.00000000000E+00 -0.00000000000E+00 -0.45593999997E+02  0.45594000000E+02  0.51100000000E-03 0. -1.
    9900012    2    1    2    0    0  0.15486839473E+02 -0.16511327844E+01  0.40509938333E+02  0.47787267978E+02  0.19999986019E+02 0.  0.
         12    1    1    2    0    0 -0.15486839473E+02  0.16511327844E+01 -0.40509938333E+02  0.43400732022E+02  0.00000000000E+00 0. -1.
         11    1    3    3    0    0  0.21213430509E+01 -0.13552728107E+00  0.98877903797E+01  0.10113696794E+02  0.51100000000E-03 0. -1.
        -11    1    3    3    0    0  0.24325112079E+01 -0.58601154427E+01  0.22500274114E+02  0.23377775755E+02  0.51100000000E-03 0.  1.
         12    1    3    3    0    0  0.10932985214E+02  0.43445099393E+01  0.81218738389E+01  0.14295795429E+02  0.00000000000E+00 0. -1.
</event>
<event>
 7    1  0.1736465E-010  0.4778727E+02  0.7816164E-02  0.1312668E+00
        -11   -1    0    0    0    0  0.00000000000E+00  0.00000000000E+00  0.45593999997E+02  0.45594000000E+02  0.51100000000E-03 0. -1.
         11   -1    0    0    0    0 -0.00000000000E+00 -0.00000000000E+00 -0.45593999997E+02  0.45594000000E+02  0.51100000000E-03 0.  1.
    9900012    2    1    2    0    0  0.12968164729E+02  0.35091959663E+02 -0.22000100355E+02  0.47787270225E+02  0.19999996263E+02 0.  0.
         12    1    1    2    0    0 -0.12968164729E+02 -0.35091959663E+02  0.22000100355E+02  0.43400729775E+02  0.00000000000E+00 0. -1.
         11    1    3    3    0    0  0.96450334398E+01  0.10391636017E+02 -0.10797213424E+02  0.17821127550E+02  0.51100000000E-03 0. -1.
        -11    1    3    3    0    0  0.18364928255E+01 -0.48829999411E+00 -0.27751942973E+01  0.33634575114E+01  0.51100000000E-03 0.  1.
         12    1    3    3    0    0  0.14866384639E+01  0.25188623640E+02 -0.84276926332E+01  0.26602685163E+02  0.00000000000E+00 0. -1.
</event>
<event>
 7    1  0.1736465E-010  0.4778727E+02  0.7816164E-02  0.1312668E+00
        -11   -1    0    0    0    0  0.00000000000E+00  0.00000000000E+00  0.45593999997E+02  0.45594000000E+02  0.51100000000E-03 0.  1.
         11   -1    0    0    0    0 -0.00000000000E+00 -0.00000000000E+00 -0.45593999997E+02  0.45594000000E+02  0.51100000000E-03 0. -1.
    9900012    2    1    2    0    0 -0.41278704075E+01  0.33215969666E+02  0.27627577652E+02  0.47787274178E+02  0.20000014286E+02 0.  0.
         12    1    1    2    0    0  0.41278704075E+01 -0.33215969666E+02 -0.27627577652E+02  0.43400725822E+02  0.00000000000E+00 0. -1.
         11    1    3    3    0    0 -0.65514890513E+01  0.88148361997E+01  0.14812211611E+02  0.18439765701E+02  0.51100000000E-03 0. -1.
        -11    1    3    3    0    0 -0.24620831546E+01  0.89897379553E+01  0.11079259450E+01  0.93864126335E+01  0.51100000000E-03 0.  1.
        -12    1    3    3    0    0  0.48857017985E+01  0.15411395511E+02  0.11707440096E+02  0.19961095843E+02  0.00000000000E+00 0.  1.
</event>
<event>
 7    1  0.1736465E-010  0.4778727E+02  0.7816164E-02  0.1312668E+00
        -11   -1    0    0    0    0  0.00000000000E+00  0.00000000000E+00  0.45593999997E+02  0.45594000000E+02  0.51100000000E-03 0. -1.
         11   -1    0    0    0    0 -0.00000000000E+00 -0.00000000000E+00 -0.45593999997E+02  0.45594000000E+02  0.51100000000E-03 0.  1.
    9900012    2    1    2    0    0  0.42881998073E+02  0.54894672070E+01 -0.38240312089E+01  0.47787271623E+02  0.20000002639E+02 0.  0.
         12    1    1    2    0    0 -0.42881998073E+02 -0.54894672070E+01  0.38240312089E+01  0.43400728377E+02  0.00000000000E+00 0. -1.
         11    1    3    3    0    0 -0.96576748708E+00  0.18689748313E+01 -0.56171052316E-01  0.21045021281E+01  0.51100000000E-03 0. -1.
        -11    1    3    3    0    0  0.21868516099E+02  0.64204021657E+00 -0.76272596925E+01  0.23169361293E+02  0.51100000000E-03 0.  1.
        -12    1    3    3    0    0  0.21979249461E+02  0.29784521591E+01  0.38593995359E+01  0.22513408203E+02  0.00000000000E+00 0.  1.
</event>
<event>
 7    1  0.1736465E-010  0.4778727E+02  0.7816164E-02  0.1312668E+00
        -11   -1    0    0    0    0  0.00000000000E+00  0.00000000000E+00  0.45593999997E+02  0.45594000000E+02  0.51100000000E-03 0.  1.
         11   -1    0    0    0    0 -0.00000000000E+00 -0.00000000000E+00 -0.45593999997E+02  0.45594000000E+02  0.51100000000E-03 0. -1.
    9900012    2    1    2    0    0 -0.21747877077E+02 -0.21943748735E+02  0.30481555638E+02  0.47787268439E+02  0.19999988120E+02 0.  0.
         12    1    1    2    0    0  0.21747877077E+02  0.21943748735E+02 -0.30481555638E+02  0.43400731561E+02  0.00000000000E+00 0. -1.
         11    1    3    3    0    0  0.51573555766E+00  0.25473318999E+01  0.41189875807E+01  0.48704149643E+01  0.51100000000E-03 0.  1.
        -11    1    3    3    0    0 -0.12670143459E+02 -0.11949363505E+02  0.95932631710E+01  0.19883423296E+02  0.51100000000E-03 0. -1.
        -12    1    3    3    0    0 -0.95934691758E+01 -0.12541717130E+02  0.16769304887E+02  0.23033430178E+02  0.00000000000E+00 0.  1.
</event>
<event>
 7    1  0.1736465E-010  0.4778727E+02  0.7816164E-02  0.1312668E+00
        -11   -1    0    0    0    0  0.00000000000E+00  0.00000000000E+00  0.45593999997E+02  0.45594000000E+02  0.51100000000E-03 0.  1.
         11   -1    0    0    0    0 -0.00000000000E+00 -0.00000000000E+00 -0.45593999997E+02  0.45594000000E+02  0.51100000000E-03 0. -1.
    9900012    2    1    2    0    0  0.22917023077E+01  0.32528514863E+02  0.28640308719E+02  0.47787268875E+02  0.19999990107E+02 0.  0.
         12    1    1    2    0    0 -0.22917023077E+01 -0.32528514863E+02 -0.28640308719E+02  0.43400731125E+02  0.00000000000E+00 0. -1.
         11    1    3    3    0    0 -0.38589851636E+01  0.18068521265E+01  0.40645900611E+01  0.58887497591E+01  0.51100000000E-03 0.  1.
        -11    1    3    3    0    0  0.47327673801E+01  0.31395222543E+02  0.24832714597E+02  0.40307850354E+02  0.51100000000E-03 0. -1.
         12    1    3    3    0    0  0.14179200912E+01 -0.67355980635E+00 -0.25699593901E+00  0.15906687620E+01  0.00000000000E+00 0. -1.
</event>
<event>
 7    1  0.1736465E-010  0.4778728E+02  0.7816164E-02  0.1312668E+00
        -11   -1    0    0    0    0  0.00000000000E+00  0.00000000000E+00  0.45593999997E+02  0.45594000000E+02  0.51100000000E-03 0.  1.
         11   -1    0    0    0    0 -0.00000000000E+00 -0.00000000000E+00 -0.45593999997E+02  0.45594000000E+02  0.51100000000E-03 0. -1.
    9900012    2    1    2    0    0 -0.39745670515E+02  0.35975272216E+01  0.17057616988E+02  0.47787276226E+02  0.20000023624E+02 0.  0.
         12    1    1    2    0    0  0.39745670515E+02 -0.35975272216E+01 -0.17057616988E+02  0.43400723774E+02  0.00000000000E+00 0. -1.
         11    1    3    3    0    0 -0.16085996677E+02 -0.51155042037E+00 -0.12926566058E+01  0.16145957212E+02  0.51100000000E-03 0.  1.
        -11    1    3    3    0    0 -0.82579590579E+01 -0.29590396029E+01  0.72826587748E+01  0.11401180740E+02  0.51100000000E-03 0. -1.
         12    1    3    3    0    0 -0.15401714780E+02  0.70681172448E+01  0.11067614819E+02  0.20240138274E+02  0.00000000000E+00 0. -1.
</event>
<event>
 7    1  0.1736465E-010  0.4778724E+02  0.7816164E-02  0.1312668E+00
        -11   -1    0    0    0    0  0.00000000000E+00  0.00000000000E+00  0.45593999997E+02  0.45594000000E+02  0.51100000000E-03 0. -1.
         11   -1    0    0    0    0 -0.00000000000E+00 -0.00000000000E+00 -0.45593999997E+02  0.45594000000E+02  0.51100000000E-03 0.  1.
    9900012    2    1    2    0    0 -0.24169141462E+02 -0.31905773005E+02 -0.16777968650E+02  0.47787239844E+02  0.19999857746E+02 0.  0.
         12    1    1    2    0    0  0.24169141462E+02  0.31905773005E+02  0.16777968650E+02  0.43400760156E+02  0.00000000000E+00 0. -1.
         11    1    3    3    0    0  0.18404423887E+00 -0.12860002694E+01 -0.56448716026E+01  0.57924299432E+01  0.51100000000E-03 0. -1.
        -11    1    3    3    0    0 -0.10394540323E+02 -0.18173604970E+02 -0.10151186392E+02  0.23267422967E+02  0.51100000000E-03 0.  1.
         12    1    3    3    0    0 -0.13958645378E+02 -0.12446167766E+02 -0.98191065602E+00  0.18727386934E+02  0.00000000000E+00 0. -1.
</event>
<event>
 7    1  0.1736465E-010  0.4778728E+02  0.7816164E-02  0.1312668E+00
        -11   -1    0    0    0    0  0.00000000000E+00  0.00000000000E+00  0.45593999997E+02  0.45594000000E+02  0.51100000000E-03 0.  1.
         11   -1    0    0    0    0 -0.00000000000E+00 -0.00000000000E+00 -0.45593999997E+02  0.45594000000E+02  0.51100000000E-03 0. -1.
    9900012    2    1    2    0    0 -0.31591971355E+02 -0.19596613736E+02  0.22395155615E+02  0.47787275133E+02  0.20000018642E+02 0.  0.
         12    1    1    2    0    0  0.31591971355E+02  0.19596613736E+02 -0.22395155615E+02  0.43400724867E+02  0.00000000000E+00 0. -1.
         11    1    3    3    0    0 -0.11584996277E+02 -0.37691261477E+01  0.92976582745E+01  0.15325302617E+02  0.51100000000E-03 0. -1.
        -11    1    3    3    0    0 -0.19110276316E+02 -0.17744134372E+02  0.85457787600E+01  0.27442436123E+02  0.51100000000E-03 0.  1.
         12    1    3    3    0    0 -0.89669876117E+00  0.19166467843E+01  0.45517185800E+01  0.50195363925E+01  0.00000000000E+00 0. -1.
</event>
<event>
 7    1  0.1736465E-010  0.4778728E+02  0.7816164E-02  0.1312668E+00
        -11   -1    0    0    0    0  0.00000000000E+00  0.00000000000E+00  0.45593999997E+02  0.45594000000E+02  0.51100000000E-03 0.  1.
         11   -1    0    0    0    0 -0.00000000000E+00 -0.00000000000E+00 -0.45593999997E+02  0.45594000000E+02  0.51100000000E-03 0. -1.
    9900012    2    1    2    0    0 -0.67714446038E+00 -0.21545098994E+01  0.43341924356E+02  0.47787275992E+02  0.20000022558E+02 0.  0.
         12    1    1    2    0    0  0.67714446038E+00  0.21545098994E+01 -0.43341924356E+02  0.43400724008E+02  0.00000000000E+00 0. -1.
         11    1    3    3    0    0 -0.10583582789E+01 -0.47751647181E+01  0.26182843164E+02  0.26635757859E+02  0.51100000000E-03 0.  1.
        -11    1    3    3    0    0  0.50313635178E+01  0.41230503527E+01  0.13695234391E+02  0.15161583306E+02  0.51100000000E-03 0. -1.
         12    1    3    3    0    0 -0.46501496993E+01 -0.15023955340E+01  0.34638468014E+01  0.59899348269E+01  0.00000000000E+00 0. -1.
</event>
<event>
 7    1  0.1736465E-010  0.4778727E+02  0.7816164E-02  0.1312668E+00
        -11   -1    0    0    0    0  0.00000000000E+00  0.00000000000E+00  0.45593999997E+02  0.45594000000E+02  0.51100000000E-03 0.  1.
         11   -1    0    0    0    0 -0.00000000000E+00 -0.00000000000E+00 -0.45593999997E+02  0.45594000000E+02  0.51100000000E-03 0. -1.
    9900012    2    1    2    0    0 -0.24864471111E+02  0.28319972708E+02  0.21525811451E+02  0.47787270324E+02  0.19999996715E+02 0.  0.
         12    1    1    2    0    0  0.24864471111E+02 -0.28319972708E+02 -0.21525811451E+02  0.43400729676E+02  0.00000000000E+00 0. -1.
         11    1    3    3    0    0  0.13158576491E+01 -0.20335828500E+00 -0.45000306947E+00  0.14054675266E+01  0.51100000000E-03 0. -1.
        -11    1    3    3    0    0 -0.23621108833E+02  0.26569077306E+02  0.14784821315E+02  0.38502773835E+02  0.51100000000E-03 0.  1.
         12    1    3    3    0    0 -0.25592199264E+01  0.19542536863E+01  0.71909932054E+01  0.78790289619E+01  0.00000000000E+00 0. -1.
</event>
<event>
 7    1  0.1736465E-010  0.4778727E+02  0.7816164E-02  0.1312668E+00
        -11   -1    0    0    0    0  0.00000000000E+00  0.00000000000E+00  0.45593999997E+02  0.45594000000E+02  0.51100000000E-03 0.  1.
         11   -1    0    0    0    0 -0.00000000000E+00 -0.00000000000E+00 -0.45593999997E+02  0.45594000000E+02  0.51100000000E-03 0. -1.
    9900012    2    1    2    0    0  0.13614336538E+02  0.20611200460E+02  0.35685450405E+02  0.47787272882E+02  0.20000008377E+02 0.  0.
         12    1    1    2    0    0 -0.13614336538E+02 -0.20611200460E+02 -0.35685450405E+02  0.43400727118E+02  0.00000000000E+00 0. -1.
         11    1    3    3    0    0 -0.19378213116E+01 -0.79640334824E+00  0.60793689027E+01  0.64302516471E+01  0.51100000000E-03 0. -1.
        -11    1    3    3    0    0  0.10528654928E+02  0.10094807492E+02  0.23239206902E+02  0.27437537254E+02  0.51100000000E-03 0.  1.
         12    1    3    3    0    0  0.50235029221E+01  0.11312796316E+02  0.63668746008E+01  0.13919483980E+02  0.00000000000E+00 0. -1.
</event>
<event>
 7    1  0.1736465E-010  0.4778727E+02  0.7816164E-02  0.1312668E+00
        -11   -1    0    0    0    0  0.00000000000E+00  0.00000000000E+00  0.45593999997E+02  0.45594000000E+02  0.51100000000E-03 0.  1.
         11   -1    0    0    0    0 -0.00000000000E+00 -0.00000000000E+00 -0.45593999997E+02  0.45594000000E+02  0.51100000000E-03 0. -1.
    9900012    2    1    2    0    0  0.42485948299E+02 -0.75265848874E-01  0.88635211256E+01  0.47787268733E+02  0.19999989459E+02 0.  0.
         12    1    1    2    0    0 -0.42485948299E+02  0.75265848874E-01 -0.88635211256E+01  0.43400731267E+02  0.00000000000E+00 0. -1.
         11    1    3    3    0    0  0.15162324189E+02  0.34117515340E+01 -0.14725326572E+01  0.15611036994E+02  0.51100000000E-03 0. -1.
        -11    1    3    3    0    0  0.21650594938E+02 -0.61615283365E+01  0.33004524286E+01  0.22750948971E+02  0.51100000000E-03 0.  1.
        -12    1    3    3    0    0  0.56730291726E+01  0.26745109537E+01  0.70356013542E+01  0.94252827676E+01  0.00000000000E+00 0.  1.
</event>
<event>
 7    1  0.1736465E-010  0.4778724E+02  0.7816164E-02  0.1312668E+00
        -11   -1    0    0    0    0  0.00000000000E+00  0.00000000000E+00  0.45593999997E+02  0.45594000000E+02  0.51100000000E-03 0.  1.
         11   -1    0    0    0    0 -0.00000000000E+00 -0.00000000000E+00 -0.45593999997E+02  0.45594000000E+02  0.51100000000E-03 0. -1.
    9900012    2    1    2    0    0  0.20104599796E+02  0.24127774680E+02  0.29954664171E+02  0.47787235610E+02  0.19999838442E+02 0.  0.
         12    1    1    2    0    0 -0.20104599796E+02 -0.24127774680E+02 -0.29954664171E+02  0.43400764390E+02  0.00000000000E+00 0. -1.
         11    1    3    3    0    0  0.47349110600E+01  0.41224371934E+01 -0.18445584235E+01  0.65434140323E+01  0.51100000000E-03 0. -1.
        -11    1    3    3    0    0  0.59944115865E+01  0.31590241654E+01  0.10679801362E+02  0.12647946922E+02  0.51100000000E-03 0.  1.
         12    1    3    3    0    0  0.93752771497E+01  0.16846313322E+02  0.21119421233E+02  0.28595874657E+02  0.00000000000E+00 0. -1.
</event>
<event>
 7    1  0.1736465E-010  0.4778727E+02  0.7816164E-02  0.1312668E+00
        -11   -1    0    0    0    0  0.00000000000E+00  0.00000000000E+00  0.45593999997E+02  0.45594000000E+02  0.51100000000E-03 0.  1.
         11   -1    0    0    0    0 -0.00000000000E+00 -0.00000000000E+00 -0.45593999997E+02  0.45594000000E+02  0.51100000000E-03 0. -1.
    9900012    2    1    2    0    0 -0.33641722219E+02 -0.23642235769E+02  0.13888937383E+02  0.47787269964E+02  0.19999995073E+02 0.  0.
         12    1    1    2    0    0  0.33641722219E+02  0.23642235769E+02 -0.13888937383E+02  0.43400730036E+02  0.00000000000E+00 0. -1.
         11    1    3    3    0    0 -0.27050447293E+01  0.12700908620E+00 -0.26593556111E+01  0.37954671416E+01  0.51100000000E-03 0. -1.
        -11    1    3    3    0    0 -0.74547747906E+01 -0.11444707692E+02  0.92166830467E+01  0.16477325268E+02  0.51100000000E-03 0.  1.
         12    1    3    3    0    0 -0.23481902700E+02 -0.12324537164E+02  0.73316099470E+01  0.27514477555E+02  0.00000000000E+00 0. -1.
</event>
<event>
 7    1  0.1736465E-010  0.4778727E+02  0.7816164E-02  0.1312668E+00
        -11   -1    0    0    0    0  0.00000000000E+00  0.00000000000E+00  0.45593999997E+02  0.45594000000E+02  0.51100000000E-03 0.  1.
         11   -1    0    0    0    0 -0.00000000000E+00 -0.00000000000E+00 -0.45593999997E+02  0.45594000000E+02  0.51100000000E-03 0. -1.
    9900012    2    1    2    0    0 -0.19605673152E+02  0.30581571455E+02  0.23748853259E+02  0.47787274620E+02  0.20000016303E+02 0.  0.
         12    1    1    2    0    0  0.19605673152E+02 -0.30581571455E+02 -0.23748853259E+02  0.43400725380E+02  0.00000000000E+00 0. -1.
         11    1    3    3    0    0 -0.10384409613E+01  0.93523364154E+01 -0.16902565752E+01  0.95604144057E+01  0.51100000000E-03 0. -1.
        -11    1    3    3    0    0 -0.93991403243E+01  0.10219388363E+02  0.96638808980E+01  0.16916569736E+02  0.51100000000E-03 0.  1.
         12    1    3    3    0    0 -0.91680918669E+01  0.11009846676E+02  0.15775228936E+02  0.21310290479E+02  0.00000000000E+00 0. -1.
</event>
<event>
 7    1  0.1736465E-010  0.4778729E+02  0.7816164E-02  0.1312668E+00
        -11   -1    0    0    0    0  0.00000000000E+00  0.00000000000E+00  0.45593999997E+02  0.45594000000E+02  0.51100000000E-03 0.  1.
         11   -1    0    0    0    0 -0.00000000000E+00 -0.00000000000E+00 -0.45593999997E+02  0.45594000000E+02  0.51100000000E-03 0. -1.
    9900012    2    1    2    0    0 -0.14739937021E+02 -0.30643126506E+02  0.26969514530E+02  0.47787289644E+02  0.20000084802E+02 0.  0.
         12    1    1    2    0    0  0.14739937021E+02  0.30643126506E+02 -0.26969514530E+02  0.43400710356E+02  0.00000000000E+00 0. -1.
         11    1    3    3    0    0 -0.14308969814E+01  0.97667835122E+00  0.25883044457E+01  0.31145925798E+01  0.51100000000E-03 0. -1.
        -11    1    3    3    0    0 -0.15697243239E+02 -0.31274065121E+02  0.22374028993E+02  0.41533935139E+02  0.51100000000E-03 0.  1.
        -12    1    3    3    0    0  0.23882031996E+01 -0.34573973623E+00  0.20071810910E+01  0.31387619247E+01  0.00000000000E+00 0.  1.
</event>
<event>
 7    1  0.1736465E-010  0.4778727E+02  0.7816164E-02  0.1312668E+00
        -11   -1    0    0    0    0  0.00000000000E+00  0.00000000000E+00  0.45593999997E+02  0.45594000000E+02  0.51100000000E-03 0. -1.
         11   -1    0    0    0    0 -0.00000000000E+00 -0.00000000000E+00 -0.45593999997E+02  0.45594000000E+02  0.51100000000E-03 0.  1.
    9900012    2    1    2    0    0  0.75675913001E+01  0.68445400540E+01 -0.42184204688E+02  0.47787270838E+02  0.19999999058E+02 0.  0.
         12    1    1    2    0    0 -0.75675913001E+01 -0.68445400540E+01  0.42184204688E+02  0.43400729162E+02  0.00000000000E+00 0. -1.
         11    1    3    3    0    0  0.44191914223E+01  0.83495075564E+00 -0.20805579571E+02  0.21286111368E+02  0.51100000000E-03 0. -1.
        -11    1    3    3    0    0 -0.44786864924E+01  0.63904807253E+01 -0.13018443910E+02  0.15178167172E+02  0.51100000000E-03 0.  1.
         12    1    3    3    0    0  0.76270863702E+01 -0.38089142700E+00 -0.83601812068E+01  0.11322992298E+02  0.00000000000E+00 0. -1.
</event>
<event>
 7    1  0.1736465E-010  0.4778726E+02  0.7816164E-02  0.1312668E+00
        -11   -1    0    0    0    0  0.00000000000E+00  0.00000000000E+00  0.45593999997E+02  0.45594000000E+02  0.51100000000E-03 0. -1.
         11   -1    0    0    0    0 -0.00000000000E+00 -0.00000000000E+00 -0.45593999997E+02  0.45594000000E+02  0.51100000000E-03 0.  1.
    9900012    2    1    2    0    0 -0.50845377329E+01 -0.42630157483E+02 -0.63593393399E+01  0.47787262128E+02  0.19999959345E+02 0.  0.
         12    1    1    2    0    0  0.50845377329E+01  0.42630157483E+02  0.63593393399E+01  0.43400737872E+02  0.00000000000E+00 0. -1.
         11    1    3    3    0    0 -0.12769517115E+01 -0.12589498478E+00  0.24121694074E+01  0.27322182805E+01  0.51100000000E-03 0. -1.
        -11    1    3    3    0    0 -0.78548242880E+01 -0.29562236342E+02 -0.70106499211E+01  0.31381097730E+02  0.51100000000E-03 0.  1.
         12    1    3    3    0    0  0.40472382666E+01 -0.12942026157E+02 -0.17608588262E+01  0.13673946118E+02  0.00000000000E+00 0. -1.
</event>
<event>
 7    1  0.1736465E-010  0.4778727E+02  0.7816164E-02  0.1312668E+00
        -11   -1    0    0    0    0  0.00000000000E+00  0.00000000000E+00  0.45593999997E+02  0.45594000000E+02  0.51100000000E-03 0.  1.
         11   -1    0    0    0    0 -0.00000000000E+00 -0.00000000000E+00 -0.45593999997E+02  0.45594000000E+02  0.51100000000E-03 0. -1.
    9900012    2    1    2    0    0  0.30638428025E+02  0.77996154421E+01  0.29733412347E+02  0.47787273247E+02  0.20000010042E+02 0.  0.
         12    1    1    2    0    0 -0.30638428025E+02 -0.77996154421E+01 -0.29733412347E+02  0.43400726753E+02  0.00000000000E+00 0. -1.
         11    1    3    3    0    0  0.78577457583E+01  0.26089070750E+01  0.38498468289E+01  0.91308206310E+01  0.51100000000E-03 0. -1.
        -11    1    3    3    0    0  0.13531325393E+01 -0.32354998206E+01  0.10230099641E+02  0.10814544174E+02  0.51100000000E-03 0.  1.
        -12    1    3    3    0    0  0.21427549728E+02  0.84262081878E+01  0.15653465877E+02  0.27841908442E+02  0.00000000000E+00 0.  1.
</event>
<event>
 7    1  0.2094032E-010  0.4778727E+02  0.7816164E-02  0.1312668E+00
        -11   -1    0    0    0    0  0.00000000000E+00  0.00000000000E+00  0.45593999997E+02  0.45594000000E+02  0.51100000000E-03 0.  1.
         11   -1    0    0    0    0 -0.00000000000E+00 -0.00000000000E+00 -0.45593999997E+02  0.45594000000E+02  0.51100000000E-03 0. -1.
    9900012    2    1    2    0    0  0.18134723092E+02 -0.38225556402E+02  0.96727286296E+01  0.47787273934E+02  0.20000013175E+02 0.  0.
         12    1    1    2    0    0 -0.18134723092E+02  0.38225556402E+02 -0.96727286296E+01  0.43400726066E+02  0.00000000000E+00 0. -1.
         11    1    3    3    0    0 -0.70175393505E-01 -0.32229097067E+01 -0.37226551973E+01  0.49244526134E+01  0.51100000000E-03 0. -1.
        -11    1    3    3    0    0  0.13051049857E+02 -0.14264910089E+02  0.58228770730E+01  0.20192163329E+02  0.51100000000E-03 0.  1.
        -12    1    3    3    0    0  0.51538486286E+01 -0.20737736607E+02  0.75725067538E+01  0.22670657992E+02  0.00000000000E+00 0.  1.
</event>
<event>
 7    1  0.1736465E-010  0.4778728E+02  0.7816164E-02  0.1312668E+00
        -11   -1    0    0    0    0  0.00000000000E+00  0.00000000000E+00  0.45593999997E+02  0.45594000000E+02  0.51100000000E-03 0.  1.
         11   -1    0    0    0    0 -0.00000000000E+00 -0.00000000000E+00 -0.45593999997E+02  0.45594000000E+02  0.51100000000E-03 0. -1.
    9900012    2    1    2    0    0  0.18056044511E+02  0.33806871845E+02 -0.20364119921E+02  0.47787277570E+02  0.20000029751E+02 0.  0.
         12    1    1    2    0    0 -0.18056044511E+02 -0.33806871845E+02  0.20364119921E+02  0.43400722430E+02  0.00000000000E+00 0. -1.
         11    1    3    3    0    0  0.56223414715E+01  0.10559359826E+02  0.21387846049E+00  0.11964804545E+02  0.51100000000E-03 0. -1.
        -11    1    3    3    0    0  0.93625252669E+01  0.74444451483E+01 -0.37534585733E+01  0.12536550341E+02  0.51100000000E-03 0.  1.
         12    1    3    3    0    0  0.30711777729E+01  0.15803066871E+02 -0.16824539808E+02  0.23285922683E+02  0.00000000000E+00 0. -1.
</event>
<event>
 7    1  0.1736465E-010  0.4778727E+02  0.7816164E-02  0.1312668E+00
        -11   -1    0    0    0    0  0.00000000000E+00  0.00000000000E+00  0.45593999997E+02  0.45594000000E+02  0.51100000000E-03 0.  1.
         11   -1    0    0    0    0 -0.00000000000E+00 -0.00000000000E+00 -0.45593999997E+02  0.45594000000E+02  0.51100000000E-03 0. -1.
    9900012    2    1    2    0    0  0.72744694070E+01  0.21391686829E+02  0.37055379111E+02  0.47787270840E+02  0.19999999068E+02 0.  0.
         12    1    1    2    0    0 -0.72744694070E+01 -0.21391686829E+02 -0.37055379111E+02  0.43400729160E+02  0.00000000000E+00 0. -1.
         11    1    3    3    0    0 -0.38174868058E+01  0.38364067573E+01  0.56588454854E+01  0.78303100072E+01  0.51100000000E-03 0. -1.
        -11    1    3    3    0    0  0.64489170033E+01 -0.76534594189E-01  0.91227463499E+01  0.11172237434E+02  0.51100000000E-03 0.  1.
        -12    1    3    3    0    0  0.46430392095E+01  0.17631814666E+02  0.22273787276E+02  0.28784723399E+02  0.00000000000E+00 0.  1.
</event>
<event>
 7    1  0.1736465E-010  0.4778727E+02  0.7816164E-02  0.1312668E+00
        -11   -1    0    0    0    0  0.00000000000E+00  0.00000000000E+00  0.45593999997E+02  0.45594000000E+02  0.51100000000E-03 0.  1.
         11   -1    0    0    0    0 -0.00000000000E+00 -0.00000000000E+00 -0.45593999997E+02  0.45594000000E+02  0.51100000000E-03 0. -1.
    9900012    2    1    2    0    0  0.24097588515E+02  0.31119555556E+02 -0.18289418463E+02  0.47787270306E+02  0.19999996634E+02 0.  0.
         12    1    1    2    0    0 -0.24097588515E+02 -0.31119555556E+02  0.18289418463E+02  0.43400729694E+02  0.00000000000E+00 0. -1.
         11    1    3    3    0    0  0.10352455390E+02  0.14663299705E+02  0.42356224009E+00  0.17954528567E+02  0.51100000000E-03 0. -1.
        -11    1    3    3    0    0  0.34571658128E+01 -0.12646470176E+00 -0.45705220694E+01  0.57321602408E+01  0.51100000000E-03 0.  1.
        -12    1    3    3    0    0  0.10287967312E+02  0.16582720553E+02 -0.14142458634E+02  0.24100581499E+02  0.00000000000E+00 0.  1.
</event>
<event>
 7    1  0.1736465E-010  0.4778727E+02  0.7816164E-02  0.1312668E+00
        -11   -1    0    0    0    0  0.00000000000E+00  0.00000000000E+00  0.45593999997E+02  0.45594000000E+02  0.51100000000E-03 0.  1.
         11   -1    0    0    0    0 -0.00000000000E+00 -0.00000000000E+00 -0.45593999997E+02  0.45594000000E+02  0.51100000000E-03 0. -1.
    9900012    2    1    2    0    0  0.35269556445E+02  0.17249836825E+02  0.18496614575E+02  0.47787271514E+02  0.20000002143E+02 0.  0.
         12    1    1    2    0    0 -0.35269556445E+02 -0.17249836825E+02 -0.18496614575E+02  0.43400728486E+02  0.00000000000E+00 0. -1.
         11    1    3    3    0    0  0.10408048398E+02 -0.23722821222E+00 -0.25075789180E+00  0.10413771097E+02  0.51100000000E-03 0. -1.
        -11    1    3    3    0    0  0.20486630627E+02  0.12124730388E+02  0.90673906899E+01  0.25474078896E+02  0.51100000000E-03 0.  1.
         12    1    3    3    0    0  0.43748774202E+01  0.53623346501E+01  0.96799817768E+01  0.11899421521E+02  0.00000000000E+00 0. -1.
</event>
<event>
 7    1  0.1736465E-010  0.4778727E+02  0.7816164E-02  0.1312668E+00
        -11   -1    0    0    0    0  0.00000000000E+00  0.00000000000E+00  0.45593999997E+02  0.45594000000E+02  0.51100000000E-03 0.  1.
         11   -1    0    0    0    0 -0.00000000000E+00 -0.00000000000E+00 -0.45593999997E+02  0.45594000000E+02  0.51100000000E-03 0. -1.
    9900012    2    1    2    0    0  0.40233897751E+02 -0.10299955642E+02  0.12600314221E+02  0.47787268060E+02  0.19999986391E+02 0.  0.
         12    1    1    2    0    0 -0.40233897751E+02  0.10299955642E+02 -0.12600314221E+02  0.43400731940E+02  0.00000000000E+00 0. -1.
         11    1    3    3    0    0  0.13702502911E+02  0.34096125392E+01 -0.12594412213E+01  0.14176397150E+02  0.51100000000E-03 0. -1.
        -11    1    3    3    0    0  0.48267571661E+01 -0.57371486746E+01  0.34466773917E+01  0.82517904093E+01  0.51100000000E-03 0.  1.
        -12    1    3    3    0    0  0.21704637674E+02 -0.79724195063E+01  0.10413078050E+02  0.25359080500E+02  0.00000000000E+00 0.  1.
</event>
<event>
 7    1  0.1736465E-010  0.4778727E+02  0.7816164E-02  0.1312668E+00
        -11   -1    0    0    0    0  0.00000000000E+00  0.00000000000E+00  0.45593999997E+02  0.45594000000E+02  0.51100000000E-03 0. -1.
         11   -1    0    0    0    0 -0.00000000000E+00 -0.00000000000E+00 -0.45593999997E+02  0.45594000000E+02  0.51100000000E-03 0.  1.
    9900012    2    1    2    0    0 -0.25319189222E+02  0.19191521006E+02  0.29567670289E+02  0.47787274802E+02  0.20000017134E+02 0.  0.
         12    1    1    2    0    0  0.25319189222E+02 -0.19191521006E+02 -0.29567670289E+02  0.43400725198E+02  0.00000000000E+00 0. -1.
         11    1    3    3    0    0 -0.16718371026E+02  0.12199605855E+02  0.16474489104E+02  0.26452657792E+02  0.51100000000E-03 0. -1.
        -11    1    3    3    0    0 -0.50594890371E+00  0.85680786149E+01  0.62342823286E+01  0.10608215300E+02  0.51100000000E-03 0.  1.
         12    1    3    3    0    0 -0.80948692918E+01 -0.15761634641E+01  0.68588988567E+01  0.10726401710E+02  0.00000000000E+00 0. -1.
</event>
<event>
 7    1  0.1736465E-010  0.4778728E+02  0.7816164E-02  0.1312668E+00
        -11   -1    0    0    0    0  0.00000000000E+00  0.00000000000E+00  0.45593999997E+02  0.45594000000E+02  0.51100000000E-03 0. -1.
         11   -1    0    0    0    0 -0.00000000000E+00 -0.00000000000E+00 -0.45593999997E+02  0.45594000000E+02  0.51100000000E-03 0.  1.
    9900012    2    1    2    0    0 -0.31328596195E+02 -0.19110603867E+02  0.23171680357E+02  0.47787275464E+02  0.20000020149E+02 0.  0.
         12    1    1    2    0    0  0.31328596195E+02  0.19110603867E+02 -0.23171680357E+02  0.43400724536E+02  0.00000000000E+00 0. -1.
         11    1    3    3    0    0 -0.10649761326E+02  0.67449616792E+00  0.92962753087E+01  0.14152494347E+02  0.51100000000E-03 0. -1.
        -11    1    3    3    0    0 -0.16888401745E+01 -0.17768067056E+01  0.57190680656E+01  0.62222956378E+01  0.51100000000E-03 0.  1.
        -12    1    3    3    0    0 -0.18989994695E+02 -0.18008293329E+02  0.81563369829E+01  0.27412485478E+02  0.00000000000E+00 0.  1.
</event>
<event>
 7    1  0.1736465E-010  0.4778727E+02  0.7816164E-02  0.1312668E+00
        -11   -1    0    0    0    0  0.00000000000E+00  0.00000000000E+00  0.45593999997E+02  0.45594000000E+02  0.51100000000E-03 0.  1.
         11   -1    0    0    0    0 -0.00000000000E+00 -0.00000000000E+00 -0.45593999997E+02  0.45594000000E+02  0.51100000000E-03 0. -1.
    9900012    2    1    2    0    0  0.19346932361E+02 -0.36499421299E+02  0.13308334564E+02  0.47787270561E+02  0.19999997796E+02 0.  0.
         12    1    1    2    0    0 -0.19346932361E+02  0.36499421299E+02 -0.13308334564E+02  0.43400729439E+02  0.00000000000E+00 0. -1.
         11    1    3    3    0    0  0.48910658767E+01 -0.37057001860E+01  0.60177122835E+01  0.85946262669E+01  0.51100000000E-03 0. -1.
        -11    1    3    3    0    0  0.15180601777E+02 -0.30687354071E+02  0.10016796354E+02  0.35672126088E+02  0.51100000000E-03 0.  1.
         12    1    3    3    0    0 -0.72473529280E+00 -0.21063670419E+01 -0.27261740731E+01  0.35205182057E+01  0.00000000000E+00 0. -1.
</event>
<event>
 7    1  0.1736465E-010  0.4778727E+02  0.7816164E-02  0.1312668E+00
        -11   -1    0    0    0    0  0.00000000000E+00  0.00000000000E+00  0.45593999997E+02  0.45594000000E+02  0.51100000000E-03 0.  1.
         11   -1    0    0    0    0 -0.00000000000E+00 -0.00000000000E+00 -0.45593999997E+02  0.45594000000E+02  0.51100000000E-03 0. -1.
    9900012    2    1    2    0    0 -0.16348154241E+02 -0.28415352894E+02  0.28441670914E+02  0.47787273375E+02  0.20000010625E+02 0.  0.
         12    1    1    2    0    0  0.16348154241E+02  0.28415352894E+02 -0.28441670914E+02  0.43400726625E+02  0.00000000000E+00 0. -1.
         11    1    3    3    0    0 -0.64191136777E+01 -0.56137321958E+01  0.71405477745E+01  0.11122339338E+02  0.51100000000E-03 0.  1.
        -11    1    3    3    0    0  0.40408183835E+01 -0.13906625065E+01  0.28469772126E+01  0.51349230691E+01  0.51100000000E-03 0. -1.
         12    1    3    3    0    0 -0.13969858947E+02 -0.21410958192E+02  0.18454145927E+02  0.31530010967E+02  0.00000000000E+00 0. -1.
</event>
<event>
 7    1  0.1736465E-010  0.4778723E+02  0.7816164E-02  0.1312668E+00
        -11   -1    0    0    0    0  0.00000000000E+00  0.00000000000E+00  0.45593999997E+02  0.45594000000E+02  0.51100000000E-03 0. -1.
         11   -1    0    0    0    0 -0.00000000000E+00 -0.00000000000E+00 -0.45593999997E+02  0.45594000000E+02  0.51100000000E-03 0.  1.
    9900012    2    1    2    0    0 -0.15169567531E+02 -0.38110811487E+02  0.14180166400E+02  0.47787229840E+02  0.19999812134E+02 0.  0.
         12    1    1    2    0    0  0.15169567531E+02  0.38110811487E+02 -0.14180166400E+02  0.43400770160E+02  0.00000000000E+00 0. -1.
         11    1    3    3    0    0 -0.40771708802E+01 -0.18519182596E+02  0.12028890770E+02  0.22456127445E+02  0.51100000000E-03 0. -1.
        -11    1    3    3    0    0 -0.85421715842E+01 -0.20735868504E+02  0.16111554352E+01  0.22484233589E+02  0.51100000000E-03 0.  1.
         12    1    3    3    0    0 -0.25502250663E+01  0.11442396120E+01  0.54012019573E+00  0.28468688070E+01  0.00000000000E+00 0. -1.
</event>
<event>
 7    1  0.1736465E-010  0.4778727E+02  0.7816164E-02  0.1312668E+00
        -11   -1    0    0    0    0  0.00000000000E+00  0.00000000000E+00  0.45593999997E+02  0.45594000000E+02  0.51100000000E-03 0.  1.
         11   -1    0    0    0    0 -0.00000000000E+00 -0.00000000000E+00 -0.45593999997E+02  0.45594000000E+02  0.51100000000E-03 0. -1.
    9900012    2    1    2    0    0 -0.93159226780E+01 -0.26218341668E+01  0.42307955773E+02  0.47787267847E+02  0.19999985423E+02 0.  0.
         12    1    1    2    0    0  0.93159226780E+01  0.26218341668E+01 -0.42307955773E+02  0.43400732153E+02  0.00000000000E+00 0. -1.
         11    1    3    3    0    0  0.12721332858E+01  0.87473261710E+00 -0.24128718117E+00  0.15625940014E+01  0.51100000000E-03 0. -1.
        -11    1    3    3    0    0 -0.99508666501E+01  0.19421260617E+01  0.37247678639E+02  0.38602864725E+02  0.51100000000E-03 0.  1.
        -12    1    3    3    0    0 -0.63718931360E+00 -0.54386928456E+01  0.53015643149E+01  0.76218091209E+01  0.00000000000E+00 0.  1.
</event>
<event>
 7    1  0.1736465E-010  0.4778728E+02  0.7816164E-02  0.1312668E+00
        -11   -1    0    0    0    0  0.00000000000E+00  0.00000000000E+00  0.45593999997E+02  0.45594000000E+02  0.51100000000E-03 0. -1.
         11   -1    0    0    0    0 -0.00000000000E+00 -0.00000000000E+00 -0.45593999997E+02  0.45594000000E+02  0.51100000000E-03 0.  1.
    9900012    2    1    2    0    0 -0.44041272936E+00  0.42583588566E+02  0.83705884854E+01  0.47787277308E+02  0.20000028560E+02 0.  0.
         12    1    1    2    0    0  0.44041272936E+00 -0.42583588566E+02 -0.83705884854E+01  0.43400722692E+02  0.00000000000E+00 0. -1.
         11    1    3    3    0    0  0.83239394860E+01  0.18896966644E+02  0.36754538009E+01  0.20973609080E+02  0.51100000000E-03 0. -1.
        -11    1    3    3    0    0 -0.41400553398E+01  0.13985102635E+02 -0.10581186271E+01  0.14623363813E+02  0.51100000000E-03 0.  1.
        -12    1    3    3    0    0 -0.46242968756E+01  0.97015192870E+01  0.57532533117E+01  0.12190304415E+02  0.00000000000E+00 0.  1.
</event>
<event>
 7    1  0.1736465E-010  0.4778723E+02  0.7816164E-02  0.1312668E+00
        -11   -1    0    0    0    0  0.00000000000E+00  0.00000000000E+00  0.45593999997E+02  0.45594000000E+02  0.51100000000E-03 0.  1.
         11   -1    0    0    0    0 -0.00000000000E+00 -0.00000000000E+00 -0.45593999997E+02  0.45594000000E+02  0.51100000000E-03 0. -1.
    9900012    2    1    2    0    0 -0.38597578036E+02 -0.10011969839E+02  0.17135172585E+02  0.47787231461E+02  0.19999819521E+02 0.  0.
         12    1    1    2    0    0  0.38597578036E+02  0.10011969839E+02 -0.17135172585E+02  0.43400768539E+02  0.00000000000E+00 0. -1.
         11    1    3    3    0    0 -0.76173006395E+01  0.60306334877E+00  0.83804563420E+01  0.11341031840E+02  0.51100000000E-03 0. -1.
        -11    1    3    3    0    0 -0.20278628912E+02 -0.11736469987E+02  0.10265840164E+02  0.25580363423E+02  0.51100000000E-03 0.  1.
         12    1    3    3    0    0 -0.10701648484E+02  0.11214367992E+01 -0.15111239211E+01  0.10865836198E+02  0.00000000000E+00 0. -1.
</event>
<event>
 7    1  0.1736465E-010  0.4778727E+02  0.7816164E-02  0.1312668E+00
        -11   -1    0    0    0    0  0.00000000000E+00  0.00000000000E+00  0.45593999997E+02  0.45594000000E+02  0.51100000000E-03 0.  1.
         11   -1    0    0    0    0 -0.00000000000E+00 -0.00000000000E+00 -0.45593999997E+02  0.45594000000E+02  0.51100000000E-03 0. -1.
    9900012    2    1    2    0    0  0.11937523258E+02 -0.78821116339E+01  0.40975495411E+02  0.47787269942E+02  0.19999994975E+02 0.  0.
         12    1    1    2    0    0 -0.11937523258E+02  0.78821116339E+01 -0.40975495411E+02  0.43400730058E+02  0.00000000000E+00 0. -1.
         11    1    3    3    0    0 -0.91697298118E-01 -0.64867568401E+01  0.85179416948E+01  0.10707088945E+02  0.51100000000E-03 0. -1.
        -11    1    3    3    0    0 -0.21442159736E+01 -0.67825805425E+00  0.11832593062E+02  0.12044415924E+02  0.51100000000E-03 0.  1.
         12    1    3    3    0    0  0.14173436529E+02 -0.71709673954E+00  0.20624960655E+02  0.25035765073E+02  0.00000000000E+00 0. -1.
</event>
<event>
 7    1  0.1736465E-010  0.4778727E+02  0.7816164E-02  0.1312668E+00
        -11   -1    0    0    0    0  0.00000000000E+00  0.00000000000E+00  0.45593999997E+02  0.45594000000E+02  0.51100000000E-03 0.  1.
         11   -1    0    0    0    0 -0.00000000000E+00 -0.00000000000E+00 -0.45593999997E+02  0.45594000000E+02  0.51100000000E-03 0. -1.
    9900012    2    1    2    0    0  0.42582323633E+02  0.77991843246E+01  0.30889528819E+01  0.47787271987E+02  0.20000004298E+02 0.  0.
         12    1    1    2    0    0 -0.42582323633E+02 -0.77991843246E+01 -0.30889528819E+01  0.43400728013E+02  0.00000000000E+00 0. -1.
         11    1    3    3    0    0  0.37680458296E+01  0.74082404385E+01  0.63026583452E+00  0.83353122947E+01  0.51100000000E-03 0. -1.
        -11    1    3    3    0    0  0.37776508668E+00  0.61880399443E+00  0.64761785734E+00  0.97212858949E+00  0.51100000000E-03 0.  1.
        -12    1    3    3    0    0  0.38436512717E+02 -0.22786010832E+00  0.18110691901E+01  0.38479831103E+02  0.00000000000E+00 0.  1.
</event>
<event>
 7    1  0.1736465E-010  0.4778728E+02  0.7816164E-02  0.1312668E+00
        -11   -1    0    0    0    0  0.00000000000E+00  0.00000000000E+00  0.45593999997E+02  0.45594000000E+02  0.51100000000E-03 0.  1.
         11   -1    0    0    0    0 -0.00000000000E+00 -0.00000000000E+00 -0.45593999997E+02  0.45594000000E+02  0.51100000000E-03 0. -1.
    9900012    2    1    2    0    0  0.20999753013E+02  0.44387821868E+01  0.37721745409E+02  0.47787280068E+02  0.20000041142E+02 0.  0.
         12    1    1    2    0    0 -0.20999753013E+02 -0.44387821868E+01 -0.37721745409E+02  0.43400719932E+02  0.00000000000E+00 0. -1.
         11    1    3    3    0    0 -0.18926471119E+01 -0.41373456215E+00  0.49569564913E+01  0.53220961375E+01  0.51100000000E-03 0.  1.
        -11    1    3    3    0    0  0.13791965268E+02  0.62556028442E+01  0.28593554267E+02  0.32356486502E+02  0.51100000000E-03 0. -1.
        -12    1    3    3    0    0  0.91004348576E+01 -0.14030860953E+01  0.41712346507E+01  0.10108697428E+02  0.00000000000E+00 0.  1.
</event>
<event>
 7    1  0.1736465E-010  0.4778727E+02  0.7816164E-02  0.1312668E+00
        -11   -1    0    0    0    0  0.00000000000E+00  0.00000000000E+00  0.45593999997E+02  0.45594000000E+02  0.51100000000E-03 0.  1.
         11   -1    0    0    0    0 -0.00000000000E+00 -0.00000000000E+00 -0.45593999997E+02  0.45594000000E+02  0.51100000000E-03 0. -1.
    9900012    2    1    2    0    0  0.19100156652E+02  0.12805865424E+02  0.36807845122E+02  0.47787266873E+02  0.19999980982E+02 0.  0.
         12    1    1    2    0    0 -0.19100156652E+02 -0.12805865424E+02 -0.36807845122E+02  0.43400733127E+02  0.00000000000E+00 0. -1.
         11    1    3    3    0    0  0.31632742794E+00  0.13024240293E+01  0.14715308963E+02  0.14776220407E+02  0.51100000000E-03 0. -1.
        -11    1    3    3    0    0  0.13526109392E+02  0.21388889725E+01  0.13810781551E+02  0.19449117425E+02  0.51100000000E-03 0.  1.
         12    1    3    3    0    0  0.52577198320E+01  0.93645524225E+01  0.82817546087E+01  0.13561929041E+02  0.00000000000E+00 0. -1.
</event>
<event>
 7    1  0.1736465E-010  0.4778727E+02  0.7816164E-02  0.1312668E+00
        -11   -1    0    0    0    0  0.00000000000E+00  0.00000000000E+00  0.45593999997E+02  0.45594000000E+02  0.51100000000E-03 0. -1.
         11   -1    0    0    0    0 -0.00000000000E+00 -0.00000000000E+00 -0.45593999997E+02  0.45594000000E+02  0.51100000000E-03 0.  1.
    9900012    2    1    2    0    0  0.26489979568E+02  0.28013107598E+02 -0.19929124743E+02  0.47787271575E+02  0.20000002419E+02 0.  0.
         12    1    1    2    0    0 -0.26489979568E+02 -0.28013107598E+02  0.19929124743E+02  0.43400728425E+02  0.00000000000E+00 0. -1.
         11    1    3    3    0    0  0.14570965571E+02  0.76762308607E+01 -0.38936780719E+01  0.16923306033E+02  0.51100000000E-03 0. -1.
        -11    1    3    3    0    0 -0.73920020428E+00  0.58767107795E+01 -0.14077379518E+00  0.59246910511E+01  0.51100000000E-03 0.  1.
        -12    1    3    3    0    0  0.12658214200E+02  0.14460165958E+02 -0.15894672876E+02  0.24939274490E+02  0.00000000000E+00 0.  1.
</event>
<event>
 7    1  0.1736465E-010  0.4778728E+02  0.7816164E-02  0.1312668E+00
        -11   -1    0    0    0    0  0.00000000000E+00  0.00000000000E+00  0.45593999997E+02  0.45594000000E+02  0.51100000000E-03 0. -1.
         11   -1    0    0    0    0 -0.00000000000E+00 -0.00000000000E+00 -0.45593999997E+02  0.45594000000E+02  0.51100000000E-03 0.  1.
    9900012    2    1    2    0    0  0.36821810447E+02 -0.66695121797E+00 -0.22963712020E+02  0.47787278598E+02  0.20000034438E+02 0.  0.
         12    1    1    2    0    0 -0.36821810447E+02  0.66695121797E+00  0.22963712020E+02  0.43400721402E+02  0.00000000000E+00 0. -1.
         11    1    3    3    0    0  0.22286961597E+01  0.53593580484E+01 -0.33836364887E+01  0.67185416135E+01  0.51100000000E-03 0. -1.
        -11    1    3    3    0    0  0.10170379721E+02 -0.36948329731E+01 -0.23059453058E+01  0.11063715397E+02  0.51100000000E-03 0.  1.
         12    1    3    3    0    0  0.24422734566E+02 -0.23314762933E+01 -0.17274130225E+02  0.30005021587E+02  0.00000000000E+00 0. -1.
</event>
<event>
 7    1  0.1736465E-010  0.4778727E+02  0.7816164E-02  0.1312668E+00
        -11   -1    0    0    0    0  0.00000000000E+00  0.00000000000E+00  0.45593999997E+02  0.45594000000E+02  0.51100000000E-03 0.  1.
         11   -1    0    0    0    0 -0.00000000000E+00 -0.00000000000E+00 -0.45593999997E+02  0.45594000000E+02  0.51100000000E-03 0. -1.
    9900012    2    1    2    0    0  0.64949857480E+00 -0.32540394150E+02  0.28711042589E+02  0.47787273435E+02  0.20000010898E+02 0.  0.
         12    1    1    2    0    0 -0.64949857480E+00  0.32540394150E+02 -0.28711042589E+02  0.43400726565E+02  0.00000000000E+00 0. -1.
         11    1    3    3    0    0 -0.23181357723E+01 -0.12442056662E+01  0.27511028230E+01  0.38066216259E+01  0.51100000000E-03 0. -1.
        -11    1    3    3    0    0 -0.44168795769E+01 -0.13128710364E+01  0.29536538637E+01  0.54732556091E+01  0.51100000000E-03 0.  1.
         12    1    3    3    0    0  0.73845139240E+01 -0.29983317448E+02  0.23006285902E+02  0.38507396200E+02  0.00000000000E+00 0. -1.
</event>
<event>
 7    1  0.1736465E-010  0.4778725E+02  0.7816164E-02  0.1312668E+00
        -11   -1    0    0    0    0  0.00000000000E+00  0.00000000000E+00  0.45593999997E+02  0.45594000000E+02  0.51100000000E-03 0.  1.
         11   -1    0    0    0    0 -0.00000000000E+00 -0.00000000000E+00 -0.45593999997E+02  0.45594000000E+02  0.51100000000E-03 0. -1.
    9900012    2    1    2    0    0 -0.19938398646E+02 -0.32176951371E+02  0.21230373709E+02  0.47787254523E+02  0.19999924673E+02 0.  0.
         12    1    1    2    0    0  0.19938398646E+02  0.32176951371E+02 -0.21230373709E+02  0.43400745477E+02  0.00000000000E+00 0. -1.
         11    1    3    3    0    0  0.74410795406E+00 -0.18835358502E+01 -0.62389185128E+00  0.21191142606E+01  0.51100000000E-03 0. -1.
        -11    1    3    3    0    0 -0.20087353496E+02 -0.32280465308E+02  0.20882693177E+02  0.43377610418E+02  0.51100000000E-03 0.  1.
         12    1    3    3    0    0 -0.59515310398E+00  0.19870497869E+01  0.97157238326E+00  0.22905298446E+01  0.00000000000E+00 0. -1.
</event>
<event>
 7    1  0.1736465E-010  0.4778727E+02  0.7816164E-02  0.1312668E+00
        -11   -1    0    0    0    0  0.00000000000E+00  0.00000000000E+00  0.45593999997E+02  0.45594000000E+02  0.51100000000E-03 0. -1.
         11   -1    0    0    0    0 -0.00000000000E+00 -0.00000000000E+00 -0.45593999997E+02  0.45594000000E+02  0.51100000000E-03 0.  1.
    9900012    2    1    2    0    0  0.39087247354E+02  0.18603759107E+02 -0.31161996963E+01  0.47787268909E+02  0.19999990266E+02 0.  0.
         12    1    1    2    0    0 -0.39087247354E+02 -0.18603759107E+02  0.31161996963E+01  0.43400731091E+02  0.00000000000E+00 0. -1.
         11    1    3    3    0    0  0.12301106530E+02  0.99845949736E+01 -0.71327554115E+01  0.17374854206E+02  0.51100000000E-03 0. -1.
        -11    1    3    3    0    0  0.21415645530E+02  0.19114158113E+01  0.36769150812E+01  0.21812911054E+02  0.51100000000E-03 0.  1.
         12    1    3    3    0    0  0.53704952937E+01  0.67077483226E+01  0.33964063397E+00  0.85995036496E+01  0.00000000000E+00 0. -1.
</event>
<event>
 7    1  0.1736465E-010  0.4778727E+02  0.7816164E-02  0.1312668E+00
        -11   -1    0    0    0    0  0.00000000000E+00  0.00000000000E+00  0.45593999997E+02  0.45594000000E+02  0.51100000000E-03 0.  1.
         11   -1    0    0    0    0 -0.00000000000E+00 -0.00000000000E+00 -0.45593999997E+02  0.45594000000E+02  0.51100000000E-03 0. -1.
    9900012    2    1    2    0    0  0.26920560105E+02 -0.31090270539E+02 -0.13867295046E+02  0.47787270162E+02  0.19999995976E+02 0.  0.
         12    1    1    2    0    0 -0.26920560105E+02  0.31090270539E+02  0.13867295046E+02  0.43400729838E+02  0.00000000000E+00 0. -1.
         11    1    3    3    0    0 -0.18641261078E+01 -0.10632879203E+01  0.21234215527E+01  0.30190175056E+01  0.51100000000E-03 0. -1.
        -11    1    3    3    0    0  0.91485003826E+01 -0.69938901637E+01 -0.51973474962E+01  0.12634159257E+02  0.51100000000E-03 0.  1.
         12    1    3    3    0    0  0.19636185830E+02 -0.23033092455E+02 -0.10793369102E+02  0.32134093399E+02  0.00000000000E+00 0. -1.
</event>
<event>
 7    1  0.1736465E-010  0.4778729E+02  0.7816164E-02  0.1312668E+00
        -11   -1    0    0    0    0  0.00000000000E+00  0.00000000000E+00  0.45593999997E+02  0.45594000000E+02  0.51100000000E-03 0. -1.
         11   -1    0    0    0    0 -0.00000000000E+00 -0.00000000000E+00 -0.45593999997E+02  0.45594000000E+02  0.51100000000E-03 0.  1.
    9900012    2    1    2    0    0 -0.47841431540E+00 -0.40772140098E+02  0.14866935018E+02  0.47787285199E+02  0.20000064535E+02 0.  0.
         12    1    1    2    0    0  0.47841431540E+00  0.40772140098E+02 -0.14866935018E+02  0.43400714801E+02  0.00000000000E+00 0. -1.
         11    1    3    3    0    0  0.76478648392E+01 -0.16349364964E+02  0.79121410082E+01  0.19707702730E+02  0.51100000000E-03 0. -1.
        -11    1    3    3    0    0 -0.46252063896E+01 -0.17858900834E+02  0.87632601699E+01  0.20423701972E+02  0.51100000000E-03 0.  1.
        -12    1    3    3    0    0 -0.35010727650E+01 -0.65638743000E+01 -0.18084661601E+01  0.76558804970E+01  0.00000000000E+00 0.  1.
</event>
<event>
 7    1  0.1736465E-010  0.4778727E+02  0.7816164E-02  0.1312668E+00
        -11   -1    0    0    0    0  0.00000000000E+00  0.00000000000E+00  0.45593999997E+02  0.45594000000E+02  0.51100000000E-03 0. -1.
         11   -1    0    0    0    0 -0.00000000000E+00 -0.00000000000E+00 -0.45593999997E+02  0.45594000000E+02  0.51100000000E-03 0.  1.
    9900012    2    1    2    0    0  0.49906255444E+01  0.64530105318E+01 -0.42627166706E+02  0.47787273858E+02  0.20000012830E+02 0.  0.
         12    1    1    2    0    0 -0.49906255444E+01 -0.64530105318E+01  0.42627166706E+02  0.43400726142E+02  0.00000000000E+00 0. -1.
         11    1    3    3    0    0  0.13877346241E+01 -0.49281626091E+01 -0.11130089822E+02  0.12251183363E+02  0.51100000000E-03 0. -1.
        -11    1    3    3    0    0  0.30947881705E+01  0.63158101400E+01 -0.51898049624E+01  0.87407807062E+01  0.51100000000E-03 0.  1.
        -12    1    3    3    0    0  0.50810274979E+00  0.50653630009E+01 -0.26307271922E+02  0.26795309789E+02  0.00000000000E+00 0.  1.
</event>
<event>
 7    1  0.1736465E-010  0.4778727E+02  0.7816164E-02  0.1312668E+00
        -11   -1    0    0    0    0  0.00000000000E+00  0.00000000000E+00  0.45593999997E+02  0.45594000000E+02  0.51100000000E-03 0. -1.
         11   -1    0    0    0    0 -0.00000000000E+00 -0.00000000000E+00 -0.45593999997E+02  0.45594000000E+02  0.51100000000E-03 0.  1.
    9900012    2    1    2    0    0 -0.21743883432E+02  0.36609641626E+02 -0.84000529958E+01  0.47787271699E+02  0.20000002986E+02 0.  0.
         12    1    1    2    0    0  0.21743883432E+02 -0.36609641626E+02  0.84000529958E+01  0.43400728301E+02  0.00000000000E+00 0. -1.
         11    1    3    3    0    0  0.18405001208E+01  0.54046733660E+01 -0.15356465534E+01  0.59123722385E+01  0.51100000000E-03 0. -1.
        -11    1    3    3    0    0 -0.15054054367E+02  0.26430177170E+02 -0.91380239371E+00  0.30430475731E+02  0.51100000000E-03 0.  1.
         12    1    3    3    0    0 -0.85303291860E+01  0.47747910900E+01 -0.59506040486E+01  0.11444423730E+02  0.00000000000E+00 0. -1.
</event>
<event>
 7    1  0.1736465E-010  0.4778727E+02  0.7816164E-02  0.1312668E+00
        -11   -1    0    0    0    0  0.00000000000E+00  0.00000000000E+00  0.45593999997E+02  0.45594000000E+02  0.51100000000E-03 0.  1.
         11   -1    0    0    0    0 -0.00000000000E+00 -0.00000000000E+00 -0.45593999997E+02  0.45594000000E+02  0.51100000000E-03 0. -1.
    9900012    2    1    2    0    0  0.29595480635E+02  0.49709112552E+01  0.31353160680E+02  0.47787272847E+02  0.20000008220E+02 0.  0.
         12    1    1    2    0    0 -0.29595480635E+02 -0.49709112552E+01 -0.31353160680E+02  0.43400727153E+02  0.00000000000E+00 0. -1.
         11    1    3    3    0    0  0.19982282754E+01 -0.10203667386E+01 -0.22328003389E+01  0.31653533983E+01  0.51100000000E-03 0. -1.
        -11    1    3    3    0    0  0.80515579641E+01  0.29331020912E+01  0.16008515603E+02  0.18157732391E+02  0.51100000000E-03 0.  1.
        -12    1    3    3    0    0  0.19545694396E+02  0.30581759026E+01  0.17577445417E+02  0.26464187058E+02  0.00000000000E+00 0.  1.
</event>
<event>
 7    1  0.1736465E-010  0.4778726E+02  0.7816164E-02  0.1312668E+00
        -11   -1    0    0    0    0  0.00000000000E+00  0.00000000000E+00  0.45593999997E+02  0.45594000000E+02  0.51100000000E-03 0.  1.
         11   -1    0    0    0    0 -0.00000000000E+00 -0.00000000000E+00 -0.45593999997E+02  0.45594000000E+02  0.51100000000E-03 0. -1.
    9900012    2    1    2    0    0  0.14982611780E+02 -0.26717349945E+02  0.30746196029E+02  0.47787262517E+02  0.19999961119E+02 0.  0.
         12    1    1    2    0    0 -0.14982611780E+02  0.26717349945E+02 -0.30746196029E+02  0.43400737483E+02  0.00000000000E+00 0. -1.
         11    1    3    3    0    0  0.98098265144E+01 -0.74401692960E+01  0.17040213531E+02  0.21022789844E+02  0.51100000000E-03 0.  1.
        -11    1    3    3    0    0  0.78823454783E+01 -0.11434641011E+02  0.50603352258E+01  0.14781386205E+02  0.51100000000E-03 0. -1.
         12    1    3    3    0    0 -0.27095602132E+01 -0.78425396378E+01  0.86456472724E+01  0.11983086467E+02  0.00000000000E+00 0. -1.
</event>
<event>
 7    1  0.1736465E-010  0.4778728E+02  0.7816164E-02  0.1312668E+00
        -11   -1    0    0    0    0  0.00000000000E+00  0.00000000000E+00  0.45593999997E+02  0.45594000000E+02  0.51100000000E-03 0. -1.
         11   -1    0    0    0    0 -0.00000000000E+00 -0.00000000000E+00 -0.45593999997E+02  0.45594000000E+02  0.51100000000E-03 0.  1.
    9900012    2    1    2    0    0 -0.27201957448E+02 -0.28950966736E+02  0.17479071547E+02  0.47787275281E+02  0.20000019318E+02 0.  0.
         12    1    1    2    0    0  0.27201957448E+02  0.28950966736E+02 -0.17479071547E+02  0.43400724719E+02  0.00000000000E+00 0. -1.
         11    1    3    3    0    0 -0.11490565128E+02 -0.22034139570E+02  0.11075738535E+02  0.27206770810E+02  0.51100000000E-03 0.  1.
        -11    1    3    3    0    0 -0.34390197737E+01  0.11139539252E+01  0.45289821380E+01  0.57947760801E+01  0.51100000000E-03 0. -1.
        -12    1    3    3    0    0 -0.12272372547E+02 -0.80307810915E+01  0.18743508738E+01  0.14785728392E+02  0.00000000000E+00 0.  1.
</event>
<event>
 7    1  0.1736465E-010  0.4778727E+02  0.7816164E-02  0.1312668E+00
        -11   -1    0    0    0    0  0.00000000000E+00  0.00000000000E+00  0.45593999997E+02  0.45594000000E+02  0.51100000000E-03 0. -1.
         11   -1    0    0    0    0 -0.00000000000E+00 -0.00000000000E+00 -0.45593999997E+02  0.45594000000E+02  0.51100000000E-03 0.  1.
    9900012    2    1    2    0    0  0.30381376893E+02 -0.16547055455E+02 -0.26206687438E+02  0.47787267603E+02  0.19999984308E+02 0.  0.
         12    1    1    2    0    0 -0.30381376893E+02  0.16547055455E+02  0.26206687438E+02  0.43400732397E+02  0.00000000000E+00 0. -1.
         11    1    3    3    0    0  0.64844133272E+01 -0.45060529765E+00 -0.99492430085E+01  0.11884363594E+02  0.51100000000E-03 0. -1.
        -11    1    3    3    0    0  0.21213361966E+02 -0.18364943751E+02 -0.16177391158E+02  0.32388051343E+02  0.51100000000E-03 0.  1.
         12    1    3    3    0    0  0.26836016001E+01  0.22684935937E+01 -0.80053270941E-01  0.35148526653E+01  0.00000000000E+00 0. -1.
</event>
<event>
 7    1  0.1736465E-010  0.4778727E+02  0.7816164E-02  0.1312668E+00
        -11   -1    0    0    0    0  0.00000000000E+00  0.00000000000E+00  0.45593999997E+02  0.45594000000E+02  0.51100000000E-03 0.  1.
         11   -1    0    0    0    0 -0.00000000000E+00 -0.00000000000E+00 -0.45593999997E+02  0.45594000000E+02  0.51100000000E-03 0. -1.
    9900012    2    1    2    0    0 -0.11173409199E+02  0.38365716227E+02  0.16936638319E+02  0.47787274519E+02  0.20000015842E+02 0.  0.
         12    1    1    2    0    0  0.11173409199E+02 -0.38365716227E+02 -0.16936638319E+02  0.43400725481E+02  0.00000000000E+00 0. -1.
         11    1    3    3    0    0 -0.42229007332E+01  0.29745294327E+01  0.71715075527E+00  0.52148846023E+01  0.51100000000E-03 0. -1.
        -11    1    3    3    0    0 -0.42023339421E+01  0.36167226292E+02  0.15780726625E+02  0.39683235771E+02  0.51100000000E-03 0.  1.
        -12    1    3    3    0    0 -0.27481745237E+01 -0.77603949768E+00  0.43876093909E+00  0.28891541454E+01  0.00000000000E+00 0.  1.
</event>
<event>
 7    1  0.1736465E-010  0.4778728E+02  0.7816164E-02  0.1312668E+00
        -11   -1    0    0    0    0  0.00000000000E+00  0.00000000000E+00  0.45593999997E+02  0.45594000000E+02  0.51100000000E-03 0.  1.
         11   -1    0    0    0    0 -0.00000000000E+00 -0.00000000000E+00 -0.45593999997E+02  0.45594000000E+02  0.51100000000E-03 0. -1.
    9900012    2    1    2    0    0 -0.13416203792E+02 -0.27453438741E+01  0.41183621082E+02  0.47787284769E+02  0.20000062574E+02 0.  0.
         12    1    1    2    0    0  0.13416203792E+02  0.27453438741E+01 -0.41183621082E+02  0.43400715231E+02  0.00000000000E+00 0. -1.
         11    1    3    3    0    0 -0.47758762806E+01  0.30627608590E+01  0.43248692707E+01  0.71340025790E+01  0.51100000000E-03 0. -1.
        -11    1    3    3    0    0  0.32154387325E+01 -0.23554978564E+00  0.13422251224E+02  0.13804034125E+02  0.51100000000E-03 0.  1.
        -12    1    3    3    0    0 -0.11855766244E+02 -0.55725549475E+01  0.23436500587E+02  0.26849248065E+02  0.00000000000E+00 0.  1.
</event>
<event>
 7    1  0.2105528E-010  0.4778727E+02  0.7816164E-02  0.1312668E+00
        -11   -1    0    0    0    0  0.00000000000E+00  0.00000000000E+00  0.45593999997E+02  0.45594000000E+02  0.51100000000E-03 0. -1.
         11   -1    0    0    0    0 -0.00000000000E+00 -0.00000000000E+00 -0.45593999997E+02  0.45594000000E+02  0.51100000000E-03 0.  1.
    9900012    2    1    2    0    0  0.12347682485E+02  0.22851359705E+02 -0.34770293046E+02  0.47787272107E+02  0.20000004845E+02 0.  0.
         12    1    1    2    0    0 -0.12347682485E+02 -0.22851359705E+02  0.34770293046E+02  0.43400727893E+02  0.00000000000E+00 0. -1.
         11    1    3    3    0    0  0.89605191177E+01  0.10826326066E+02 -0.91886871511E+01  0.16790837107E+02  0.51100000000E-03 0. -1.
        -11    1    3    3    0    0  0.60812939346E+01  0.38413774951E+01 -0.18482230245E+02  0.19832578049E+02  0.51100000000E-03 0.  1.
        -12    1    3    3    0    0 -0.26941305669E+01  0.81836561447E+01 -0.70993756498E+01  0.11163856951E+02  0.00000000000E+00 0.  1.
</event>
<event>
 7    1  0.1736465E-010  0.4778728E+02  0.7816164E-02  0.1312668E+00
        -11   -1    0    0    0    0  0.00000000000E+00  0.00000000000E+00  0.45593999997E+02  0.45594000000E+02  0.51100000000E-03 0.  1.
         11   -1    0    0    0    0 -0.00000000000E+00 -0.00000000000E+00 -0.45593999997E+02  0.45594000000E+02  0.51100000000E-03 0. -1.
    9900012    2    1    2    0    0  0.39920332909E+02 -0.59014153296E+01 -0.15973815551E+02  0.47787280355E+02  0.20000042451E+02 0.  0.
         12    1    1    2    0    0 -0.39920332909E+02  0.59014153296E+01  0.15973815551E+02  0.43400719645E+02  0.00000000000E+00 0. -1.
         11    1    3    3    0    0  0.19241406658E+02  0.22820350558E+01  0.98158549386E+00  0.19401106270E+02  0.51100000000E-03 0. -1.
        -11    1    3    3    0    0  0.12202435509E+02 -0.58885245435E+01 -0.75178890851E+01  0.15494928532E+02  0.51100000000E-03 0.  1.
        -12    1    3    3    0    0  0.84764907417E+01 -0.22949258419E+01 -0.94375119599E+01  0.12891245553E+02  0.00000000000E+00 0.  1.
</event>
<event>
 7    1  0.1736465E-010  0.4778727E+02  0.7816164E-02  0.1312668E+00
        -11   -1    0    0    0    0  0.00000000000E+00  0.00000000000E+00  0.45593999997E+02  0.45594000000E+02  0.51100000000E-03 0.  1.
         11   -1    0    0    0    0 -0.00000000000E+00 -0.00000000000E+00 -0.45593999997E+02  0.45594000000E+02  0.51100000000E-03 0. -1.
    9900012    2    1    2    0    0  0.19096610494E+02  0.19689554010E+02  0.33634270956E+02  0.47787271294E+02  0.20000001136E+02 0.  0.
         12    1    1    2    0    0 -0.19096610494E+02 -0.19689554010E+02 -0.33634270956E+02  0.43400728706E+02  0.00000000000E+00 0. -1.
         11    1    3    3    0    0 -0.11940897195E+01  0.11314697795E+01  0.12338110303E+02  0.12447290477E+02  0.51100000000E-03 0. -1.
        -11    1    3    3    0    0  0.66238286963E+01  0.39728334938E+01  0.31424264381E+01  0.83386663650E+01  0.51100000000E-03 0.  1.
        -12    1    3    3    0    0  0.13666871518E+02  0.14585250737E+02  0.18153734216E+02  0.27001314451E+02  0.00000000000E+00 0.  1.
</event>
<event>
 7    1  0.1736465E-010  0.4778727E+02  0.7816164E-02  0.1312668E+00
        -11   -1    0    0    0    0  0.00000000000E+00  0.00000000000E+00  0.45593999997E+02  0.45594000000E+02  0.51100000000E-03 0.  1.
         11   -1    0    0    0    0 -0.00000000000E+00 -0.00000000000E+00 -0.45593999997E+02  0.45594000000E+02  0.51100000000E-03 0. -1.
    9900012    2    1    2    0    0  0.14690014749E+02 -0.93693046553E+01  0.39749753418E+02  0.47787270745E+02  0.19999998636E+02 0.  0.
         12    1    1    2    0    0 -0.14690014749E+02  0.93693046553E+01 -0.39749753418E+02  0.43400729255E+02  0.00000000000E+00 0. -1.
         11    1    3    3    0    0 -0.20993994883E+01 -0.38504616113E+01  0.24118987564E+01  0.50050762936E+01  0.51100000000E-03 0. -1.
        -11    1    3    3    0    0  0.13390156101E+02 -0.41567581672E+01  0.16623447283E+02  0.21746584070E+02  0.51100000000E-03 0.  1.
         12    1    3    3    0    0  0.33992581362E+01 -0.13620848768E+01  0.20714407378E+02  0.21035610381E+02  0.00000000000E+00 0. -1.
</event>
<event>
 7    1  0.1736465E-010  0.4778724E+02  0.7816164E-02  0.1312668E+00
        -11   -1    0    0    0    0  0.00000000000E+00  0.00000000000E+00  0.45593999997E+02  0.45594000000E+02  0.51100000000E-03 0. -1.
         11   -1    0    0    0    0 -0.00000000000E+00 -0.00000000000E+00 -0.45593999997E+02  0.45594000000E+02  0.51100000000E-03 0.  1.
    9900012    2    1    2    0    0 -0.25380051236E+02  0.27965390203E+02 -0.21387282979E+02  0.47787240523E+02  0.19999860841E+02 0.  0.
         12    1    1    2    0    0  0.25380051236E+02 -0.27965390203E+02  0.21387282979E+02  0.43400759477E+02  0.00000000000E+00 0. -1.
         11    1    3    3    0    0  0.51583834934E+00  0.52158892964E+01 -0.41485574909E+01  0.66844685556E+01  0.51100000000E-03 0. -1.
        -11    1    3    3    0    0 -0.24180573605E+02  0.23007574091E+02 -0.19182965622E+02  0.38497204778E+02  0.51100000000E-03 0.  1.
        -12    1    3    3    0    0 -0.17153159802E+01 -0.25807318458E+00  0.19442401338E+01  0.26055671894E+01  0.00000000000E+00 0.  1.
</event>
<event>
 7    1  0.1736465E-010  0.4778727E+02  0.7816164E-02  0.1312668E+00
        -11   -1    0    0    0    0  0.00000000000E+00  0.00000000000E+00  0.45593999997E+02  0.45594000000E+02  0.51100000000E-03 0.  1.
         11   -1    0    0    0    0 -0.00000000000E+00 -0.00000000000E+00 -0.45593999997E+02  0.45594000000E+02  0.51100000000E-03 0. -1.
    9900012    2    1    2    0    0  0.19970395743E+02 -0.24808852968E+02  0.29484360359E+02  0.47787269620E+02  0.19999993505E+02 0.  0.
         12    1    1    2    0    0 -0.19970395743E+02  0.24808852968E+02 -0.29484360359E+02  0.43400730380E+02  0.00000000000E+00 0. -1.
         11    1    3    3    0    0  0.13903905744E+01  0.51009243717E+00 -0.49378830166E+00  0.15611557872E+01  0.51100000000E-03 0. -1.
        -11    1    3    3    0    0  0.19688173461E+02 -0.21615496084E+02  0.19727510708E+02  0.35270788540E+02  0.51100000000E-03 0.  1.
         12    1    3    3    0    0 -0.11081682924E+01 -0.37034493210E+01  0.10250637953E+02  0.10955325293E+02  0.00000000000E+00 0. -1.
</event>
<event>
 7    1  0.1736465E-010  0.4778727E+02  0.7816164E-02  0.1312668E+00
        -11   -1    0    0    0    0  0.00000000000E+00  0.00000000000E+00  0.45593999997E+02  0.45594000000E+02  0.51100000000E-03 0.  1.
         11   -1    0    0    0    0 -0.00000000000E+00 -0.00000000000E+00 -0.45593999997E+02  0.45594000000E+02  0.51100000000E-03 0. -1.
    9900012    2    1    2    0    0  0.18194360019E+02 -0.37051233392E+02  0.13408754364E+02  0.47787270444E+02  0.19999997264E+02 0.  0.
         12    1    1    2    0    0 -0.18194360019E+02  0.37051233392E+02 -0.13408754364E+02  0.43400729556E+02  0.00000000000E+00 0. -1.
         11    1    3    3    0    0  0.44984994108E+01  0.10654789751E-01  0.46345339665E+00  0.45223223885E+01  0.51100000000E-03 0.  1.
        -11    1    3    3    0    0 -0.21033034274E+01 -0.24284755213E+01  0.86177701876E+00  0.33262649558E+01  0.51100000000E-03 0. -1.
        -12    1    3    3    0    0  0.15799164035E+02 -0.34633412661E+02  0.12083523949E+02  0.39938683100E+02  0.00000000000E+00 0.  1.
</event>
<event>
 7    1  0.1736465E-010  0.4778727E+02  0.7816164E-02  0.1312668E+00
        -11   -1    0    0    0    0  0.00000000000E+00  0.00000000000E+00  0.45593999997E+02  0.45594000000E+02  0.51100000000E-03 0.  1.
         11   -1    0    0    0    0 -0.00000000000E+00 -0.00000000000E+00 -0.45593999997E+02  0.45594000000E+02  0.51100000000E-03 0. -1.
    9900012    2    1    2    0    0 -0.10038349712E+01  0.27773907727E+02  0.33335053430E+02  0.47787269335E+02  0.19999992206E+02 0.  0.
         12    1    1    2    0    0  0.10038349712E+01 -0.27773907727E+02 -0.33335053430E+02  0.43400730665E+02  0.00000000000E+00 0. -1.
         11    1    3    3    0    0 -0.71221651593E+00  0.12240903894E+02  0.33278763914E+01  0.12705185636E+02  0.51100000000E-03 0.  1.
        -11    1    3    3    0    0  0.80260899980E+00 -0.80695234457E+00  0.54338384697E+01  0.55517523422E+01  0.51100000000E-03 0. -1.
        -12    1    3    3    0    0 -0.10942274551E+01  0.16339956177E+02  0.24573338569E+02  0.29530331357E+02  0.00000000000E+00 0.  1.
</event>
<event>
 7    1  0.1736465E-010  0.4778727E+02  0.7816164E-02  0.1312668E+00
        -11   -1    0    0    0    0  0.00000000000E+00  0.00000000000E+00  0.45593999997E+02  0.45594000000E+02  0.51100000000E-03 0.  1.
         11   -1    0    0    0    0 -0.00000000000E+00 -0.00000000000E+00 -0.45593999997E+02  0.45594000000E+02  0.51100000000E-03 0. -1.
    9900012    2    1    2    0    0 -0.11065763009E+02 -0.30904831187E+02  0.28391254972E+02  0.47787273502E+02  0.20000011205E+02 0.  0.
         12    1    1    2    0    0  0.11065763009E+02  0.30904831187E+02 -0.28391254972E+02  0.43400726498E+02  0.00000000000E+00 0. -1.
         11    1    3    3    0    0  0.14507421374E+01 -0.25046090132E+01  0.59070489586E+01  0.65780655757E+01  0.51100000000E-03 0. -1.
        -11    1    3    3    0    0 -0.14591954468E+02 -0.24018544406E+02  0.23024249908E+02  0.36330864216E+02  0.51100000000E-03 0.  1.
        -12    1    3    3    0    0  0.20754493216E+01 -0.43816777678E+01 -0.54004389472E+00  0.48783437103E+01  0.00000000000E+00 0.  1.
</event>
<event>
 7    1  0.1736465E-010  0.4778727E+02  0.7816164E-02  0.1312668E+00
        -11   -1    0    0    0    0  0.00000000000E+00  0.00000000000E+00  0.45593999997E+02  0.45594000000E+02  0.51100000000E-03 0.  1.
         11   -1    0    0    0    0 -0.00000000000E+00 -0.00000000000E+00 -0.45593999997E+02  0.45594000000E+02  0.51100000000E-03 0. -1.
    9900012    2    1    2    0    0 -0.18116595830E+02 -0.13508406933E+02  0.37053137816E+02  0.47787272767E+02  0.20000007855E+02 0.  0.
         12    1    1    2    0    0  0.18116595830E+02  0.13508406933E+02 -0.37053137816E+02  0.43400727233E+02  0.00000000000E+00 0. -1.
         11    1    3    3    0    0  0.11919288020E+01  0.22127778840E+01  0.11849122770E+01  0.27786863080E+01  0.51100000000E-03 0. -1.
        -11    1    3    3    0    0 -0.38833594766E+01 -0.70252214349E+01  0.18676337802E+02  0.20328300740E+02  0.51100000000E-03 0.  1.
        -12    1    3    3    0    0 -0.15425165156E+02 -0.86959633820E+01  0.17191887737E+02  0.24680285719E+02  0.00000000000E+00 0.  1.
</event>
<event>
 7    1  0.1736465E-010  0.4778727E+02  0.7816164E-02  0.1312668E+00
        -11   -1    0    0    0    0  0.00000000000E+00  0.00000000000E+00  0.45593999997E+02  0.45594000000E+02  0.51100000000E-03 0. -1.
         11   -1    0    0    0    0 -0.00000000000E+00 -0.00000000000E+00 -0.45593999997E+02  0.45594000000E+02  0.51100000000E-03 0.  1.
    9900012    2    1    2    0    0 -0.43703366131E+01  0.23263077923E+02 -0.36377915409E+02  0.47787269983E+02  0.19999995159E+02 0.  0.
         12    1    1    2    0    0  0.43703366131E+01 -0.23263077923E+02  0.36377915409E+02  0.43400730017E+02  0.00000000000E+00 0. -1.
         11    1    3    3    0    0 -0.28158228335E+00 -0.11082464551E+01 -0.31984393590E+00  0.11873496503E+01  0.51100000000E-03 0. -1.
        -11    1    3    3    0    0  0.22415161175E+01  0.28622205496E+01 -0.16346676432E+02  0.16746060182E+02  0.51100000000E-03 0.  1.
        -12    1    3    3    0    0 -0.63302704472E+01  0.21509103829E+02 -0.19711395041E+02  0.29853860150E+02  0.00000000000E+00 0.  1.
</event>
<event>
 7    1  0.1736465E-010  0.4778727E+02  0.7816164E-02  0.1312668E+00
        -11   -1    0    0    0    0  0.00000000000E+00  0.00000000000E+00  0.45593999997E+02  0.45594000000E+02  0.51100000000E-03 0.  1.
         11   -1    0    0    0    0 -0.00000000000E+00 -0.00000000000E+00 -0.45593999997E+02  0.45594000000E+02  0.51100000000E-03 0. -1.
    9900012    2    1    2    0    0  0.34949854587E+02 -0.75422638309E+01  0.24601729986E+02  0.47787271923E+02  0.20000004005E+02 0.  0.
         12    1    1    2    0    0 -0.34949854587E+02  0.75422638309E+01 -0.24601729986E+02  0.43400728077E+02  0.00000000000E+00 0. -1.
         11    1    3    3    0    0 -0.10140387352E+01 -0.25167042321E+01  0.29110539845E+01  0.39794861867E+01  0.51100000000E-03 0. -1.
        -11    1    3    3    0    0  0.84155454959E+01  0.40067054891E+00  0.10786999289E+02  0.13687267689E+02  0.51100000000E-03 0.  1.
         12    1    3    3    0    0  0.27548347826E+02 -0.54262301478E+01  0.10903676712E+02  0.30120518047E+02  0.00000000000E+00 0. -1.
</event>
<event>
 7    1  0.1736465E-010  0.4778728E+02  0.7816164E-02  0.1312668E+00
        -11   -1    0    0    0    0  0.00000000000E+00  0.00000000000E+00  0.45593999997E+02  0.45594000000E+02  0.51100000000E-03 0. -1.
         11   -1    0    0    0    0 -0.00000000000E+00 -0.00000000000E+00 -0.45593999997E+02  0.45594000000E+02  0.51100000000E-03 0.  1.
    9900012    2    1    2    0    0 -0.38340457368E+02 -0.17385426146E+02  0.10553621052E+02  0.47787278453E+02  0.20000033781E+02 0.  0.
         12    1    1    2    0    0  0.38340457368E+02  0.17385426146E+02 -0.10553621052E+02  0.43400721547E+02  0.00000000000E+00 0. -1.
         11    1    3    3    0    0 -0.18895995296E+02 -0.11629170603E+02  0.96793317410E+01  0.24207141722E+02  0.51100000000E-03 0. -1.
        -11    1    3    3    0    0 -0.12404985888E+02 -0.67579509112E+01 -0.43227426596E+01  0.14772937412E+02  0.51100000000E-03 0.  1.
         12    1    3    3    0    0 -0.70394761831E+01  0.10016953685E+01  0.51970319708E+01  0.88071993193E+01  0.00000000000E+00 0. -1.
</event>
<event>
 7    1  0.1736465E-010  0.4778726E+02  0.7816164E-02  0.1312668E+00
        -11   -1    0    0    0    0  0.00000000000E+00  0.00000000000E+00  0.45593999997E+02  0.45594000000E+02  0.51100000000E-03 0.  1.
         11   -1    0    0    0    0 -0.00000000000E+00 -0.00000000000E+00 -0.45593999997E+02  0.45594000000E+02  0.51100000000E-03 0. -1.
    9900012    2    1    2    0    0 -0.30290983813E+02  0.28771625995E+02  0.11759001102E+02  0.47787259572E+02  0.19999947694E+02 0.  0.
         12    1    1    2    0    0  0.30290983813E+02 -0.28771625995E+02 -0.11759001102E+02  0.43400740428E+02  0.00000000000E+00 0. -1.
         11    1    3    3    0    0 -0.42539276501E+01  0.29694787974E+01 -0.48426165778E+01  0.70968049403E+01  0.51100000000E-03 0. -1.
        -11    1    3    3    0    0 -0.70049041116E+01  0.60527055350E+01  0.70895252483E+01  0.11660415705E+02  0.51100000000E-03 0.  1.
        -12    1    3    3    0    0 -0.19032152051E+02  0.19749441662E+02  0.95120924314E+01  0.29030038927E+02  0.00000000000E+00 0.  1.
</event>
<event>
 7    1  0.1736465E-010  0.4778729E+02  0.7816164E-02  0.1312668E+00
        -11   -1    0    0    0    0  0.00000000000E+00  0.00000000000E+00  0.45593999997E+02  0.45594000000E+02  0.51100000000E-03 0.  1.
         11   -1    0    0    0    0 -0.00000000000E+00 -0.00000000000E+00 -0.45593999997E+02  0.45594000000E+02  0.51100000000E-03 0. -1.
    9900012    2    1    2    0    0 -0.28344963397E+02 -0.23087551834E+02  0.23391234351E+02  0.47787287516E+02  0.20000075101E+02 0.  0.
         12    1    1    2    0    0  0.28344963397E+02  0.23087551834E+02 -0.23391234351E+02  0.43400712484E+02  0.00000000000E+00 0. -1.
         11    1    3    3    0    0  0.17065534468E-01  0.12765556404E+01  0.12306550746E+01  0.17732449660E+01  0.51100000000E-03 0. -1.
        -11    1    3    3    0    0 -0.39536165586E+01 -0.12589593476E+02  0.64244646132E+01  0.14676603613E+02  0.51100000000E-03 0.  1.
        -12    1    3    3    0    0 -0.24408412373E+02 -0.11774513998E+02  0.15736114663E+02  0.31337438937E+02  0.00000000000E+00 0.  1.
</event>
<event>
 7    1  0.1736465E-010  0.4778727E+02  0.7816164E-02  0.1312668E+00
        -11   -1    0    0    0    0  0.00000000000E+00  0.00000000000E+00  0.45593999997E+02  0.45594000000E+02  0.51100000000E-03 0.  1.
         11   -1    0    0    0    0 -0.00000000000E+00 -0.00000000000E+00 -0.45593999997E+02  0.45594000000E+02  0.51100000000E-03 0. -1.
    9900012    2    1    2    0    0  0.76571795180E+01 -0.36233272135E+02 -0.22630536905E+02  0.47787267191E+02  0.19999982429E+02 0.  0.
         12    1    1    2    0    0 -0.76571795180E+01  0.36233272135E+02  0.22630536905E+02  0.43400732809E+02  0.00000000000E+00 0. -1.
         11    1    3    3    0    0  0.34876162705E+01 -0.29273213969E+02 -0.16547431429E+02  0.33806833784E+02  0.51100000000E-03 0.  1.
        -11    1    3    3    0    0  0.62716511739E+01 -0.48397687218E+01 -0.86564300104E+00  0.79690845017E+01  0.51100000000E-03 0. -1.
        -12    1    3    3    0    0 -0.21020879264E+01 -0.21202894434E+01 -0.52174624753E+01  0.60113489048E+01  0.00000000000E+00 0.  1.
</event>
<event>
 7    1  0.1736465E-010  0.4778727E+02  0.7816164E-02  0.1312668E+00
        -11   -1    0    0    0    0  0.00000000000E+00  0.00000000000E+00  0.45593999997E+02  0.45594000000E+02  0.51100000000E-03 0.  1.
         11   -1    0    0    0    0 -0.00000000000E+00 -0.00000000000E+00 -0.45593999997E+02  0.45594000000E+02  0.51100000000E-03 0. -1.
    9900012    2    1    2    0    0 -0.25395272784E+01 -0.40175217052E+02  0.16221155691E+02  0.47787272404E+02  0.20000006197E+02 0.  0.
         12    1    1    2    0    0  0.25395272784E+01  0.40175217052E+02 -0.16221155691E+02  0.43400727596E+02  0.00000000000E+00 0. -1.
         11    1    3    3    0    0 -0.97355530841E+01 -0.22997285581E+02  0.45661225747E+01  0.25387115110E+02  0.51100000000E-03 0. -1.
        -11    1    3    3    0    0  0.26468860430E+01 -0.10586278673E+02  0.50741038552E+01  0.12034194284E+02  0.51100000000E-03 0.  1.
         12    1    3    3    0    0  0.45491397627E+01 -0.65916527973E+01  0.65809292616E+01  0.10365963010E+02  0.00000000000E+00 0. -1.
</event>
<event>
 7    1  0.1736465E-010  0.4778727E+02  0.7816164E-02  0.1312668E+00
        -11   -1    0    0    0    0  0.00000000000E+00  0.00000000000E+00  0.45593999997E+02  0.45594000000E+02  0.51100000000E-03 0.  1.
         11   -1    0    0    0    0 -0.00000000000E+00 -0.00000000000E+00 -0.45593999997E+02  0.45594000000E+02  0.51100000000E-03 0. -1.
    9900012    2    1    2    0    0  0.92851096926E+01 -0.25265405779E+02  0.34045106033E+02  0.47787271481E+02  0.20000001989E+02 0.  0.
         12    1    1    2    0    0 -0.92851096926E+01  0.25265405779E+02 -0.34045106033E+02  0.43400728519E+02  0.00000000000E+00 0. -1.
         11    1    3    3    0    0  0.11895775204E+02 -0.18790788170E+02  0.16751570546E+02  0.27842742390E+02  0.51100000000E-03 0. -1.
        -11    1    3    3    0    0  0.19287067906E+01 -0.20315187114E+01  0.94230043251E+01  0.98305640190E+01  0.51100000000E-03 0.  1.
         12    1    3    3    0    0 -0.45393723016E+01 -0.44430988978E+01  0.78705311619E+01  0.10113965072E+02  0.00000000000E+00 0. -1.
</event>
<event>
 7    1  0.1736465E-010  0.4778727E+02  0.7816164E-02  0.1312668E+00
        -11   -1    0    0    0    0  0.00000000000E+00  0.00000000000E+00  0.45593999997E+02  0.45594000000E+02  0.51100000000E-03 0.  1.
         11   -1    0    0    0    0 -0.00000000000E+00 -0.00000000000E+00 -0.45593999997E+02  0.45594000000E+02  0.51100000000E-03 0. -1.
    9900012    2    1    2    0    0  0.24433001586E+02  0.92212453932E+01  0.34664397706E+02  0.47787269575E+02  0.19999993301E+02 0.  0.
         12    1    1    2    0    0 -0.24433001586E+02 -0.92212453932E+01 -0.34664397706E+02  0.43400730425E+02  0.00000000000E+00 0. -1.
         11    1    3    3    0    0  0.10690795665E+02  0.53511901918E+01  0.68864796163E+01  0.13796809420E+02  0.51100000000E-03 0. -1.
        -11    1    3    3    0    0  0.59356661825E+01 -0.10838935907E+01  0.16212912555E+01  0.62478431432E+01  0.51100000000E-03 0.  1.
         12    1    3    3    0    0  0.78065397386E+01  0.49539487921E+01  0.26156626834E+02  0.27742617012E+02  0.00000000000E+00 0. -1.
</event>
<event>
 7    1  0.1736465E-010  0.4778727E+02  0.7816164E-02  0.1312668E+00
        -11   -1    0    0    0    0  0.00000000000E+00  0.00000000000E+00  0.45593999997E+02  0.45594000000E+02  0.51100000000E-03 0.  1.
         11   -1    0    0    0    0 -0.00000000000E+00 -0.00000000000E+00 -0.45593999997E+02  0.45594000000E+02  0.51100000000E-03 0. -1.
    9900012    2    1    2    0    0  0.12908835842E+02  0.60194286721E+01  0.40996972539E+02  0.47787270493E+02  0.19999997487E+02 0.  0.
         12    1    1    2    0    0 -0.12908835842E+02 -0.60194286721E+01 -0.40996972539E+02  0.43400729507E+02  0.00000000000E+00 0. -1.
         11    1    3    3    0    0 -0.40167670783E+00  0.87508453971E+00  0.19969986009E+01  0.22170071724E+01  0.51100000000E-03 0. -1.
        -11    1    3    3    0    0  0.17646160664E+02  0.11612583638E+01  0.29374452325E+02  0.34286935658E+02  0.51100000000E-03 0.  1.
        -12    1    3    3    0    0 -0.43356481143E+01  0.39830857686E+01  0.96255216134E+01  0.11283327663E+02  0.00000000000E+00 0.  1.
</event>
<event>
 7    1  0.1736465E-010  0.4778728E+02  0.7816164E-02  0.1312668E+00
        -11   -1    0    0    0    0  0.00000000000E+00  0.00000000000E+00  0.45593999997E+02  0.45594000000E+02  0.51100000000E-03 0. -1.
         11   -1    0    0    0    0 -0.00000000000E+00 -0.00000000000E+00 -0.45593999997E+02  0.45594000000E+02  0.51100000000E-03 0.  1.
    9900012    2    1    2    0    0  0.39253253409E+02  0.91296057877E+01 -0.16107592788E+02  0.47787283987E+02  0.20000059009E+02 0.  0.
         12    1    1    2    0    0 -0.39253253409E+02 -0.91296057877E+01  0.16107592788E+02  0.43400716013E+02  0.00000000000E+00 0. -1.
         11    1    3    3    0    0  0.20299137649E+02 -0.54926938505E+00 -0.10527541203E+02  0.22873255348E+02  0.51100000000E-03 0.  1.
        -11    1    3    3    0    0  0.26065716201E+01 -0.96496622367E+00  0.25579040040E+01  0.37773335276E+01  0.51100000000E-03 0. -1.
         12    1    3    3    0    0  0.16347544140E+02  0.10643841396E+02 -0.81379555886E+01  0.21136695112E+02  0.00000000000E+00 0. -1.
</event>
<event>
 7    1  0.1736465E-010  0.4778726E+02  0.7816164E-02  0.1312668E+00
        -11   -1    0    0    0    0  0.00000000000E+00  0.00000000000E+00  0.45593999997E+02  0.45594000000E+02  0.51100000000E-03 0.  1.
         11   -1    0    0    0    0 -0.00000000000E+00 -0.00000000000E+00 -0.45593999997E+02  0.45594000000E+02  0.51100000000E-03 0. -1.
    9900012    2    1    2    0    0 -0.20706354976E+02 -0.22831088130E+02  0.30555077341E+02  0.47787257231E+02  0.19999937020E+02 0.  0.
         12    1    1    2    0    0  0.20706354976E+02  0.22831088130E+02 -0.30555077341E+02  0.43400742769E+02  0.00000000000E+00 0. -1.
         11    1    3    3    0    0 -0.38349775220E+01 -0.11666867513E+02  0.28577825252E+01  0.12609114616E+02  0.51100000000E-03 0. -1.
        -11    1    3    3    0    0 -0.75998629901E+01 -0.58811170174E+00  0.98561366890E+01  0.12459824378E+02  0.51100000000E-03 0.  1.
        -12    1    3    3    0    0 -0.92715144639E+01 -0.10576108915E+02  0.17841158127E+02  0.22718318237E+02  0.00000000000E+00 0.  1.
</event>
<event>
 7    1  0.1736465E-010  0.4778727E+02  0.7816164E-02  0.1312668E+00
        -11   -1    0    0    0    0  0.00000000000E+00  0.00000000000E+00  0.45593999997E+02  0.45594000000E+02  0.51100000000E-03 0. -1.
         11   -1    0    0    0    0 -0.00000000000E+00 -0.00000000000E+00 -0.45593999997E+02  0.45594000000E+02  0.51100000000E-03 0.  1.
    9900012    2    1    2    0    0 -0.38996041222E+02  0.19032196380E+02  0.84142403889E+00  0.47787265853E+02  0.19999976332E+02 0.  0.
         12    1    1    2    0    0  0.38996041222E+02 -0.19032196380E+02 -0.84142403889E+00  0.43400734147E+02  0.00000000000E+00 0. -1.
         11    1    3    3    0    0 -0.17486389366E+01 -0.78052348900E+00 -0.17616018142E+01  0.26019600805E+01  0.51100000000E-03 0. -1.
        -11    1    3    3    0    0 -0.37835975343E+00 -0.20064148901E+01  0.10957407056E+01  0.23172191888E+01  0.51100000000E-03 0.  1.
        -12    1    3    3    0    0 -0.36869042532E+02  0.21819134759E+02  0.15072851475E+01  0.42868086584E+02  0.00000000000E+00 0.  1.
</event>
<event>
 7    1  0.1736465E-010  0.4778727E+02  0.7816164E-02  0.1312668E+00
        -11   -1    0    0    0    0  0.00000000000E+00  0.00000000000E+00  0.45593999997E+02  0.45594000000E+02  0.51100000000E-03 0.  1.
         11   -1    0    0    0    0 -0.00000000000E+00 -0.00000000000E+00 -0.45593999997E+02  0.45594000000E+02  0.51100000000E-03 0. -1.
    9900012    2    1    2    0    0 -0.34507762156E+02  0.23167868561E+02  0.12493490879E+02  0.47787273082E+02  0.20000009289E+02 0.  0.
         12    1    1    2    0    0  0.34507762156E+02 -0.23167868561E+02 -0.12493490879E+02  0.43400726918E+02  0.00000000000E+00 0. -1.
         11    1    3    3    0    0 -0.23534257399E+02  0.22002513431E+02  0.28211391159E+01  0.32340851794E+02  0.51100000000E-03 0. -1.
        -11    1    3    3    0    0 -0.79373361090E+01  0.23132512279E+01  0.47050671650E+01  0.95126280827E+01  0.51100000000E-03 0.  1.
         12    1    3    3    0    0 -0.30361686480E+01 -0.11478960984E+01  0.49672845986E+01  0.59337932046E+01  0.00000000000E+00 0. -1.
</event>
<event>
 7    1  0.1736465E-010  0.4778727E+02  0.7816164E-02  0.1312668E+00
        -11   -1    0    0    0    0  0.00000000000E+00  0.00000000000E+00  0.45593999997E+02  0.45594000000E+02  0.51100000000E-03 0.  1.
         11   -1    0    0    0    0 -0.00000000000E+00 -0.00000000000E+00 -0.45593999997E+02  0.45594000000E+02  0.51100000000E-03 0. -1.
    9900012    2    1    2    0    0 -0.24595927870E+02 -0.69600995420E+01  0.35074500639E+02  0.47787271337E+02  0.20000001334E+02 0.  0.
         12    1    1    2    0    0  0.24595927870E+02  0.69600995420E+01 -0.35074500639E+02  0.43400728663E+02  0.00000000000E+00 0. -1.
         11    1    3    3    0    0  0.21280969145E+01 -0.22976079333E+01  0.46487916073E+00  0.31660561567E+01  0.51100000000E-03 0. -1.
        -11    1    3    3    0    0 -0.13347440472E+02  0.10552571825E+00  0.12155524047E+02  0.18053311827E+02  0.51100000000E-03 0.  1.
        -12    1    3    3    0    0 -0.13376584313E+02 -0.47680173270E+01  0.22454097432E+02  0.26567903353E+02  0.00000000000E+00 0.  1.
</event>
<event>
 7    1  0.1736465E-010  0.4778728E+02  0.7816164E-02  0.1312668E+00
        -11   -1    0    0    0    0  0.00000000000E+00  0.00000000000E+00  0.45593999997E+02  0.45594000000E+02  0.51100000000E-03 0. -1.
         11   -1    0    0    0    0 -0.00000000000E+00 -0.00000000000E+00 -0.45593999997E+02  0.45594000000E+02  0.51100000000E-03 0.  1.
    9900012    2    1    2    0    0 -0.36391616584E+02  0.16844064652E+02 -0.16599713567E+02  0.47787276941E+02  0.20000026883E+02 0.  0.
         12    1    1    2    0    0  0.36391616584E+02 -0.16844064652E+02  0.16599713567E+02  0.43400723059E+02  0.00000000000E+00 0. -1.
         11    1    3    3    0    0 -0.26520906210E+02  0.18501468901E+02 -0.16259407715E+02  0.36194352560E+02  0.51100000000E-03 0. -1.
        -11    1    3    3    0    0  0.22183332777E+00 -0.99759886676E+00 -0.10356188115E+01  0.14549639542E+01  0.51100000000E-03 0.  1.
         12    1    3    3    0    0 -0.10092543701E+02 -0.65980538264E+00  0.69531295953E+00  0.10137960427E+02  0.00000000000E+00 0. -1.
</event>
<event>
 7    1  0.1736465E-010  0.4778728E+02  0.7816164E-02  0.1312668E+00
        -11   -1    0    0    0    0  0.00000000000E+00  0.00000000000E+00  0.45593999997E+02  0.45594000000E+02  0.51100000000E-03 0. -1.
         11   -1    0    0    0    0 -0.00000000000E+00 -0.00000000000E+00 -0.45593999997E+02  0.45594000000E+02  0.51100000000E-03 0.  1.
    9900012    2    1    2    0    0  0.18091510444E+02  0.37558426892E+02  0.12069959691E+02  0.47787284480E+02  0.20000061258E+02 0.  0.
         12    1    1    2    0    0 -0.18091510444E+02 -0.37558426892E+02 -0.12069959691E+02  0.43400715520E+02  0.00000000000E+00 0. -1.
         11    1    3    3    0    0  0.54598862282E+01  0.15774865376E+02  0.64032799609E+01  0.17879002482E+02  0.51100000000E-03 0. -1.
        -11    1    3    3    0    0 -0.13588021637E+01 -0.91384063651E+00 -0.15828893677E+01  0.22774957827E+01  0.51100000000E-03 0.  1.
        -12    1    3    3    0    0  0.13990426379E+02  0.22697402152E+02  0.72495690981E+01  0.27630786215E+02  0.00000000000E+00 0.  1.
</event>
<event>
 7    1  0.1736465E-010  0.4778727E+02  0.7816164E-02  0.1312668E+00
        -11   -1    0    0    0    0  0.00000000000E+00  0.00000000000E+00  0.45593999997E+02  0.45594000000E+02  0.51100000000E-03 0. -1.
         11   -1    0    0    0    0 -0.00000000000E+00 -0.00000000000E+00 -0.45593999997E+02  0.45594000000E+02  0.51100000000E-03 0.  1.
    9900012    2    1    2    0    0 -0.30774805140E+02  0.29672980949E+02  0.74865845886E+01  0.47787269838E+02  0.19999994497E+02 0.  0.
         12    1    1    2    0    0  0.30774805140E+02 -0.29672980949E+02 -0.74865845886E+01  0.43400730162E+02  0.00000000000E+00 0. -1.
         11    1    3    3    0    0 -0.18269648870E+02  0.71686870662E+01  0.24453318310E+01  0.19777507227E+02  0.51100000000E-03 0. -1.
        -11    1    3    3    0    0 -0.13004647150E+02  0.18505767988E+02  0.15383700039E+01  0.22670484752E+02  0.51100000000E-03 0.  1.
        -12    1    3    3    0    0  0.49949088003E+00  0.39985258949E+01  0.35028827538E+01  0.53392778593E+01  0.00000000000E+00 0.  1.
</event>
<event>
 7    1  0.1736465E-010  0.4778727E+02  0.7816164E-02  0.1312668E+00
        -11   -1    0    0    0    0  0.00000000000E+00  0.00000000000E+00  0.45593999997E+02  0.45594000000E+02  0.51100000000E-03 0. -1.
         11   -1    0    0    0    0 -0.00000000000E+00 -0.00000000000E+00 -0.45593999997E+02  0.45594000000E+02  0.51100000000E-03 0.  1.
    9900012    2    1    2    0    0 -0.20905319927E+02  0.37941145305E+02 -0.26572268196E+01  0.47787265413E+02  0.19999974324E+02 0.  0.
         12    1    1    2    0    0  0.20905319927E+02 -0.37941145305E+02  0.26572268196E+01  0.43400734587E+02  0.00000000000E+00 0. -1.
         11    1    3    3    0    0 -0.25988053915E+00  0.20373357510E+01 -0.19497927135E+00  0.20630782908E+01  0.51100000000E-03 0. -1.
        -11    1    3    3    0    0  0.20309956914E+01  0.91020389949E+00  0.29288534870E+01  0.36785319961E+01  0.51100000000E-03 0.  1.
        -12    1    3    3    0    0 -0.22676435079E+02  0.34993605655E+02 -0.53911010352E+01  0.42045655126E+02  0.00000000000E+00 0.  1.
</event>
<event>
 7    1  0.1736465E-010  0.4778727E+02  0.7816164E-02  0.1312668E+00
        -11   -1    0    0    0    0  0.00000000000E+00  0.00000000000E+00  0.45593999997E+02  0.45594000000E+02  0.51100000000E-03 0.  1.
         11   -1    0    0    0    0 -0.00000000000E+00 -0.00000000000E+00 -0.45593999997E+02  0.45594000000E+02  0.51100000000E-03 0. -1.
    9900012    2    1    2    0    0  0.14009793730E+02 -0.40945663875E+02  0.32865765551E+01  0.47787270790E+02  0.19999998839E+02 0.  0.
         12    1    1    2    0    0 -0.14009793730E+02  0.40945663875E+02 -0.32865765551E+01  0.43400729210E+02  0.00000000000E+00 0. -1.
         11    1    3    3    0    0  0.78698879199E+01 -0.11466435680E+02 -0.53628743654E+01  0.14905525982E+02  0.51100000000E-03 0. -1.
        -11    1    3    3    0    0  0.63923059570E+01 -0.23212210405E+02  0.26834288919E+01  0.24225380868E+02  0.51100000000E-03 0.  1.
         12    1    3    3    0    0 -0.25240014668E+00 -0.62670177908E+01  0.59660220286E+01  0.86563639404E+01  0.00000000000E+00 0. -1.
</event>
<event>
 7    1  0.1736465E-010  0.4778727E+02  0.7816164E-02  0.1312668E+00
        -11   -1    0    0    0    0  0.00000000000E+00  0.00000000000E+00  0.45593999997E+02  0.45594000000E+02  0.51100000000E-03 0. -1.
         11   -1    0    0    0    0 -0.00000000000E+00 -0.00000000000E+00 -0.45593999997E+02  0.45594000000E+02  0.51100000000E-03 0.  1.
    9900012    2    1    2    0    0 -0.23761102082E+02  0.35385725229E+02  0.81782455059E+01  0.47787271645E+02  0.20000002739E+02 0.  0.
         12    1    1    2    0    0  0.23761102082E+02 -0.35385725229E+02 -0.81782455059E+01  0.43400728355E+02  0.00000000000E+00 0. -1.
         11    1    3    3    0    0  0.18654617880E+01  0.98247210549E+00  0.16260076083E+01  0.26625364080E+01  0.51100000000E-03 0. -1.
        -11    1    3    3    0    0 -0.14731033401E+02  0.10010960852E+02  0.10001781176E+01  0.17838807101E+02  0.51100000000E-03 0.  1.
         12    1    3    3    0    0 -0.10895530469E+02  0.24392292272E+02  0.55520597801E+01  0.27285928136E+02  0.00000000000E+00 0. -1.
</event>
<event>
 7    1  0.1736465E-010  0.4778727E+02  0.7816164E-02  0.1312668E+00
        -11   -1    0    0    0    0  0.00000000000E+00  0.00000000000E+00  0.45593999997E+02  0.45594000000E+02  0.51100000000E-03 0.  1.
         11   -1    0    0    0    0 -0.00000000000E+00 -0.00000000000E+00 -0.45593999997E+02  0.45594000000E+02  0.51100000000E-03 0. -1.
    9900012    2    1    2    0    0  0.12298222603E+02  0.35063819699E+02  0.22425553189E+02  0.47787272276E+02  0.20000005616E+02 0.  0.
         12    1    1    2    0    0 -0.12298222603E+02 -0.35063819699E+02 -0.22425553189E+02  0.43400727724E+02  0.00000000000E+00 0. -1.
         11    1    3    3    0    0  0.93323718781E+01  0.16838940424E+02  0.13643230676E+02  0.23596203572E+02  0.51100000000E-03 0. -1.
        -11    1    3    3    0    0 -0.17529921127E+01  0.16645498558E+02  0.93675625111E+01  0.19180636884E+02  0.51100000000E-03 0.  1.
         12    1    3    3    0    0  0.47188428376E+01  0.15793807168E+01 -0.58523999726E+00  0.50104318206E+01  0.00000000000E+00 0. -1.
</event>
<event>
 7    1  0.1736465E-010  0.4778727E+02  0.7816164E-02  0.1312668E+00
        -11   -1    0    0    0    0  0.00000000000E+00  0.00000000000E+00  0.45593999997E+02  0.45594000000E+02  0.51100000000E-03 0. -1.
         11   -1    0    0    0    0 -0.00000000000E+00 -0.00000000000E+00 -0.45593999997E+02  0.45594000000E+02  0.51100000000E-03 0.  1.
    9900012    2    1    2    0    0 -0.21557053226E+01  0.23389039330E+02 -0.36495603375E+02  0.47787270837E+02  0.19999999053E+02 0.  0.
         12    1    1    2    0    0  0.21557053226E+01 -0.23389039330E+02  0.36495603375E+02  0.43400729163E+02  0.00000000000E+00 0. -1.
         11    1    3    3    0    0 -0.13783357688E+01  0.16344713613E+02 -0.15524601665E+02  0.22584568398E+02  0.51100000000E-03 0. -1.
        -11    1    3    3    0    0 -0.18565433631E+01  0.80054254340E+01 -0.21962856310E+02  0.23449960494E+02  0.51100000000E-03 0.  1.
        -12    1    3    3    0    0  0.10791738093E+01 -0.96109971657E+00  0.99185460055E+00  0.17527419446E+01  0.00000000000E+00 0.  1.
</event>
<event>
 7    1  0.1736465E-010  0.4778727E+02  0.7816164E-02  0.1312668E+00
        -11   -1    0    0    0    0  0.00000000000E+00  0.00000000000E+00  0.45593999997E+02  0.45594000000E+02  0.51100000000E-03 0. -1.
         11   -1    0    0    0    0 -0.00000000000E+00 -0.00000000000E+00 -0.45593999997E+02  0.45594000000E+02  0.51100000000E-03 0.  1.
    9900012    2    1    2    0    0  0.16549445505E+02  0.46571614750E+01 -0.39850346737E+02  0.47787269193E+02  0.19999991558E+02 0.  0.
         12    1    1    2    0    0 -0.16549445505E+02 -0.46571614750E+01  0.39850346737E+02  0.43400730807E+02  0.00000000000E+00 0. -1.
         11    1    3    3    0    0 -0.10399894202E+01 -0.31444636280E+01 -0.30832534808E+01  0.45250062751E+01  0.51100000000E-03 0. -1.
        -11    1    3    3    0    0  0.12013085009E+02  0.37610876026E+01 -0.33201167600E+02  0.35507429105E+02  0.51100000000E-03 0.  1.
         12    1    3    3    0    0  0.55763499159E+01  0.40405375005E+01 -0.35659256570E+01  0.77548338131E+01  0.00000000000E+00 0. -1.
</event>
<event>
 7    1  0.1736465E-010  0.4778728E+02  0.7816164E-02  0.1312668E+00
        -11   -1    0    0    0    0  0.00000000000E+00  0.00000000000E+00  0.45593999997E+02  0.45594000000E+02  0.51100000000E-03 0. -1.
         11   -1    0    0    0    0 -0.00000000000E+00 -0.00000000000E+00 -0.45593999997E+02  0.45594000000E+02  0.51100000000E-03 0.  1.
    9900012    2    1    2    0    0 -0.30767325396E+02  0.10599347660E+02 -0.28716691049E+02  0.47787276185E+02  0.20000023438E+02 0.  0.
         12    1    1    2    0    0  0.30767325396E+02 -0.10599347660E+02  0.28716691049E+02  0.43400723815E+02  0.00000000000E+00 0. -1.
         11    1    3    3    0    0 -0.65780529649E+01  0.64133630768E+01 -0.17362064894E+01  0.93496748606E+01  0.51100000000E-03 0. -1.
        -11    1    3    3    0    0 -0.19338600122E+02  0.82522331816E+01 -0.21372535925E+02  0.29981095698E+02  0.51100000000E-03 0.  1.
         12    1    3    3    0    0 -0.48506723097E+01 -0.40662485980E+01 -0.56079486348E+01  0.84565056263E+01  0.00000000000E+00 0. -1.
</event>
<event>
 7    1  0.1736465E-010  0.4778725E+02  0.7816164E-02  0.1312668E+00
        -11   -1    0    0    0    0  0.00000000000E+00  0.00000000000E+00  0.45593999997E+02  0.45594000000E+02  0.51100000000E-03 0.  1.
         11   -1    0    0    0    0 -0.00000000000E+00 -0.00000000000E+00 -0.45593999997E+02  0.45594000000E+02  0.51100000000E-03 0. -1.
    9900012    2    1    2    0    0 -0.91706131985E+01 -0.11922364443E+02  0.40710954909E+02  0.47787253808E+02  0.19999921414E+02 0.  0.
         12    1    1    2    0    0  0.91706131985E+01  0.11922364443E+02 -0.40710954909E+02  0.43400746192E+02  0.00000000000E+00 0. -1.
         11    1    3    3    0    0 -0.23122061873E+01 -0.37410257755E+01  0.19184941874E+01  0.47981445907E+01  0.51100000000E-03 0. -1.
        -11    1    3    3    0    0 -0.21894675691E+01  0.59063581690E+00  0.28826232844E+02  0.28915295591E+02  0.51100000000E-03 0.  1.
         12    1    3    3    0    0 -0.46689394421E+01 -0.87719744847E+01  0.99662278779E+01  0.14073813626E+02  0.00000000000E+00 0. -1.
</event>
<event>
 7    1  0.1736465E-010  0.4778727E+02  0.7816164E-02  0.1312668E+00
        -11   -1    0    0    0    0  0.00000000000E+00  0.00000000000E+00  0.45593999997E+02  0.45594000000E+02  0.51100000000E-03 0.  1.
         11   -1    0    0    0    0 -0.00000000000E+00 -0.00000000000E+00 -0.45593999997E+02  0.45594000000E+02  0.51100000000E-03 0. -1.
    9900012    2    1    2    0    0  0.37133985544E+02 -0.16218591290E+01  0.22406695215E+02  0.47787270745E+02  0.19999998634E+02 0.  0.
         12    1    1    2    0    0 -0.37133985544E+02  0.16218591290E+01 -0.22406695215E+02  0.43400729255E+02  0.00000000000E+00 0. -1.
         11    1    3    3    0    0  0.53246053606E+01  0.39427036342E+01 -0.24027626495E+01  0.70476664793E+01  0.51100000000E-03 0. -1.
        -11    1    3    3    0    0  0.10585738398E+02 -0.17085373863E+01  0.89238920094E+01  0.13950369396E+02  0.51100000000E-03 0.  1.
         12    1    3    3    0    0  0.21223641786E+02 -0.38560253769E+01  0.15885565855E+02  0.26789234870E+02  0.00000000000E+00 0. -1.
</event>
<event>
 7    1  0.1736465E-010  0.4778727E+02  0.7816164E-02  0.1312668E+00
        -11   -1    0    0    0    0  0.00000000000E+00  0.00000000000E+00  0.45593999997E+02  0.45594000000E+02  0.51100000000E-03 0.  1.
         11   -1    0    0    0    0 -0.00000000000E+00 -0.00000000000E+00 -0.45593999997E+02  0.45594000000E+02  0.51100000000E-03 0. -1.
    9900012    2    1    2    0    0  0.71127986780E+01 -0.38056158005E+02  0.19615309604E+02  0.47787269154E+02  0.19999991381E+02 0.  0.
         12    1    1    2    0    0 -0.71127986780E+01  0.38056158005E+02 -0.19615309604E+02  0.43400730846E+02  0.00000000000E+00 0. -1.
         11    1    3    3    0    0 -0.20916937250E+01 -0.11485205387E+02  0.54310204562E+01  0.12875601301E+02  0.51100000000E-03 0. -1.
        -11    1    3    3    0    0  0.40893599565E+01 -0.13163547677E+02  0.15207935289E+02  0.20525183271E+02  0.51100000000E-03 0.  1.
        -12    1    3    3    0    0  0.51151324465E+01 -0.13407404941E+02 -0.10236461413E+01  0.14386484581E+02  0.00000000000E+00 0.  1.
</event>
<event>
 7    1  0.1736465E-010  0.4778727E+02  0.7816164E-02  0.1312668E+00
        -11   -1    0    0    0    0  0.00000000000E+00  0.00000000000E+00  0.45593999997E+02  0.45594000000E+02  0.51100000000E-03 0.  1.
         11   -1    0    0    0    0 -0.00000000000E+00 -0.00000000000E+00 -0.45593999997E+02  0.45594000000E+02  0.51100000000E-03 0. -1.
    9900012    2    1    2    0    0 -0.18897011278E+02 -0.18657112311E+02  0.34328392789E+02  0.47787269287E+02  0.19999991985E+02 0.  0.
         12    1    1    2    0    0  0.18897011278E+02  0.18657112311E+02 -0.34328392789E+02  0.43400730713E+02  0.00000000000E+00 0. -1.
         11    1    3    3    0    0 -0.12420275713E+01 -0.64689509415E+01  0.69102627150E+01  0.95468156902E+01  0.51100000000E-03 0. -1.
        -11    1    3    3    0    0 -0.18925837202E+02 -0.10094516526E+02  0.28410089480E+02  0.35598030314E+02  0.51100000000E-03 0.  1.
         12    1    3    3    0    0  0.12708534958E+01 -0.20936448437E+01 -0.99195940660E+00  0.26424232825E+01  0.00000000000E+00 0. -1.
</event>
<event>
 7    1  0.1736465E-010  0.4778727E+02  0.7816164E-02  0.1312668E+00
        -11   -1    0    0    0    0  0.00000000000E+00  0.00000000000E+00  0.45593999997E+02  0.45594000000E+02  0.51100000000E-03 0.  1.
         11   -1    0    0    0    0 -0.00000000000E+00 -0.00000000000E+00 -0.45593999997E+02  0.45594000000E+02  0.51100000000E-03 0. -1.
    9900012    2    1    2    0    0  0.35870356052E+02  0.23100580114E+02 -0.79563825016E+01  0.47787271119E+02  0.20000000339E+02 0.  0.
         12    1    1    2    0    0 -0.35870356052E+02 -0.23100580114E+02  0.79563825016E+01  0.43400728881E+02  0.00000000000E+00 0. -1.
         11    1    3    3    0    0 -0.91389139273E+00 -0.77811596439E+00  0.58268515206E+00  0.13342354287E+01  0.51100000000E-03 0. -1.
        -11    1    3    3    0    0  0.16345988398E+02  0.14236767351E+02  0.14928229796E+01  0.21727986608E+02  0.51100000000E-03 0.  1.
        -12    1    3    3    0    0  0.20438259047E+02  0.96419287278E+01 -0.10031890633E+02  0.24725049082E+02  0.00000000000E+00 0.  1.
</event>
<event>
 7    1  0.1736465E-010  0.4778727E+02  0.7816164E-02  0.1312668E+00
        -11   -1    0    0    0    0  0.00000000000E+00  0.00000000000E+00  0.45593999997E+02  0.45594000000E+02  0.51100000000E-03 0. -1.
         11   -1    0    0    0    0 -0.00000000000E+00 -0.00000000000E+00 -0.45593999997E+02  0.45594000000E+02  0.51100000000E-03 0.  1.
    9900012    2    1    2    0    0 -0.40534556692E+02 -0.15320607360E+02 -0.24190701023E+01  0.47787271938E+02  0.20000004076E+02 0.  0.
         12    1    1    2    0    0  0.40534556692E+02  0.15320607360E+02  0.24190701023E+01  0.43400728062E+02  0.00000000000E+00 0. -1.
         11    1    3    3    0    0 -0.13652920347E+02  0.15760723581E+01 -0.59895931167E+01  0.14992046693E+02  0.51100000000E-03 0. -1.
        -11    1    3    3    0    0 -0.79047989874E+01 -0.91663751741E+01  0.10404951806E+01  0.12148699986E+02  0.51100000000E-03 0.  1.
        -12    1    3    3    0    0 -0.18976837358E+02 -0.77303045438E+01  0.25300278338E+01  0.20646525260E+02  0.00000000000E+00 0.  1.
</event>
<event>
 7    1  0.1736465E-010  0.4778727E+02  0.7816164E-02  0.1312668E+00
        -11   -1    0    0    0    0  0.00000000000E+00  0.00000000000E+00  0.45593999997E+02  0.45594000000E+02  0.51100000000E-03 0.  1.
         11   -1    0    0    0    0 -0.00000000000E+00 -0.00000000000E+00 -0.45593999997E+02  0.45594000000E+02  0.51100000000E-03 0. -1.
    9900012    2    1    2    0    0  0.14993021339E+02 -0.40295938753E+02 -0.59219785630E+01  0.47787271907E+02  0.20000003934E+02 0.  0.
         12    1    1    2    0    0 -0.14993021339E+02  0.40295938753E+02  0.59219785630E+01  0.43400728093E+02  0.00000000000E+00 0. -1.
         11    1    3    3    0    0  0.26609761882E+01 -0.12218854260E+02  0.43303807444E+01  0.13233797314E+02  0.51100000000E-03 0.  1.
        -11    1    3    3    0    0  0.10447788606E+02 -0.89987718309E+01 -0.34796748151E+01  0.14221192576E+02  0.51100000000E-03 0. -1.
         12    1    3    3    0    0  0.18842565453E+01 -0.19078312663E+02 -0.67726844923E+01  0.20332282017E+02  0.00000000000E+00 0. -1.
</event>
<event>
 7    1  0.1736465E-010  0.4778728E+02  0.7816164E-02  0.1312668E+00
        -11   -1    0    0    0    0  0.00000000000E+00  0.00000000000E+00  0.45593999997E+02  0.45594000000E+02  0.51100000000E-03 0.  1.
         11   -1    0    0    0    0 -0.00000000000E+00 -0.00000000000E+00 -0.45593999997E+02  0.45594000000E+02  0.51100000000E-03 0. -1.
    9900012    2    1    2    0    0 -0.33730511646E+02  0.22594407626E+02  0.15341715641E+02  0.47787275229E+02  0.20000019078E+02 0.  0.
         12    1    1    2    0    0  0.33730511646E+02 -0.22594407626E+02 -0.15341715641E+02  0.43400724771E+02  0.00000000000E+00 0. -1.
         11    1    3    3    0    0 -0.11423484153E+02  0.56703403249E+01 -0.15163614608E+01  0.12843212291E+02  0.51100000000E-03 0. -1.
        -11    1    3    3    0    0 -0.22840517701E+02  0.16798428164E+02  0.13252466773E+02  0.31297033621E+02  0.51100000000E-03 0.  1.
         12    1    3    3    0    0  0.53349020861E+00  0.12563913697E+00  0.36056103294E+01  0.36470293175E+01  0.00000000000E+00 0. -1.
</event>
<event>
 7    1  0.1736465E-010  0.4778727E+02  0.7816164E-02  0.1312668E+00
        -11   -1    0    0    0    0  0.00000000000E+00  0.00000000000E+00  0.45593999997E+02  0.45594000000E+02  0.51100000000E-03 0.  1.
         11   -1    0    0    0    0 -0.00000000000E+00 -0.00000000000E+00 -0.45593999997E+02  0.45594000000E+02  0.51100000000E-03 0. -1.
    9900012    2    1    2    0    0  0.19658541500E+02  0.20252259258E+02  0.32969852307E+02  0.47787269359E+02  0.19999992317E+02 0.  0.
         12    1    1    2    0    0 -0.19658541500E+02 -0.20252259258E+02 -0.32969852307E+02  0.43400730641E+02  0.00000000000E+00 0. -1.
         11    1    3    3    0    0  0.80657258458E+01 -0.10121338173E+00  0.12870943381E+02  0.15189712353E+02  0.51100000000E-03 0. -1.
        -11    1    3    3    0    0  0.11762621398E+00  0.74805191546E+01  0.10402374235E+02  0.12813328714E+02  0.51100000000E-03 0.  1.
         12    1    3    3    0    0  0.11475189440E+02  0.12872953485E+02  0.96965346911E+01  0.19784228293E+02  0.00000000000E+00 0. -1.
</event>
<event>
 7    1  0.1736465E-010  0.4778728E+02  0.7816164E-02  0.1312668E+00
        -11   -1    0    0    0    0  0.00000000000E+00  0.00000000000E+00  0.45593999997E+02  0.45594000000E+02  0.51100000000E-03 0. -1.
         11   -1    0    0    0    0 -0.00000000000E+00 -0.00000000000E+00 -0.45593999997E+02  0.45594000000E+02  0.51100000000E-03 0.  1.
    9900012    2    1    2    0    0 -0.14377025211E+01  0.38459393006E+02  0.20060677955E+02  0.47787277668E+02  0.20000030200E+02 0.  0.
         12    1    1    2    0    0  0.14377025211E+01 -0.38459393006E+02 -0.20060677955E+02  0.43400722332E+02  0.00000000000E+00 0. -1.
         11    1    3    3    0    0 -0.45693974153E+01  0.33712220875E+01  0.83141160476E+01  0.10068220151E+02  0.51100000000E-03 0. -1.
        -11    1    3    3    0    0  0.21179091061E+01  0.15717745452E+02  0.19216684572E+01  0.15975790152E+02  0.51100000000E-03 0.  1.
        -12    1    3    3    0    0  0.10137857881E+01  0.19370425466E+02  0.98248934503E+01  0.21743267364E+02  0.00000000000E+00 0.  1.
</event>
<event>
 7    1  0.1736465E-010  0.4778727E+02  0.7816164E-02  0.1312668E+00
        -11   -1    0    0    0    0  0.00000000000E+00  0.00000000000E+00  0.45593999997E+02  0.45594000000E+02  0.51100000000E-03 0.  1.
         11   -1    0    0    0    0 -0.00000000000E+00 -0.00000000000E+00 -0.45593999997E+02  0.45594000000E+02  0.51100000000E-03 0. -1.
    9900012    2    1    2    0    0  0.32338727635E+02 -0.12348589492E+02  0.26179039983E+02  0.47787273025E+02  0.20000009032E+02 0.  0.
         12    1    1    2    0    0 -0.32338727635E+02  0.12348589492E+02 -0.26179039983E+02  0.43400726975E+02  0.00000000000E+00 0. -1.
         11    1    3    3    0    0  0.16014248922E+01 -0.23716105064E+01  0.73973127050E+01  0.79315404302E+01  0.51100000000E-03 0. -1.
        -11    1    3    3    0    0  0.29165430248E+02 -0.12577964016E+02  0.18608504553E+02  0.36811736475E+02  0.51100000000E-03 0.  1.
        -12    1    3    3    0    0  0.15718724948E+01  0.26009850304E+01  0.17322272462E+00  0.30439961203E+01  0.00000000000E+00 0.  1.
</event>
<event>
 7    1  0.1736465E-010  0.4778727E+02  0.7816164E-02  0.1312668E+00
        -11   -1    0    0    0    0  0.00000000000E+00  0.00000000000E+00  0.45593999997E+02  0.45594000000E+02  0.51100000000E-03 0.  1.
         11   -1    0    0    0    0 -0.00000000000E+00 -0.00000000000E+00 -0.45593999997E+02  0.45594000000E+02  0.51100000000E-03 0. -1.
    9900012    2    1    2    0    0  0.30252594277E+01 -0.47148949907E+00  0.43292594920E+02  0.47787271067E+02  0.20000000105E+02 0.  0.
         12    1    1    2    0    0 -0.30252594277E+01  0.47148949907E+00 -0.43292594920E+02  0.43400728933E+02  0.00000000000E+00 0. -1.
         11    1    3    3    0    0  0.54541645196E+01 -0.12643835199E+01  0.14082258229E+02  0.15154424218E+02  0.51100000000E-03 0. -1.
        -11    1    3    3    0    0  0.10176093584E+01 -0.27782551947E+01  0.27064581586E+02  0.27225829784E+02  0.51100000000E-03 0.  1.
         12    1    3    3    0    0 -0.34465144503E+01  0.35711492155E+01  0.21457551052E+01  0.54070170655E+01  0.00000000000E+00 0. -1.
</event>
<event>
 7    1  0.1736465E-010  0.4778727E+02  0.7816164E-02  0.1312668E+00
        -11   -1    0    0    0    0  0.00000000000E+00  0.00000000000E+00  0.45593999997E+02  0.45594000000E+02  0.51100000000E-03 0.  1.
         11   -1    0    0    0    0 -0.00000000000E+00 -0.00000000000E+00 -0.45593999997E+02  0.45594000000E+02  0.51100000000E-03 0. -1.
    9900012    2    1    2    0    0  0.41417926149E+02 -0.11593014841E+02  0.58121067233E+01  0.47787272078E+02  0.20000004711E+02 0.  0.
         12    1    1    2    0    0 -0.41417926149E+02  0.11593014841E+02 -0.58121067233E+01  0.43400727922E+02  0.00000000000E+00 0. -1.
         11    1    3    3    0    0  0.29870135357E+02 -0.14301398590E+02  0.91014759530E+01  0.34345186747E+02  0.51100000000E-03 0. -1.
        -11    1    3    3    0    0  0.98683179642E+01  0.22944932407E+00 -0.15871424428E+01  0.99977681424E+01  0.51100000000E-03 0.  1.
         12    1    3    3    0    0  0.16794728278E+01  0.24789344244E+01 -0.17022267869E+01  0.34443171884E+01  0.00000000000E+00 0. -1.
</event>
<event>
 7    1  0.1736465E-010  0.4778730E+02  0.7816164E-02  0.1312668E+00
        -11   -1    0    0    0    0  0.00000000000E+00  0.00000000000E+00  0.45593999997E+02  0.45594000000E+02  0.51100000000E-03 0.  1.
         11   -1    0    0    0    0 -0.00000000000E+00 -0.00000000000E+00 -0.45593999997E+02  0.45594000000E+02  0.51100000000E-03 0. -1.
    9900012    2    1    2    0    0  0.22944029389E+02  0.59933454251E+00  0.36835219490E+02  0.47787296304E+02  0.20000115167E+02 0.  0.
         12    1    1    2    0    0 -0.22944029389E+02 -0.59933454251E+00 -0.36835219490E+02  0.43400703696E+02  0.00000000000E+00 0. -1.
         11    1    3    3    0    0 -0.36968885073E+00 -0.18960268055E+01  0.25407196302E+00  0.19483686297E+01  0.51100000000E-03 0. -1.
        -11    1    3    3    0    0  0.19462188417E+02 -0.25359308520E+01  0.33422177905E+02  0.38758866075E+02  0.51100000000E-03 0.  1.
         12    1    3    3    0    0  0.38515298220E+01  0.50312922000E+01  0.31589696217E+01  0.70800615988E+01  0.00000000000E+00 0. -1.
</event>
<event>
 7    1  0.1736465E-010  0.4778727E+02  0.7816164E-02  0.1312668E+00
        -11   -1    0    0    0    0  0.00000000000E+00  0.00000000000E+00  0.45593999997E+02  0.45594000000E+02  0.51100000000E-03 0. -1.
         11   -1    0    0    0    0 -0.00000000000E+00 -0.00000000000E+00 -0.45593999997E+02  0.45594000000E+02  0.51100000000E-03 0.  1.
    9900012    2    1    2    0    0 -0.40360672426E+01 -0.42674498090E+02 -0.67985562098E+01  0.47787274285E+02  0.20000014776E+02 0.  0.
         12    1    1    2    0    0  0.40360672426E+01  0.42674498090E+02  0.67985562098E+01  0.43400725715E+02  0.00000000000E+00 0. -1.
         11    1    3    3    0    0  0.68715996565E+00 -0.21718072928E+02  0.99291947791E+00  0.21751615340E+02  0.51100000000E-03 0. -1.
        -11    1    3    3    0    0 -0.88757668801E+01 -0.16511471321E+02 -0.55080676161E+01  0.19538340053E+02  0.51100000000E-03 0.  1.
         12    1    3    3    0    0  0.41525396719E+01 -0.44449538410E+01 -0.22834080717E+01  0.64973188930E+01  0.00000000000E+00 0. -1.
</event>
<event>
 7    1  0.1736465E-010  0.4778727E+02  0.7816164E-02  0.1312668E+00
        -11   -1    0    0    0    0  0.00000000000E+00  0.00000000000E+00  0.45593999997E+02  0.45594000000E+02  0.51100000000E-03 0.  1.
         11   -1    0    0    0    0 -0.00000000000E+00 -0.00000000000E+00 -0.45593999997E+02  0.45594000000E+02  0.51100000000E-03 0. -1.
    9900012    2    1    2    0    0 -0.51010419843E+01  0.18478636544E+02  0.38937678321E+02  0.47787269235E+02  0.19999991752E+02 0.  0.
         12    1    1    2    0    0  0.51010419843E+01 -0.18478636544E+02 -0.38937678321E+02  0.43400730765E+02  0.00000000000E+00 0. -1.
         11    1    3    3    0    0  0.65135659896E-02  0.57720979574E+01  0.11387362194E+01  0.58833559891E+01  0.51100000000E-03 0. -1.
        -11    1    3    3    0    0  0.23166251600E+01  0.58099798870E+00  0.13834988510E+02  0.14039630270E+02  0.51100000000E-03 0.  1.
        -12    1    3    3    0    0 -0.74241807103E+01  0.12125540598E+02  0.23963953592E+02  0.27864282976E+02  0.00000000000E+00 0.  1.
</event>
<event>
 7    1  0.1736465E-010  0.4778727E+02  0.7816164E-02  0.1312668E+00
        -11   -1    0    0    0    0  0.00000000000E+00  0.00000000000E+00  0.45593999997E+02  0.45594000000E+02  0.51100000000E-03 0.  1.
         11   -1    0    0    0    0 -0.00000000000E+00 -0.00000000000E+00 -0.45593999997E+02  0.45594000000E+02  0.51100000000E-03 0. -1.
    9900012    2    1    2    0    0 -0.16419063098E+01 -0.11398708647E+02  0.41844916517E+02  0.47787268975E+02  0.19999990567E+02 0.  0.
         12    1    1    2    0    0  0.16419063098E+01  0.11398708647E+02 -0.41844916517E+02  0.43400731025E+02  0.00000000000E+00 0. -1.
         11    1    3    3    0    0 -0.33412417814E+00  0.25763271251E+01  0.35152347967E+01  0.43710383616E+01  0.51100000000E-03 0. -1.
        -11    1    3    3    0    0 -0.34699262832E+01 -0.13701456484E+02  0.38704840233E+02  0.41204792876E+02  0.51100000000E-03 0.  1.
         12    1    3    3    0    0  0.21621441515E+01 -0.27357928852E+00 -0.37515851306E+00  0.22114377380E+01  0.00000000000E+00 0. -1.
</event>
<event>
 7    1  0.1736465E-010  0.4778727E+02  0.7816164E-02  0.1312668E+00
        -11   -1    0    0    0    0  0.00000000000E+00  0.00000000000E+00  0.45593999997E+02  0.45594000000E+02  0.51100000000E-03 0.  1.
         11   -1    0    0    0    0 -0.00000000000E+00 -0.00000000000E+00 -0.45593999997E+02  0.45594000000E+02  0.51100000000E-03 0. -1.
    9900012    2    1    2    0    0  0.39944128740E+02  0.14601685193E+02 -0.86533703178E+01  0.47787269025E+02  0.19999990793E+02 0.  0.
         12    1    1    2    0    0 -0.39944128740E+02 -0.14601685193E+02  0.86533703178E+01  0.43400730975E+02  0.00000000000E+00 0. -1.
         11    1    3    3    0    0  0.23246853182E+02  0.73298199754E+01 -0.86484473380E+01  0.25863837406E+02  0.51100000000E-03 0. -1.
        -11    1    3    3    0    0  0.16593288689E+02  0.55011148013E+01  0.36522011920E+01  0.17858837235E+02  0.51100000000E-03 0.  1.
        -12    1    3    3    0    0  0.10398686984E+00  0.17707504159E+01 -0.36571241718E+01  0.40645943848E+01  0.00000000000E+00 0.  1.
</event>
<event>
 7    1  0.1736465E-010  0.4778727E+02  0.7816164E-02  0.1312668E+00
        -11   -1    0    0    0    0  0.00000000000E+00  0.00000000000E+00  0.45593999997E+02  0.45594000000E+02  0.51100000000E-03 0.  1.
         11   -1    0    0    0    0 -0.00000000000E+00 -0.00000000000E+00 -0.45593999997E+02  0.45594000000E+02  0.51100000000E-03 0. -1.
    9900012    2    1    2    0    0  0.11516314563E+02  0.29122043456E+02  0.30048369471E+02  0.47787269315E+02  0.19999992114E+02 0.  0.
         12    1    1    2    0    0 -0.11516314563E+02 -0.29122043456E+02 -0.30048369471E+02  0.43400730685E+02  0.00000000000E+00 0. -1.
         11    1    3    3    0    0  0.18067926283E+01  0.17586165156E+02  0.19416046946E+02  0.26258723956E+02  0.51100000000E-03 0.  1.
        -11    1    3    3    0    0  0.50105803076E+01  0.19658659227E+01  0.93523503134E+01  0.10790597782E+02  0.51100000000E-03 0. -1.
         12    1    3    3    0    0  0.46989416269E+01  0.95700123769E+01  0.12799722113E+01  0.10737947577E+02  0.00000000000E+00 0. -1.
</event>
<event>
 7    1  0.1736465E-010  0.4778726E+02  0.7816164E-02  0.1312668E+00
        -11   -1    0    0    0    0  0.00000000000E+00  0.00000000000E+00  0.45593999997E+02  0.45594000000E+02  0.51100000000E-03 0.  1.
         11   -1    0    0    0    0 -0.00000000000E+00 -0.00000000000E+00 -0.45593999997E+02  0.45594000000E+02  0.51100000000E-03 0. -1.
    9900012    2    1    2    0    0  0.17388213206E+02  0.22979771754E+02  0.32453109923E+02  0.47787260236E+02  0.19999950721E+02 0.  0.
         12    1    1    2    0    0 -0.17388213206E+02 -0.22979771754E+02 -0.32453109923E+02  0.43400739764E+02  0.00000000000E+00 0. -1.
         11    1    3    3    0    0 -0.66603542887E+00  0.52599893566E-01  0.53930843206E-01  0.67028258092E+00  0.51100000000E-03 0. -1.
        -11    1    3    3    0    0  0.17910552045E+02  0.18259487021E+02  0.33664420066E+02  0.42278717098E+02  0.51100000000E-03 0.  1.
        -12    1    3    3    0    0  0.14369658982E+00  0.46676848393E+01 -0.12652409856E+01  0.48382605573E+01  0.00000000000E+00 0.  1.
</event>
<event>
 7    1  0.1736465E-010  0.4778727E+02  0.7816164E-02  0.1312668E+00
        -11   -1    0    0    0    0  0.00000000000E+00  0.00000000000E+00  0.45593999997E+02  0.45594000000E+02  0.51100000000E-03 0.  1.
         11   -1    0    0    0    0 -0.00000000000E+00 -0.00000000000E+00 -0.45593999997E+02  0.45594000000E+02  0.51100000000E-03 0. -1.
    9900012    2    1    2    0    0 -0.39406813135E+02  0.10407924665E+02  0.14913137518E+02  0.47787268579E+02  0.19999988760E+02 0.  0.
         12    1    1    2    0    0  0.39406813135E+02 -0.10407924665E+02 -0.14913137518E+02  0.43400731421E+02  0.00000000000E+00 0. -1.
         11    1    3    3    0    0 -0.64072604648E+01 -0.52900389374E+01  0.27530218921E+01  0.87530925062E+01  0.51100000000E-03 0. -1.
        -11    1    3    3    0    0 -0.85601413771E+01  0.56517674802E+01  0.85340664659E+00  0.10293046158E+02  0.51100000000E-03 0.  1.
         12    1    3    3    0    0 -0.24439411293E+02  0.10046196122E+02  0.11306708979E+02  0.28741129915E+02  0.00000000000E+00 0. -1.
</event>
<event>
 7    1  0.1736465E-010  0.4778727E+02  0.7816164E-02  0.1312668E+00
        -11   -1    0    0    0    0  0.00000000000E+00  0.00000000000E+00  0.45593999997E+02  0.45594000000E+02  0.51100000000E-03 0. -1.
         11   -1    0    0    0    0 -0.00000000000E+00 -0.00000000000E+00 -0.45593999997E+02  0.45594000000E+02  0.51100000000E-03 0.  1.
    9900012    2    1    2    0    0 -0.40451242405E+02 -0.50451289913E+01 -0.14895201848E+02  0.47787269859E+02  0.19999994597E+02 0.  0.
         12    1    1    2    0    0  0.40451242405E+02  0.50451289913E+01  0.14895201848E+02  0.43400730141E+02  0.00000000000E+00 0. -1.
         11    1    3    3    0    0 -0.34492223308E+01 -0.46542217815E+01 -0.17196937305E+01  0.60428686786E+01  0.51100000000E-03 0.  1.
        -11    1    3    3    0    0 -0.10823800173E+02  0.42381547464E+01 -0.92845690555E+01  0.14876821859E+02  0.51100000000E-03 0. -1.
         12    1    3    3    0    0 -0.26178219902E+02 -0.46290619562E+01 -0.38909390619E+01  0.26867579321E+02  0.00000000000E+00 0. -1.
</event>
<event>
 7    1  0.1736465E-010  0.4778727E+02  0.7816164E-02  0.1312668E+00
        -11   -1    0    0    0    0  0.00000000000E+00  0.00000000000E+00  0.45593999997E+02  0.45594000000E+02  0.51100000000E-03 0.  1.
         11   -1    0    0    0    0 -0.00000000000E+00 -0.00000000000E+00 -0.45593999997E+02  0.45594000000E+02  0.51100000000E-03 0. -1.
    9900012    2    1    2    0    0 -0.41803235849E+02 -0.11156584501E+02  0.34122679529E+01  0.47787268696E+02  0.19999989292E+02 0.  0.
         12    1    1    2    0    0  0.41803235849E+02  0.11156584501E+02 -0.34122679529E+01  0.43400731304E+02  0.00000000000E+00 0. -1.
         11    1    3    3    0    0 -0.17353460332E+02 -0.10191716576E+02  0.59876974962E+01  0.20996813897E+02  0.51100000000E-03 0. -1.
        -11    1    3    3    0    0 -0.23089595255E+02 -0.23961172965E+01  0.40289135705E+00  0.23217086571E+02  0.51100000000E-03 0.  1.
         12    1    3    3    0    0 -0.13601802618E+01  0.14312493711E+01 -0.29783209004E+01  0.35733682279E+01  0.00000000000E+00 0. -1.
</event>
<event>
 7    1  0.1736465E-010  0.4778727E+02  0.7816164E-02  0.1312668E+00
        -11   -1    0    0    0    0  0.00000000000E+00  0.00000000000E+00  0.45593999997E+02  0.45594000000E+02  0.51100000000E-03 0. -1.
         11   -1    0    0    0    0 -0.00000000000E+00 -0.00000000000E+00 -0.45593999997E+02  0.45594000000E+02  0.51100000000E-03 0.  1.
    9900012    2    1    2    0    0  0.25347335779E+01 -0.48654054778E+01 -0.43052598830E+02  0.47787270620E+02  0.19999998063E+02 0.  0.
         12    1    1    2    0    0 -0.25347335779E+01  0.48654054778E+01  0.43052598830E+02  0.43400729380E+02  0.00000000000E+00 0. -1.
         11    1    3    3    0    0  0.20409697737E+01 -0.31020786971E+01 -0.13875262785E+00  0.37158716895E+01  0.51100000000E-03 0. -1.
        -11    1    3    3    0    0 -0.22860453603E+01 -0.51538517930E+01 -0.25200570433E+02  0.25823573380E+02  0.51100000000E-03 0.  1.
        -12    1    3    3    0    0  0.27798091645E+01  0.33905250123E+01 -0.17713275769E+02  0.18247825550E+02  0.00000000000E+00 0.  1.
</event>
<event>
 7    1  0.1736465E-010  0.4778727E+02  0.7816164E-02  0.1312668E+00
        -11   -1    0    0    0    0  0.00000000000E+00  0.00000000000E+00  0.45593999997E+02  0.45594000000E+02  0.51100000000E-03 0. -1.
         11   -1    0    0    0    0 -0.00000000000E+00 -0.00000000000E+00 -0.45593999997E+02  0.45594000000E+02  0.51100000000E-03 0.  1.
    9900012    2    1    2    0    0  0.31843344908E+02  0.66483544593E+00 -0.29481906368E+02  0.47787269313E+02  0.19999992106E+02 0.  0.
         12    1    1    2    0    0 -0.31843344908E+02 -0.66483544593E+00  0.29481906368E+02  0.43400730687E+02  0.00000000000E+00 0. -1.
         11    1    3    3    0    0  0.38206891046E+01 -0.24450900358E+01 -0.19654504944E+01  0.49435944842E+01  0.51100000000E-03 0. -1.
        -11    1    3    3    0    0  0.23978090828E+02 -0.29662221089E+01 -0.25797434835E+02  0.35344800999E+02  0.51100000000E-03 0.  1.
         12    1    3    3    0    0  0.40445649750E+01  0.60761475907E+01 -0.17190210385E+01  0.74988738296E+01  0.00000000000E+00 0. -1.
</event>
<event>
 7    1  0.1736465E-010  0.4778728E+02  0.7816164E-02  0.1312668E+00
        -11   -1    0    0    0    0  0.00000000000E+00  0.00000000000E+00  0.45593999997E+02  0.45594000000E+02  0.51100000000E-03 0. -1.
         11   -1    0    0    0    0 -0.00000000000E+00 -0.00000000000E+00 -0.45593999997E+02  0.45594000000E+02  0.51100000000E-03 0.  1.
    9900012    2    1    2    0    0  0.13230547530E+02 -0.64740131941E+01 -0.40824777988E+02  0.47787277281E+02  0.20000028435E+02 0.  0.
         12    1    1    2    0    0 -0.13230547530E+02  0.64740131941E+01  0.40824777988E+02  0.43400722719E+02  0.00000000000E+00 0. -1.
         11    1    3    3    0    0  0.35365433894E+01 -0.51315497570E+01 -0.12509711449E+02  0.13976151933E+02  0.51100000000E-03 0. -1.
        -11    1    3    3    0    0  0.40640556887E+01  0.48215822569E+01 -0.26813585284E+01  0.68522907061E+01  0.51100000000E-03 0.  1.
        -12    1    3    3    0    0  0.56299484515E+01 -0.61640456940E+01 -0.25633708010E+02  0.26958834642E+02  0.00000000000E+00 0.  1.
</event>
<event>
 7    1  0.1736465E-010  0.4778727E+02  0.7816164E-02  0.1312668E+00
        -11   -1    0    0    0    0  0.00000000000E+00  0.00000000000E+00  0.45593999997E+02  0.45594000000E+02  0.51100000000E-03 0.  1.
         11   -1    0    0    0    0 -0.00000000000E+00 -0.00000000000E+00 -0.45593999997E+02  0.45594000000E+02  0.51100000000E-03 0. -1.
    9900012    2    1    2    0    0  0.10657548076E+02 -0.17252490295E+02  0.38371757455E+02  0.47787268179E+02  0.19999986937E+02 0.  0.
         12    1    1    2    0    0 -0.10657548076E+02  0.17252490295E+02 -0.38371757455E+02  0.43400731821E+02  0.00000000000E+00 0. -1.
         11    1    3    3    0    0  0.53546125029E+00 -0.98105354549E+01  0.21990411620E+02  0.24085504523E+02  0.51100000000E-03 0. -1.
        -11    1    3    3    0    0 -0.17734641067E+01 -0.25700246887E+01  0.73672015136E+01  0.80016161019E+01  0.51100000000E-03 0.  1.
         12    1    3    3    0    0  0.11895550932E+02 -0.48719301509E+01  0.90141443222E+01  0.15700147555E+02  0.00000000000E+00 0. -1.
</event>
<event>
 7    1  0.1736465E-010  0.4778727E+02  0.7816164E-02  0.1312668E+00
        -11   -1    0    0    0    0  0.00000000000E+00  0.00000000000E+00  0.45593999997E+02  0.45594000000E+02  0.51100000000E-03 0.  1.
         11   -1    0    0    0    0 -0.00000000000E+00 -0.00000000000E+00 -0.45593999997E+02  0.45594000000E+02  0.51100000000E-03 0. -1.
    9900012    2    1    2    0    0  0.90726785856E+01 -0.16351401572E+02  0.39165564184E+02  0.47787271343E+02  0.20000001362E+02 0.  0.
         12    1    1    2    0    0 -0.90726785856E+01  0.16351401572E+02 -0.39165564184E+02  0.43400728657E+02  0.00000000000E+00 0. -1.
         11    1    3    3    0    0  0.67841337547E+01 -0.71768549821E+01  0.91306865064E+01  0.13449949984E+02  0.51100000000E-03 0.  1.
        -11    1    3    3    0    0 -0.35149611368E+01  0.20004306315E+01  0.69240355078E+01  0.80186621377E+01  0.51100000000E-03 0. -1.
         12    1    3    3    0    0  0.58035059677E+01 -0.11174977221E+02  0.23110842170E+02  0.26318659221E+02  0.00000000000E+00 0. -1.
</event>
<event>
 7    1  0.1736465E-010  0.4778727E+02  0.7816164E-02  0.1312668E+00
        -11   -1    0    0    0    0  0.00000000000E+00  0.00000000000E+00  0.45593999997E+02  0.45594000000E+02  0.51100000000E-03 0.  1.
         11   -1    0    0    0    0 -0.00000000000E+00 -0.00000000000E+00 -0.45593999997E+02  0.45594000000E+02  0.51100000000E-03 0. -1.
    9900012    2    1    2    0    0 -0.28643313506E+02  0.99177802621E+01  0.31061576330E+02  0.47787270766E+02  0.19999998731E+02 0.  0.
         12    1    1    2    0    0  0.28643313506E+02 -0.99177802621E+01 -0.31061576330E+02  0.43400729234E+02  0.00000000000E+00 0. -1.
         11    1    3    3    0    0 -0.85573961407E+00 -0.41262984712E+01  0.64378137345E+01  0.76944184512E+01  0.51100000000E-03 0. -1.
        -11    1    3    3    0    0 -0.14222367786E+02  0.43597556177E+01  0.13185407067E+02  0.19878082761E+02  0.51100000000E-03 0.  1.
         12    1    3    3    0    0 -0.13565206106E+02  0.96843231157E+01  0.11438355528E+02  0.20214769554E+02  0.00000000000E+00 0. -1.
</event>
<event>
 7    1  0.1736465E-010  0.4778727E+02  0.7816164E-02  0.1312668E+00
        -11   -1    0    0    0    0  0.00000000000E+00  0.00000000000E+00  0.45593999997E+02  0.45594000000E+02  0.51100000000E-03 0. -1.
         11   -1    0    0    0    0 -0.00000000000E+00 -0.00000000000E+00 -0.45593999997E+02  0.45594000000E+02  0.51100000000E-03 0.  1.
    9900012    2    1    2    0    0 -0.21767605255E+02  0.17872124879E+02 -0.33020927744E+02  0.47787272411E+02  0.20000006231E+02 0.  0.
         12    1    1    2    0    0  0.21767605255E+02 -0.17872124879E+02  0.33020927744E+02  0.43400727589E+02  0.00000000000E+00 0. -1.
         11    1    3    3    0    0 -0.30970976873E+01  0.53342249048E+01 -0.15036947954E+02  0.16252869699E+02  0.51100000000E-03 0. -1.
        -11    1    3    3    0    0 -0.98358051640E+01  0.13809745663E+02 -0.11139742372E+02  0.20286596533E+02  0.51100000000E-03 0.  1.
         12    1    3    3    0    0 -0.88347024036E+01 -0.12718456895E+01 -0.68442374181E+01  0.11247806180E+02  0.00000000000E+00 0. -1.
</event>
<event>
 7    1  0.1736465E-010  0.4778732E+02  0.7816164E-02  0.1312668E+00
        -11   -1    0    0    0    0  0.00000000000E+00  0.00000000000E+00  0.45593999997E+02  0.45594000000E+02  0.51100000000E-03 0. -1.
         11   -1    0    0    0    0 -0.00000000000E+00 -0.00000000000E+00 -0.45593999997E+02  0.45594000000E+02  0.51100000000E-03 0.  1.
    9900012    2    1    2    0    0  0.32959539474E+02  0.64847325697E+01 -0.27481556859E+02  0.47787320671E+02  0.20000226265E+02 0.  0.
         12    1    1    2    0    0 -0.32959539474E+02 -0.64847325697E+01  0.27481556859E+02  0.43400679329E+02  0.00000000000E+00 0. -1.
         11    1    3    3    0    0  0.16097097847E+02 -0.19188811190E+01 -0.17425573045E+02  0.23800194538E+02  0.51100000000E-03 0. -1.
        -11    1    3    3    0    0  0.18102532560E+02  0.72957352542E+01 -0.74400740801E+01  0.20887415842E+02  0.51100000000E-03 0.  1.
         12    1    3    3    0    0 -0.12400909332E+01  0.11078784344E+01 -0.26159097338E+01  0.30997102902E+01  0.00000000000E+00 0. -1.
</event>
<event>
 7    1  0.1736465E-010  0.4778727E+02  0.7816164E-02  0.1312668E+00
        -11   -1    0    0    0    0  0.00000000000E+00  0.00000000000E+00  0.45593999997E+02  0.45594000000E+02  0.51100000000E-03 0.  1.
         11   -1    0    0    0    0 -0.00000000000E+00 -0.00000000000E+00 -0.45593999997E+02  0.45594000000E+02  0.51100000000E-03 0. -1.
    9900012    2    1    2    0    0 -0.17654007415E+02 -0.39630266311E+02  0.11837218426E+01  0.47787272091E+02  0.20000004770E+02 0.  0.
         12    1    1    2    0    0  0.17654007415E+02  0.39630266311E+02 -0.11837218426E+01  0.43400727909E+02  0.00000000000E+00 0. -1.
         11    1    3    3    0    0 -0.61478970679E+01 -0.26288420497E+02  0.39218454923E+01  0.27281102670E+02  0.51100000000E-03 0. -1.
        -11    1    3    3    0    0  0.12945467690E+01  0.55593288562E+00  0.34225099530E-01  0.14092850417E+01  0.51100000000E-03 0.  1.
        -12    1    3    3    0    0 -0.12800657116E+02 -0.13897778699E+02 -0.27723487492E+01  0.19096884379E+02  0.00000000000E+00 0.  1.
</event>
<event>
 7    1  0.1736465E-010  0.4778727E+02  0.7816164E-02  0.1312668E+00
        -11   -1    0    0    0    0  0.00000000000E+00  0.00000000000E+00  0.45593999997E+02  0.45594000000E+02  0.51100000000E-03 0. -1.
         11   -1    0    0    0    0 -0.00000000000E+00 -0.00000000000E+00 -0.45593999997E+02  0.45594000000E+02  0.51100000000E-03 0.  1.
    9900012    2    1    2    0    0 -0.22369886709E+02  0.15518626825E+02  0.33799162951E+02  0.47787273899E+02  0.20000013017E+02 0.  0.
         12    1    1    2    0    0  0.22369886709E+02 -0.15518626825E+02 -0.33799162951E+02  0.43400726101E+02  0.00000000000E+00 0. -1.
         11    1    3    3    0    0 -0.97818035269E+01  0.10240998303E+02  0.65727167024E+01  0.15612889918E+02  0.51100000000E-03 0.  1.
        -11    1    3    3    0    0 -0.13021267962E+02  0.28476540401E+01  0.16724341765E+02  0.21386120747E+02  0.51100000000E-03 0. -1.
         12    1    3    3    0    0  0.43318478041E+00  0.24299744820E+01  0.10502104483E+02  0.10788263234E+02  0.00000000000E+00 0. -1.
</event>
<event>
 7    1  0.1736465E-010  0.4778727E+02  0.7816164E-02  0.1312668E+00
        -11   -1    0    0    0    0  0.00000000000E+00  0.00000000000E+00  0.45593999997E+02  0.45594000000E+02  0.51100000000E-03 0.  1.
         11   -1    0    0    0    0 -0.00000000000E+00 -0.00000000000E+00 -0.45593999997E+02  0.45594000000E+02  0.51100000000E-03 0. -1.
    9900012    2    1    2    0    0 -0.36173029767E+02 -0.61525365310E+01  0.23179338208E+02  0.47787268346E+02  0.19999987699E+02 0.  0.
         12    1    1    2    0    0  0.36173029767E+02  0.61525365310E+01 -0.23179338208E+02  0.43400731654E+02  0.00000000000E+00 0. -1.
         11    1    3    3    0    0 -0.12753475493E+02  0.98587694850E+00  0.11804709169E+02  0.17406155502E+02  0.51100000000E-03 0. -1.
        -11    1    3    3    0    0 -0.21910106217E+02 -0.47517837698E+01  0.14076987590E+02  0.26472509955E+02  0.51100000000E-03 0.  1.
        -12    1    3    3    0    0 -0.15094480572E+01 -0.23866297097E+01 -0.27023585518E+01  0.39086028899E+01  0.00000000000E+00 0.  1.
</event>
<event>
 7    1  0.1736465E-010  0.4778727E+02  0.7816164E-02  0.1312668E+00
        -11   -1    0    0    0    0  0.00000000000E+00  0.00000000000E+00  0.45593999997E+02  0.45594000000E+02  0.51100000000E-03 0.  1.
         11   -1    0    0    0    0 -0.00000000000E+00 -0.00000000000E+00 -0.45593999997E+02  0.45594000000E+02  0.51100000000E-03 0. -1.
    9900012    2    1    2    0    0 -0.72089568013E+01  0.34059476893E+02  0.25915367355E+02  0.47787270864E+02  0.19999999179E+02 0.  0.
         12    1    1    2    0    0  0.72089568013E+01 -0.34059476893E+02 -0.25915367355E+02  0.43400729136E+02  0.00000000000E+00 0. -1.
         11    1    3    3    0    0 -0.11534801094E+01  0.58795702889E-01 -0.18658415473E+01  0.21943878960E+01  0.51100000000E-03 0. -1.
        -11    1    3    3    0    0 -0.53573757906E+01  0.11506571969E+02  0.15226287045E+02  0.19822777083E+02  0.51100000000E-03 0.  1.
        -12    1    3    3    0    0 -0.69810090131E+00  0.22494109221E+02  0.12554921857E+02  0.25770105885E+02  0.00000000000E+00 0.  1.
</event>
<event>
 7    1  0.1736465E-010  0.4778727E+02  0.7816164E-02  0.1312668E+00
        -11   -1    0    0    0    0  0.00000000000E+00  0.00000000000E+00  0.45593999997E+02  0.45594000000E+02  0.51100000000E-03 0.  1.
         11   -1    0    0    0    0 -0.00000000000E+00 -0.00000000000E+00 -0.45593999997E+02  0.45594000000E+02  0.51100000000E-03 0. -1.
    9900012    2    1    2    0    0  0.40520711384E+02 -0.13484740357E+02 -0.77367259931E+01  0.47787271864E+02  0.20000003739E+02 0.  0.
         12    1    1    2    0    0 -0.40520711384E+02  0.13484740357E+02  0.77367259931E+01  0.43400728136E+02  0.00000000000E+00 0. -1.
         11    1    3    3    0    0  0.30793133115E+02 -0.77270660617E+01 -0.86223144933E+00  0.31759534636E+02  0.51100000000E-03 0.  1.
        -11    1    3    3    0    0  0.17914987923E+00  0.56348773543E+00  0.16495181621E+01  0.17522909391E+01  0.51100000000E-03 0. -1.
        -12    1    3    3    0    0  0.95484283898E+01 -0.63211620312E+01 -0.85240127058E+01  0.14275446289E+02  0.00000000000E+00 0.  1.
</event>
<event>
 7    1  0.1736465E-010  0.4778726E+02  0.7816164E-02  0.1312668E+00
        -11   -1    0    0    0    0  0.00000000000E+00  0.00000000000E+00  0.45593999997E+02  0.45594000000E+02  0.51100000000E-03 0. -1.
         11   -1    0    0    0    0 -0.00000000000E+00 -0.00000000000E+00 -0.45593999997E+02  0.45594000000E+02  0.51100000000E-03 0.  1.
    9900012    2    1    2    0    0  0.32769670698E+01 -0.15518110097E+02 -0.40398934393E+02  0.47787260903E+02  0.19999953759E+02 0.  0.
         12    1    1    2    0    0 -0.32769670698E+01  0.15518110097E+02  0.40398934393E+02  0.43400739097E+02  0.00000000000E+00 0. -1.
         11    1    3    3    0    0 -0.30109668211E+01 -0.27994097426E+01 -0.15050466079E+02  0.15601895576E+02  0.51100000000E-03 0. -1.
        -11    1    3    3    0    0 -0.16935135695E+01  0.10338183394E+01  0.30122281210E+00  0.20068642238E+01  0.51100000000E-03 0.  1.
        -12    1    3    3    0    0  0.79814474604E+01 -0.13752518693E+02 -0.25649691126E+02  0.30178501103E+02  0.00000000000E+00 0.  1.
</event>
<event>
 7    1  0.1736465E-010  0.4778729E+02  0.7816164E-02  0.1312668E+00
        -11   -1    0    0    0    0  0.00000000000E+00  0.00000000000E+00  0.45593999997E+02  0.45594000000E+02  0.51100000000E-03 0.  1.
         11   -1    0    0    0    0 -0.00000000000E+00 -0.00000000000E+00 -0.45593999997E+02  0.45594000000E+02  0.51100000000E-03 0. -1.
    9900012    2    1    2    0    0  0.38969259832E+02 -0.15073369853E+02 -0.11739350763E+02  0.47787285179E+02  0.20000064446E+02 0.  0.
         12    1    1    2    0    0 -0.38969259832E+02  0.15073369853E+02  0.11739350763E+02  0.43400714821E+02  0.00000000000E+00 0. -1.
         11    1    3    3    0    0  0.15546376728E+02 -0.58946820450E+01 -0.71868949556E+01  0.18113215207E+02  0.51100000000E-03 0. -1.
        -11    1    3    3    0    0  0.97199942659E+01 -0.73363899773E+01 -0.90082997297E+01  0.15147619308E+02  0.51100000000E-03 0.  1.
        -12    1    3    3    0    0  0.13702888839E+02 -0.18422978310E+01  0.44558439224E+01  0.14526450664E+02  0.00000000000E+00 0.  1.
</event>
<event>
 7    1  0.1736465E-010  0.4778727E+02  0.7816164E-02  0.1312668E+00
        -11   -1    0    0    0    0  0.00000000000E+00  0.00000000000E+00  0.45593999997E+02  0.45594000000E+02  0.51100000000E-03 0.  1.
         11   -1    0    0    0    0 -0.00000000000E+00 -0.00000000000E+00 -0.45593999997E+02  0.45594000000E+02  0.51100000000E-03 0. -1.
    9900012    2    1    2    0    0  0.36123792080E+00  0.30556943746E+02  0.30818276335E+02  0.47787268898E+02  0.19999990213E+02 0.  0.
         12    1    1    2    0    0 -0.36123792080E+00 -0.30556943746E+02 -0.30818276335E+02  0.43400731102E+02  0.00000000000E+00 0. -1.
         11    1    3    3    0    0  0.18363347369E+01  0.68712218696E+01  0.16862147659E+02  0.18300760617E+02  0.51100000000E-03 0. -1.
        -11    1    3    3    0    0  0.26595511629E+01  0.16067500239E+01  0.35878227314E+01  0.47462964762E+01  0.51100000000E-03 0.  1.
        -12    1    3    3    0    0 -0.41346479790E+01  0.22078971852E+02  0.10368305945E+02  0.24740211805E+02  0.00000000000E+00 0.  1.
</event>
<event>
 7    1  0.1736465E-010  0.4778727E+02  0.7816164E-02  0.1312668E+00
        -11   -1    0    0    0    0  0.00000000000E+00  0.00000000000E+00  0.45593999997E+02  0.45594000000E+02  0.51100000000E-03 0.  1.
         11   -1    0    0    0    0 -0.00000000000E+00 -0.00000000000E+00 -0.45593999997E+02  0.45594000000E+02  0.51100000000E-03 0. -1.
    9900012    2    1    2    0    0  0.46756471378E+01 -0.46659192567E+01  0.42895110127E+02  0.47787274759E+02  0.20000016936E+02 0.  0.
         12    1    1    2    0    0 -0.46756471378E+01  0.46659192567E+01 -0.42895110127E+02  0.43400725241E+02  0.00000000000E+00 0. -1.
         11    1    3    3    0    0  0.76969453396E+00 -0.34802738184E+01  0.30130063203E+02  0.30340162234E+02  0.51100000000E-03 0.  1.
        -11    1    3    3    0    0  0.54781489799E+01  0.36223940986E+01  0.89987900622E+01  0.11140470282E+02  0.51100000000E-03 0. -1.
         12    1    3    3    0    0 -0.15721963761E+01 -0.48080395370E+01  0.37662568620E+01  0.63066422432E+01  0.00000000000E+00 0. -1.
</event>
<event>
 7    1  0.1736465E-010  0.4778727E+02  0.7816164E-02  0.1312668E+00
        -11   -1    0    0    0    0  0.00000000000E+00  0.00000000000E+00  0.45593999997E+02  0.45594000000E+02  0.51100000000E-03 0. -1.
         11   -1    0    0    0    0 -0.00000000000E+00 -0.00000000000E+00 -0.45593999997E+02  0.45594000000E+02  0.51100000000E-03 0.  1.
    9900012    2    1    2    0    0 -0.22851587256E+02 -0.29148926270E+02 -0.22622291092E+02  0.47787274233E+02  0.20000014539E+02 0.  0.
         12    1    1    2    0    0  0.22851587256E+02  0.29148926270E+02  0.22622291092E+02  0.43400725767E+02  0.00000000000E+00 0. -1.
         11    1    3    3    0    0 -0.21643303896E+01 -0.14445739981E+01 -0.35141314767E+01  0.43726697072E+01  0.51100000000E-03 0. -1.
        -11    1    3    3    0    0 -0.11449816328E+02 -0.68036190185E+01 -0.15237900037E+02  0.20238110670E+02  0.51100000000E-03 0.  1.
         12    1    3    3    0    0 -0.92374405380E+01 -0.20900733254E+02 -0.38702595784E+01  0.23176493856E+02  0.00000000000E+00 0. -1.
</event>
<event>
 7    1  0.1736465E-010  0.4778728E+02  0.7816164E-02  0.1312668E+00
        -11   -1    0    0    0    0  0.00000000000E+00  0.00000000000E+00  0.45593999997E+02  0.45594000000E+02  0.51100000000E-03 0.  1.
         11   -1    0    0    0    0 -0.00000000000E+00 -0.00000000000E+00 -0.45593999997E+02  0.45594000000E+02  0.51100000000E-03 0. -1.
    9900012    2    1    2    0    0  0.15444047324E+02  0.25777830809E+02  0.31314652812E+02  0.47787278350E+02  0.20000033311E+02 0.  0.
         12    1    1    2    0    0 -0.15444047324E+02 -0.25777830809E+02 -0.31314652812E+02  0.43400721650E+02  0.00000000000E+00 0. -1.
         11    1    3    3    0    0 -0.15224809684E+01  0.12654079068E+02  0.88298684012E+01  0.15505168222E+02  0.51100000000E-03 0. -1.
        -11    1    3    3    0    0  0.99191199307E+01  0.12519888297E+02  0.14039269863E+02  0.21265879754E+02  0.51100000000E-03 0.  1.
         12    1    3    3    0    0  0.70474083619E+01  0.60386344430E+00  0.84455145472E+01  0.11016230374E+02  0.00000000000E+00 0. -1.
</event>
<event>
 7    1  0.1736465E-010  0.4778728E+02  0.7816164E-02  0.1312668E+00
        -11   -1    0    0    0    0  0.00000000000E+00  0.00000000000E+00  0.45593999997E+02  0.45594000000E+02  0.51100000000E-03 0.  1.
         11   -1    0    0    0    0 -0.00000000000E+00 -0.00000000000E+00 -0.45593999997E+02  0.45594000000E+02  0.51100000000E-03 0. -1.
    9900012    2    1    2    0    0 -0.49113099974E+01  0.22441205887E+02  0.36822458167E+02  0.47787284419E+02  0.20000060978E+02 0.  0.
         12    1    1    2    0    0  0.49113099974E+01 -0.22441205887E+02 -0.36822458167E+02  0.43400715581E+02  0.00000000000E+00 0. -1.
         11    1    3    3    0    0 -0.25651121727E+00  0.51995433677E+01  0.51938366491E+01  0.73537057757E+01  0.51100000000E-03 0. -1.
        -11    1    3    3    0    0 -0.10080400573E+02  0.87604359282E+01  0.10360272403E+02  0.16902513360E+02  0.51100000000E-03 0.  1.
        -12    1    3    3    0    0  0.54256017925E+01  0.84812265910E+01  0.21268349115E+02  0.23531065283E+02  0.00000000000E+00 0.  1.
</event>
<event>
 7    1  0.1736465E-010  0.4778728E+02  0.7816164E-02  0.1312668E+00
        -11   -1    0    0    0    0  0.00000000000E+00  0.00000000000E+00  0.45593999997E+02  0.45594000000E+02  0.51100000000E-03 0.  1.
         11   -1    0    0    0    0 -0.00000000000E+00 -0.00000000000E+00 -0.45593999997E+02  0.45594000000E+02  0.51100000000E-03 0. -1.
    9900012    2    1    2    0    0 -0.27986340507E+02  0.26518874375E+02  0.19928293835E+02  0.47787275947E+02  0.20000022355E+02 0.  0.
         12    1    1    2    0    0  0.27986340507E+02 -0.26518874375E+02 -0.19928293835E+02  0.43400724053E+02  0.00000000000E+00 0. -1.
         11    1    3    3    0    0 -0.14731031687E+02  0.22842617886E+02  0.62274391906E+01  0.27884932949E+02  0.51100000000E-03 0.  1.
        -11    1    3    3    0    0 -0.54173542758E+01  0.51658227454E+00  0.28321855016E+01  0.61348072156E+01  0.51100000000E-03 0. -1.
        -12    1    3    3    0    0 -0.78379545444E+01  0.31596742144E+01  0.10868669143E+02  0.13767535783E+02  0.00000000000E+00 0.  1.
</event>
<event>
 7    1  0.1736465E-010  0.4778727E+02  0.7816164E-02  0.1312668E+00
        -11   -1    0    0    0    0  0.00000000000E+00  0.00000000000E+00  0.45593999997E+02  0.45594000000E+02  0.51100000000E-03 0. -1.
         11   -1    0    0    0    0 -0.00000000000E+00 -0.00000000000E+00 -0.45593999997E+02  0.45594000000E+02  0.51100000000E-03 0.  1.
    9900012    2    1    2    0    0  0.33865296239E+02  0.10191874610E+02  0.25157317429E+02  0.47787271692E+02  0.20000002952E+02 0.  0.
         12    1    1    2    0    0 -0.33865296239E+02 -0.10191874610E+02 -0.25157317429E+02  0.43400728308E+02  0.00000000000E+00 0. -1.
         11    1    3    3    0    0 -0.16477843690E-01 -0.13330449156E+01 -0.13954956188E-01  0.13332198875E+01  0.51100000000E-03 0. -1.
        -11    1    3    3    0    0  0.63535459579E+01  0.75493947738E+01  0.12404053193E+02  0.15849966674E+02  0.51100000000E-03 0.  1.
         12    1    3    3    0    0  0.27528228125E+02  0.39755247520E+01  0.12767219193E+02  0.30604085130E+02  0.00000000000E+00 0. -1.
</event>
<event>
 7    1  0.1736465E-010  0.4778728E+02  0.7816164E-02  0.1312668E+00
        -11   -1    0    0    0    0  0.00000000000E+00  0.00000000000E+00  0.45593999997E+02  0.45594000000E+02  0.51100000000E-03 0.  1.
         11   -1    0    0    0    0 -0.00000000000E+00 -0.00000000000E+00 -0.45593999997E+02  0.45594000000E+02  0.51100000000E-03 0. -1.
    9900012    2    1    2    0    0 -0.42767294189E+02 -0.50736889611E+01  0.53702006758E+01  0.47787276190E+02  0.20000023462E+02 0.  0.
         12    1    1    2    0    0  0.42767294189E+02  0.50736889611E+01 -0.53702006758E+01  0.43400723810E+02  0.00000000000E+00 0. -1.
         11    1    3    3    0    0 -0.11426873045E+02  0.30442586074E+01  0.64605784434E+01  0.13475162787E+02  0.51100000000E-03 0. -1.
        -11    1    3    3    0    0 -0.24429932551E+02 -0.11141875414E+01 -0.70483960665E+00  0.24465482163E+02  0.51100000000E-03 0.  1.
         12    1    3    3    0    0 -0.69104885930E+01 -0.70037600272E+01 -0.38553816097E+00  0.98466312405E+01  0.00000000000E+00 0. -1.
</event>
<event>
 7    1  0.1736465E-010  0.4778727E+02  0.7816164E-02  0.1312668E+00
        -11   -1    0    0    0    0  0.00000000000E+00  0.00000000000E+00  0.45593999997E+02  0.45594000000E+02  0.51100000000E-03 0.  1.
         11   -1    0    0    0    0 -0.00000000000E+00 -0.00000000000E+00 -0.45593999997E+02  0.45594000000E+02  0.51100000000E-03 0. -1.
    9900012    2    1    2    0    0 -0.24257532296E+02  0.16487725861E+02  0.31989848607E+02  0.47787269694E+02  0.19999993845E+02 0.  0.
         12    1    1    2    0    0  0.24257532296E+02 -0.16487725861E+02 -0.31989848607E+02  0.43400730306E+02  0.00000000000E+00 0. -1.
         11    1    3    3    0    0  0.31187207030E+01  0.56059736974E+00  0.80571134456E+00  0.32695350229E+01  0.51100000000E-03 0. -1.
        -11    1    3    3    0    0 -0.87948708171E+01  0.57486420877E+01  0.11824119886E+02  0.15817915472E+02  0.51100000000E-03 0.  1.
         12    1    3    3    0    0 -0.18581382182E+02  0.10178486404E+02  0.19360017376E+02  0.28699819199E+02  0.00000000000E+00 0. -1.
</event>
<event>
 7    1  0.1736465E-010  0.4778727E+02  0.7816164E-02  0.1312668E+00
        -11   -1    0    0    0    0  0.00000000000E+00  0.00000000000E+00  0.45593999997E+02  0.45594000000E+02  0.51100000000E-03 0.  1.
         11   -1    0    0    0    0 -0.00000000000E+00 -0.00000000000E+00 -0.45593999997E+02  0.45594000000E+02  0.51100000000E-03 0. -1.
    9900012    2    1    2    0    0 -0.15081962236E+02  0.29923608319E+02  0.27581428352E+02  0.47787272936E+02  0.20000008625E+02 0.  0.
         12    1    1    2    0    0  0.15081962236E+02 -0.29923608319E+02 -0.27581428352E+02  0.43400727064E+02  0.00000000000E+00 0. -1.
         11    1    3    3    0    0 -0.23261676512E+01  0.12811331590E+02  0.14807850243E+02  0.19718359519E+02  0.51100000000E-03 0. -1.
        -11    1    3    3    0    0 -0.99961947023E+01  0.45529165077E+01  0.10127499758E+02  0.14940522376E+02  0.51100000000E-03 0.  1.
         12    1    3    3    0    0 -0.27595998829E+01  0.12559360221E+02  0.26460783513E+01  0.13128391041E+02  0.00000000000E+00 0. -1.
</event>
<event>
 7    1  0.1736465E-010  0.4778727E+02  0.7816164E-02  0.1312668E+00
        -11   -1    0    0    0    0  0.00000000000E+00  0.00000000000E+00  0.45593999997E+02  0.45594000000E+02  0.51100000000E-03 0.  1.
         11   -1    0    0    0    0 -0.00000000000E+00 -0.00000000000E+00 -0.45593999997E+02  0.45594000000E+02  0.51100000000E-03 0. -1.
    9900012    2    1    2    0    0  0.14844160484E+02  0.35304232135E+02 -0.20417779784E+02  0.47787266844E+02  0.19999980850E+02 0.  0.
         12    1    1    2    0    0 -0.14844160484E+02 -0.35304232135E+02  0.20417779784E+02  0.43400733156E+02  0.00000000000E+00 0. -1.
         11    1    3    3    0    0  0.67904220975E+00  0.11582823201E+02 -0.10829220118E+02  0.15871197190E+02  0.51100000000E-03 0. -1.
        -11    1    3    3    0    0  0.46833764910E+01  0.15580504195E+02 -0.10536459577E+02  0.19383062375E+02  0.51100000000E-03 0.  1.
         12    1    3    3    0    0  0.94817417835E+01  0.81409047395E+01  0.94789991157E+00  0.12533007280E+02  0.00000000000E+00 0. -1.
</event>
<event>
 7    1  0.1992598E-010  0.4778727E+02  0.7816164E-02  0.1312668E+00
        -11   -1    0    0    0    0  0.00000000000E+00  0.00000000000E+00  0.45593999997E+02  0.45594000000E+02  0.51100000000E-03 0.  1.
         11   -1    0    0    0    0 -0.00000000000E+00 -0.00000000000E+00 -0.45593999997E+02  0.45594000000E+02  0.51100000000E-03 0. -1.
    9900012    2    1    2    0    0 -0.28957886770E+02  0.16658363834E+02  0.27704926268E+02  0.47787271535E+02  0.20000002235E+02 0.  0.
         12    1    1    2    0    0  0.28957886770E+02 -0.16658363834E+02 -0.27704926268E+02  0.43400728465E+02  0.00000000000E+00 0. -1.
         11    1    3    3    0    0  0.87592331368E+00 -0.16561448022E+01  0.42334257979E+00  0.19207489316E+01  0.51100000000E-03 0. -1.
        -11    1    3    3    0    0 -0.11514964260E+02  0.12559923395E+02  0.86413325911E+01  0.19105462748E+02  0.51100000000E-03 0.  1.
        -12    1    3    3    0    0 -0.18318845824E+02  0.57545852411E+01  0.18640251097E+02  0.26761059855E+02  0.00000000000E+00 0.  1.
</event>
<event>
 7    1  0.1736465E-010  0.4778725E+02  0.7816164E-02  0.1312668E+00
        -11   -1    0    0    0    0  0.00000000000E+00  0.00000000000E+00  0.45593999997E+02  0.45594000000E+02  0.51100000000E-03 0. -1.
         11   -1    0    0    0    0 -0.00000000000E+00 -0.00000000000E+00 -0.45593999997E+02  0.45594000000E+02  0.51100000000E-03 0.  1.
    9900012    2    1    2    0    0  0.35112715196E+02 -0.65720187136E+00 -0.25500786436E+02  0.47787253560E+02  0.19999920279E+02 0.  0.
         12    1    1    2    0    0 -0.35112715196E+02  0.65720187136E+00  0.25500786436E+02  0.43400746440E+02  0.00000000000E+00 0. -1.
         11    1    3    3    0    0  0.12112814970E+02  0.33652717741E+01 -0.97470519695E+01  0.15907556788E+02  0.51100000000E-03 0. -1.
        -11    1    3    3    0    0  0.10635867682E+02 -0.93168222177E+01 -0.95889948481E+01  0.17084310933E+02  0.51100000000E-03 0.  1.
         12    1    3    3    0    0  0.12364032544E+02  0.52943485722E+01 -0.61647396181E+01  0.14795385838E+02  0.00000000000E+00 0. -1.
</event>
<event>
 7    1  0.1736465E-010  0.4778723E+02  0.7816164E-02  0.1312668E+00
        -11   -1    0    0    0    0  0.00000000000E+00  0.00000000000E+00  0.45593999997E+02  0.45594000000E+02  0.51100000000E-03 0. -1.
         11   -1    0    0    0    0 -0.00000000000E+00 -0.00000000000E+00 -0.45593999997E+02  0.45594000000E+02  0.51100000000E-03 0.  1.
    9900012    2    1    2    0    0  0.43326284508E+01 -0.22316426564E+02 -0.36970694808E+02  0.47787229979E+02  0.19999812764E+02 0.  0.
         12    1    1    2    0    0 -0.43326284508E+01  0.22316426564E+02  0.36970694808E+02  0.43400770021E+02  0.00000000000E+00 0. -1.
         11    1    3    3    0    0  0.50102955264E+01 -0.25126116131E+01 -0.18163678692E+02  0.19008826957E+02  0.51100000000E-03 0. -1.
        -11    1    3    3    0    0 -0.25770734574E+01 -0.10268488490E+02 -0.14949187631E+02  0.18318334383E+02  0.51100000000E-03 0.  1.
        -12    1    3    3    0    0  0.18994063818E+01 -0.95353264604E+01 -0.38578284845E+01  0.10460068639E+02  0.00000000000E+00 0.  1.
</event>
<event>
 7    1  0.1736465E-010  0.4778726E+02  0.7816164E-02  0.1312668E+00
        -11   -1    0    0    0    0  0.00000000000E+00  0.00000000000E+00  0.45593999997E+02  0.45594000000E+02  0.51100000000E-03 0.  1.
         11   -1    0    0    0    0 -0.00000000000E+00 -0.00000000000E+00 -0.45593999997E+02  0.45594000000E+02  0.51100000000E-03 0. -1.
    9900012    2    1    2    0    0 -0.18864475427E+02  0.35722867849E+02  0.15862920289E+02  0.47787263133E+02  0.19999963929E+02 0.  0.
         12    1    1    2    0    0  0.18864475427E+02 -0.35722867849E+02 -0.15862920289E+02  0.43400736867E+02  0.00000000000E+00 0. -1.
         11    1    3    3    0    0 -0.58322393909E+01  0.42492366891E+00  0.33762050073E+00  0.58574366664E+01  0.51100000000E-03 0.  1.
        -11    1    3    3    0    0 -0.21157724401E+01  0.81255360105E+00  0.27603166641E+01  0.35715661439E+01  0.51100000000E-03 0. -1.
        -12    1    3    3    0    0 -0.10916463596E+02  0.34485390579E+02  0.12764983124E+02  0.38358260323E+02  0.00000000000E+00 0.  1.
</event>
<event>
 7    1  0.1736465E-010  0.4778726E+02  0.7816164E-02  0.1312668E+00
        -11   -1    0    0    0    0  0.00000000000E+00  0.00000000000E+00  0.45593999997E+02  0.45594000000E+02  0.51100000000E-03 0.  1.
         11   -1    0    0    0    0 -0.00000000000E+00 -0.00000000000E+00 -0.45593999997E+02  0.45594000000E+02  0.51100000000E-03 0. -1.
    9900012    2    1    2    0    0  0.38084284797E+02 -0.15374970779E+02  0.14029312147E+02  0.47787261824E+02  0.19999957959E+02 0.  0.
         12    1    1    2    0    0 -0.38084284797E+02  0.15374970779E+02 -0.14029312147E+02  0.43400738176E+02  0.00000000000E+00 0. -1.
         11    1    3    3    0    0  0.66369795904E+01 -0.72287869420E+01  0.66278927456E+01  0.11842036195E+02  0.51100000000E-03 0. -1.
        -11    1    3    3    0    0  0.16229354815E+02 -0.91282314255E+01  0.88700025932E+01  0.20625070011E+02  0.51100000000E-03 0.  1.
         12    1    3    3    0    0  0.15217950391E+02  0.98204758902E+00 -0.14685831913E+01  0.15320155618E+02  0.00000000000E+00 0. -1.
</event>
<event>
 7    1  0.1736465E-010  0.4778728E+02  0.7816164E-02  0.1312668E+00
        -11   -1    0    0    0    0  0.00000000000E+00  0.00000000000E+00  0.45593999997E+02  0.45594000000E+02  0.51100000000E-03 0.  1.
         11   -1    0    0    0    0 -0.00000000000E+00 -0.00000000000E+00 -0.45593999997E+02  0.45594000000E+02  0.51100000000E-03 0. -1.
    9900012    2    1    2    0    0  0.35119062210E+02 -0.64187477482E+01  0.24679420421E+02  0.47787278284E+02  0.20000033007E+02 0.  0.
         12    1    1    2    0    0 -0.35119062210E+02  0.64187477482E+01 -0.24679420421E+02  0.43400721716E+02  0.00000000000E+00 0. -1.
         11    1    3    3    0    0 -0.12427143788E+01 -0.38006770782E+01  0.35904720534E+01  0.53741022606E+01  0.51100000000E-03 0. -1.
        -11    1    3    3    0    0  0.22813565207E+02  0.63371368191E+00  0.14085591621E+02  0.26819102186E+02  0.51100000000E-03 0.  1.
         12    1    3    3    0    0  0.13548211381E+02 -0.32517843520E+01  0.70033567463E+01  0.15594073837E+02  0.00000000000E+00 0. -1.
</event>
<event>
 7    1  0.1736465E-010  0.4778727E+02  0.7816164E-02  0.1312668E+00
        -11   -1    0    0    0    0  0.00000000000E+00  0.00000000000E+00  0.45593999997E+02  0.45594000000E+02  0.51100000000E-03 0.  1.
         11   -1    0    0    0    0 -0.00000000000E+00 -0.00000000000E+00 -0.45593999997E+02  0.45594000000E+02  0.51100000000E-03 0. -1.
    9900012    2    1    2    0    0 -0.18092531445E+02  0.26470583982E+02  0.29250503510E+02  0.47787268831E+02  0.19999989906E+02 0.  0.
         12    1    1    2    0    0  0.18092531445E+02 -0.26470583982E+02 -0.29250503510E+02  0.43400731169E+02  0.00000000000E+00 0. -1.
         11    1    3    3    0    0  0.29844442957E+01  0.65803498557E+01  0.43952611812E+01  0.84573183155E+01  0.51100000000E-03 0. -1.
        -11    1    3    3    0    0  0.22677579447E+00  0.36717106488E+01  0.24791031555E+01  0.44360837532E+01  0.51100000000E-03 0.  1.
        -12    1    3    3    0    0 -0.21303751535E+02  0.16218523477E+02  0.22376139174E+02  0.34893866762E+02  0.00000000000E+00 0.  1.
</event>
<event>
 7    1  0.1736465E-010  0.4778727E+02  0.7816164E-02  0.1312668E+00
        -11   -1    0    0    0    0  0.00000000000E+00  0.00000000000E+00  0.45593999997E+02  0.45594000000E+02  0.51100000000E-03 0. -1.
         11   -1    0    0    0    0 -0.00000000000E+00 -0.00000000000E+00 -0.45593999997E+02  0.45594000000E+02  0.51100000000E-03 0.  1.
    9900012    2    1    2    0    0  0.30722573586E+02 -0.24921201267E+01 -0.30553820679E+02  0.47787272488E+02  0.20000006580E+02 0.  0.
         12    1    1    2    0    0 -0.30722573586E+02  0.24921201267E+01  0.30553820679E+02  0.43400727512E+02  0.00000000000E+00 0. -1.
         11    1    3    3    0    0  0.37963850865E+01 -0.24104620206E+01 -0.11884445253E+02  0.12706805504E+02  0.51100000000E-03 0. -1.
        -11    1    3    3    0    0  0.68365469235E+01 -0.22250659293E+01  0.53030075995E+00  0.72090575934E+01  0.51100000000E-03 0.  1.
        -12    1    3    3    0    0  0.20089641576E+02  0.21434078232E+01 -0.19199676187E+02  0.27871409391E+02  0.00000000000E+00 0.  1.
</event>
<event>
 7    1  0.1736465E-010  0.4778727E+02  0.7816164E-02  0.1312668E+00
        -11   -1    0    0    0    0  0.00000000000E+00  0.00000000000E+00  0.45593999997E+02  0.45594000000E+02  0.51100000000E-03 0.  1.
         11   -1    0    0    0    0 -0.00000000000E+00 -0.00000000000E+00 -0.45593999997E+02  0.45594000000E+02  0.51100000000E-03 0. -1.
    9900012    2    1    2    0    0 -0.11182786212E+02 -0.37104042339E+02  0.19541206367E+02  0.47787269457E+02  0.19999992763E+02 0.  0.
         12    1    1    2    0    0  0.11182786212E+02  0.37104042339E+02 -0.19541206367E+02  0.43400730543E+02  0.00000000000E+00 0. -1.
         11    1    3    3    0    0 -0.70695043075E+01 -0.71012838870E+01  0.57039232705E+01  0.11529998479E+02  0.51100000000E-03 0. -1.
        -11    1    3    3    0    0 -0.21320417858E+01 -0.21179582068E+02  0.20274835154E+01  0.21382960236E+02  0.51100000000E-03 0.  1.
        -12    1    3    3    0    0 -0.19812401191E+01 -0.88231763838E+01  0.11809799581E+02  0.14874310742E+02  0.00000000000E+00 0.  1.
</event>
<event>
 7    1  0.1736465E-010  0.4778727E+02  0.7816164E-02  0.1312668E+00
        -11   -1    0    0    0    0  0.00000000000E+00  0.00000000000E+00  0.45593999997E+02  0.45594000000E+02  0.51100000000E-03 0.  1.
         11   -1    0    0    0    0 -0.00000000000E+00 -0.00000000000E+00 -0.45593999997E+02  0.45594000000E+02  0.51100000000E-03 0. -1.
    9900012    2    1    2    0    0 -0.12138588029E+02  0.31773434675E+02  0.26957870351E+02  0.47787271386E+02  0.20000001556E+02 0.  0.
         12    1    1    2    0    0  0.12138588029E+02 -0.31773434675E+02 -0.26957870351E+02  0.43400728614E+02  0.00000000000E+00 0. -1.
         11    1    3    3    0    0 -0.11203837912E+02  0.10319389276E+02  0.73590656734E+01  0.16916608018E+02  0.51100000000E-03 0.  1.
        -11    1    3    3    0    0  0.26870408420E+01  0.72822574895E+01  0.20561919669E+01  0.80299058709E+01  0.51100000000E-03 0. -1.
        -12    1    3    3    0    0 -0.36217909584E+01  0.14171787909E+02  0.17542612711E+02  0.22840757496E+02  0.00000000000E+00 0.  1.
</event>
<event>
 7    1  0.2211709E-010  0.4778727E+02  0.7816164E-02  0.1312668E+00
        -11   -1    0    0    0    0  0.00000000000E+00  0.00000000000E+00  0.45593999997E+02  0.45594000000E+02  0.51100000000E-03 0.  1.
         11   -1    0    0    0    0 -0.00000000000E+00 -0.00000000000E+00 -0.45593999997E+02  0.45594000000E+02  0.51100000000E-03 0. -1.
    9900012    2    1    2    0    0  0.13470298534E+01 -0.37678505239E+02  0.21497420282E+02  0.47787270453E+02  0.19999997304E+02 0.  0.
         12    1    1    2    0    0 -0.13470298534E+01  0.37678505239E+02 -0.21497420282E+02  0.43400729547E+02  0.00000000000E+00 0. -1.
         11    1    3    3    0    0 -0.49178327118E+01 -0.28041325418E+01  0.33167385253E+01  0.65611731115E+01  0.51100000000E-03 0. -1.
        -11    1    3    3    0    0  0.25887035457E+01 -0.14359819664E+02  0.17679234595E+01  0.14698005322E+02  0.51100000000E-03 0.  1.
        -12    1    3    3    0    0  0.36761590195E+01 -0.20514553033E+02  0.16412758297E+02  0.26528092019E+02  0.00000000000E+00 0.  1.
</event>
<event>
 7    1  0.1736465E-010  0.4778727E+02  0.7816164E-02  0.1312668E+00
        -11   -1    0    0    0    0  0.00000000000E+00  0.00000000000E+00  0.45593999997E+02  0.45594000000E+02  0.51100000000E-03 0.  1.
         11   -1    0    0    0    0 -0.00000000000E+00 -0.00000000000E+00 -0.45593999997E+02  0.45594000000E+02  0.51100000000E-03 0. -1.
    9900012    2    1    2    0    0 -0.29214912433E+02 -0.22281038476E+01  0.32017924214E+02  0.47787273898E+02  0.20000013010E+02 0.  0.
         12    1    1    2    0    0  0.29214912433E+02  0.22281038476E+01 -0.32017924214E+02  0.43400726102E+02  0.00000000000E+00 0. -1.
         11    1    3    3    0    0 -0.82596475627E+00  0.41783938186E+01  0.16864630823E+01  0.45809770432E+01  0.51100000000E-03 0. -1.
        -11    1    3    3    0    0 -0.15733897679E+02 -0.13169137981E+01  0.22470934831E+02  0.27463297518E+02  0.51100000000E-03 0.  1.
        -12    1    3    3    0    0 -0.12655049997E+02 -0.50895838680E+01  0.78605263014E+01  0.15742999337E+02  0.00000000000E+00 0.  1.
</event>
<event>
 7    1  0.1736465E-010  0.4778727E+02  0.7816164E-02  0.1312668E+00
        -11   -1    0    0    0    0  0.00000000000E+00  0.00000000000E+00  0.45593999997E+02  0.45594000000E+02  0.51100000000E-03 0.  1.
         11   -1    0    0    0    0 -0.00000000000E+00 -0.00000000000E+00 -0.45593999997E+02  0.45594000000E+02  0.51100000000E-03 0. -1.
    9900012    2    1    2    0    0  0.83236748613E+01  0.10932686777E+02  0.41168143287E+02  0.47787271607E+02  0.20000002564E+02 0.  0.
         12    1    1    2    0    0 -0.83236748613E+01 -0.10932686777E+02 -0.41168143287E+02  0.43400728393E+02  0.00000000000E+00 0. -1.
         11    1    3    3    0    0  0.74412442100E+01 -0.27470948220E+01  0.98501696531E+01  0.12646916138E+02  0.51100000000E-03 0. -1.
        -11    1    3    3    0    0 -0.33946139084E+00  0.29347903248E+01  0.16687421661E+02  0.16946925097E+02  0.51100000000E-03 0.  1.
        -12    1    3    3    0    0  0.12218920421E+01  0.10744991275E+02  0.14630551972E+02  0.18193430371E+02  0.00000000000E+00 0.  1.
</event>
<event>
 7    1  0.1736465E-010  0.4778727E+02  0.7816164E-02  0.1312668E+00
        -11   -1    0    0    0    0  0.00000000000E+00  0.00000000000E+00  0.45593999997E+02  0.45594000000E+02  0.51100000000E-03 0. -1.
         11   -1    0    0    0    0 -0.00000000000E+00 -0.00000000000E+00 -0.45593999997E+02  0.45594000000E+02  0.51100000000E-03 0.  1.
    9900012    2    1    2    0    0 -0.22175955900E+02  0.28581094561E+02 -0.23978557740E+02  0.47787271692E+02  0.20000002952E+02 0.  0.
         12    1    1    2    0    0  0.22175955900E+02 -0.28581094561E+02  0.23978557740E+02  0.43400728308E+02  0.00000000000E+00 0. -1.
         11    1    3    3    0    0  0.76636883502E+00  0.88203954184E+01 -0.12565030101E+02  0.15370968682E+02  0.51100000000E-03 0.  1.
        -11    1    3    3    0    0 -0.72432747055E+01  0.69926196260E+01 -0.30430244585E+01  0.10517687760E+02  0.51100000000E-03 0. -1.
        -12    1    3    3    0    0 -0.15699050030E+02  0.12768079516E+02 -0.83705031802E+01  0.21898615250E+02  0.00000000000E+00 0.  1.
</event>
<event>
 7    1  0.1736465E-010  0.4778727E+02  0.7816164E-02  0.1312668E+00
        -11   -1    0    0    0    0  0.00000000000E+00  0.00000000000E+00  0.45593999997E+02  0.45594000000E+02  0.51100000000E-03 0.  1.
         11   -1    0    0    0    0 -0.00000000000E+00 -0.00000000000E+00 -0.45593999997E+02  0.45594000000E+02  0.51100000000E-03 0. -1.
    9900012    2    1    2    0    0 -0.42820823327E+01  0.39343015201E+02  0.17816132546E+02  0.47787266675E+02  0.19999980079E+02 0.  0.
         12    1    1    2    0    0  0.42820823327E+01 -0.39343015201E+02 -0.17816132546E+02  0.43400733325E+02  0.00000000000E+00 0. -1.
         11    1    3    3    0    0 -0.10029018470E+01  0.11793589203E+02  0.26432494079E+01  0.12127709021E+02  0.51100000000E-03 0. -1.
        -11    1    3    3    0    0  0.10493677857E+01  0.23948292335E+01  0.90376258909E+01  0.94082443533E+01  0.51100000000E-03 0.  1.
        -12    1    3    3    0    0 -0.43285482714E+01  0.25154596765E+02  0.61352572474E+01  0.26251313301E+02  0.00000000000E+00 0.  1.
</event>
<event>
 7    1  0.1736465E-010  0.4778727E+02  0.7816164E-02  0.1312668E+00
        -11   -1    0    0    0    0  0.00000000000E+00  0.00000000000E+00  0.45593999997E+02  0.45594000000E+02  0.51100000000E-03 0.  1.
         11   -1    0    0    0    0 -0.00000000000E+00 -0.00000000000E+00 -0.45593999997E+02  0.45594000000E+02  0.51100000000E-03 0. -1.
    9900012    2    1    2    0    0 -0.35830868130E+02  0.24446556366E+02  0.14622951753E+01  0.47787268022E+02  0.19999986218E+02 0.  0.
         12    1    1    2    0    0  0.35830868130E+02 -0.24446556366E+02 -0.14622951753E+01  0.43400731978E+02  0.00000000000E+00 0. -1.
         11    1    3    3    0    0 -0.16623701571E+01  0.83524743505E+01 -0.19415662135E+01  0.87348143620E+01  0.51100000000E-03 0. -1.
        -11    1    3    3    0    0 -0.19566437180E+02  0.14200704502E+02  0.18810183190E+01  0.24249612418E+02  0.51100000000E-03 0.  1.
         12    1    3    3    0    0 -0.14602060793E+02  0.18933775135E+01  0.15228430698E+01  0.14802841241E+02  0.00000000000E+00 0. -1.
</event>
<event>
 7    1  0.1736465E-010  0.4778727E+02  0.7816164E-02  0.1312668E+00
        -11   -1    0    0    0    0  0.00000000000E+00  0.00000000000E+00  0.45593999997E+02  0.45594000000E+02  0.51100000000E-03 0. -1.
         11   -1    0    0    0    0 -0.00000000000E+00 -0.00000000000E+00 -0.45593999997E+02  0.45594000000E+02  0.51100000000E-03 0.  1.
    9900012    2    1    2    0    0 -0.34105365300E+01  0.14693240534E+02 -0.40695210046E+02  0.47787271924E+02  0.20000004012E+02 0.  0.
         12    1    1    2    0    0  0.34105365300E+01 -0.14693240534E+02  0.40695210046E+02  0.43400728076E+02  0.00000000000E+00 0. -1.
         11    1    3    3    0    0 -0.49461261704E+01  0.88321201705E+01 -0.20509791035E+02  0.22871861301E+02  0.51100000000E-03 0. -1.
        -11    1    3    3    0    0 -0.17983713400E+01 -0.34813116507E+01 -0.97979084455E+01  0.10552377953E+02  0.51100000000E-03 0.  1.
         12    1    3    3    0    0  0.33339609805E+01  0.93424320142E+01 -0.10387510566E+02  0.14363032671E+02  0.00000000000E+00 0. -1.
</event>
<event>
 7    1  0.1736465E-010  0.4778727E+02  0.7816164E-02  0.1312668E+00
        -11   -1    0    0    0    0  0.00000000000E+00  0.00000000000E+00  0.45593999997E+02  0.45594000000E+02  0.51100000000E-03 0.  1.
         11   -1    0    0    0    0 -0.00000000000E+00 -0.00000000000E+00 -0.45593999997E+02  0.45594000000E+02  0.51100000000E-03 0. -1.
    9900012    2    1    2    0    0  0.12063127447E+02  0.19127108218E+02  0.37044000778E+02  0.47787270672E+02  0.19999998302E+02 0.  0.
         12    1    1    2    0    0 -0.12063127447E+02 -0.19127108218E+02 -0.37044000778E+02  0.43400729328E+02  0.00000000000E+00 0. -1.
         11    1    3    3    0    0 -0.76331842712E-01  0.11746163634E+02  0.12212136205E+02  0.16944452119E+02  0.51100000000E-03 0. -1.
        -11    1    3    3    0    0  0.10698737783E+02  0.71405464625E+01  0.25976768026E+02  0.28986943117E+02  0.51100000000E-03 0.  1.
         12    1    3    3    0    0  0.14407215065E+01  0.24039812141E+00 -0.11449034533E+01  0.18558754359E+01  0.00000000000E+00 0. -1.
</event>
<event>
 7    1  0.1736465E-010  0.4778727E+02  0.7816164E-02  0.1312668E+00
        -11   -1    0    0    0    0  0.00000000000E+00  0.00000000000E+00  0.45593999997E+02  0.45594000000E+02  0.51100000000E-03 0.  1.
         11   -1    0    0    0    0 -0.00000000000E+00 -0.00000000000E+00 -0.45593999997E+02  0.45594000000E+02  0.51100000000E-03 0. -1.
    9900012    2    1    2    0    0  0.24036580280E+02 -0.11450960948E+02  0.34274499034E+02  0.47787274404E+02  0.20000015318E+02 0.  0.
         12    1    1    2    0    0 -0.24036580280E+02  0.11450960948E+02 -0.34274499034E+02  0.43400725596E+02  0.00000000000E+00 0. -1.
         11    1    3    3    0    0 -0.86370151634E+00  0.47831068167E+00  0.36582257661E+01  0.37891130142E+01  0.51100000000E-03 0. -1.
        -11    1    3    3    0    0  0.23215599113E+02 -0.65236848509E+01  0.29708564989E+02  0.38263838545E+02  0.51100000000E-03 0.  1.
         12    1    3    3    0    0  0.16846826834E+01 -0.54055867790E+01  0.90770827894E+00  0.57343228449E+01  0.00000000000E+00 0. -1.
</event>
<event>
 7    1  0.1736465E-010  0.4778727E+02  0.7816164E-02  0.1312668E+00
        -11   -1    0    0    0    0  0.00000000000E+00  0.00000000000E+00  0.45593999997E+02  0.45594000000E+02  0.51100000000E-03 0.  1.
         11   -1    0    0    0    0 -0.00000000000E+00 -0.00000000000E+00 -0.45593999997E+02  0.45594000000E+02  0.51100000000E-03 0. -1.
    9900012    2    1    2    0    0 -0.13169090435E+02 -0.24410463650E+02  0.33381549410E+02  0.47787268215E+02  0.19999987098E+02 0.  0.
         12    1    1    2    0    0  0.13169090435E+02  0.24410463650E+02 -0.33381549410E+02  0.43400731785E+02  0.00000000000E+00 0. -1.
         11    1    3    3    0    0  0.46146404286E+01 -0.37578135671E+01  0.42019775336E+01  0.72851001739E+01  0.51100000000E-03 0. -1.
        -11    1    3    3    0    0 -0.78084646478E+01 -0.43502263101E+01  0.83297612800E+01  0.12218081369E+02  0.51100000000E-03 0.  1.
        -12    1    3    3    0    0 -0.99752662156E+01 -0.16302423773E+02  0.20849810596E+02  0.28284086672E+02  0.00000000000E+00 0.  1.
</event>
<event>
 7    1  0.1736465E-010  0.4778727E+02  0.7816164E-02  0.1312668E+00
        -11   -1    0    0    0    0  0.00000000000E+00  0.00000000000E+00  0.45593999997E+02  0.45594000000E+02  0.51100000000E-03 0.  1.
         11   -1    0    0    0    0 -0.00000000000E+00 -0.00000000000E+00 -0.45593999997E+02  0.45594000000E+02  0.51100000000E-03 0. -1.
    9900012    2    1    2    0    0  0.16089876968E+02  0.25880031435E+02  0.30902472312E+02  0.47787274627E+02  0.20000016333E+02 0.  0.
         12    1    1    2    0    0 -0.16089876968E+02 -0.25880031435E+02 -0.30902472312E+02  0.43400725373E+02  0.00000000000E+00 0. -1.
         11    1    3    3    0    0  0.32767578026E+01  0.10998904036E+02  0.20469769576E+02  0.23467520074E+02  0.51100000000E-03 0.  1.
        -11    1    3    3    0    0  0.92427463686E+01  0.14573716014E+02  0.11306100727E+02  0.20631274144E+02  0.51100000000E-03 0. -1.
         12    1    3    3    0    0  0.35703727970E+01  0.30741138480E+00 -0.87339799112E+00  0.36884804080E+01  0.00000000000E+00 0. -1.
</event>
<event>
 7    1  0.1736465E-010  0.4778727E+02  0.7816164E-02  0.1312668E+00
        -11   -1    0    0    0    0  0.00000000000E+00  0.00000000000E+00  0.45593999997E+02  0.45594000000E+02  0.51100000000E-03 0.  1.
         11   -1    0    0    0    0 -0.00000000000E+00 -0.00000000000E+00 -0.45593999997E+02  0.45594000000E+02  0.51100000000E-03 0. -1.
    9900012    2    1    2    0    0 -0.18859480508E+02 -0.69385332577E+00  0.39082754423E+02  0.47787272693E+02  0.20000007517E+02 0.  0.
         12    1    1    2    0    0  0.18859480508E+02  0.69385332577E+00 -0.39082754423E+02  0.43400727307E+02  0.00000000000E+00 0. -1.
         11    1    3    3    0    0  0.17476554369E+01  0.12577333523E+01  0.64446716790E+00  0.22475611011E+01  0.51100000000E-03 0. -1.
        -11    1    3    3    0    0 -0.51581595678E+01  0.43636622442E+01  0.17530142010E+02  0.18787071019E+02  0.51100000000E-03 0.  1.
         12    1    3    3    0    0 -0.15448976377E+02 -0.63152489223E+01  0.20908145245E+02  0.26752640573E+02  0.00000000000E+00 0. -1.
</event>
<event>
 7    1  0.1736465E-010  0.4778727E+02  0.7816164E-02  0.1312668E+00
        -11   -1    0    0    0    0  0.00000000000E+00  0.00000000000E+00  0.45593999997E+02  0.45594000000E+02  0.51100000000E-03 0.  1.
         11   -1    0    0    0    0 -0.00000000000E+00 -0.00000000000E+00 -0.45593999997E+02  0.45594000000E+02  0.51100000000E-03 0. -1.
    9900012    2    1    2    0    0  0.26272339105E+02 -0.11712053189E+02  0.32499469459E+02  0.47787268358E+02  0.19999987751E+02 0.  0.
         12    1    1    2    0    0 -0.26272339105E+02  0.11712053189E+02 -0.32499469459E+02  0.43400731642E+02  0.00000000000E+00 0. -1.
         11    1    3    3    0    0  0.15887696582E+02 -0.27046368896E+01  0.20557975265E+02  0.26122103871E+02  0.51100000000E-03 0. -1.
        -11    1    3    3    0    0  0.11057677224E+02 -0.91491816618E+01  0.13660379423E+02  0.19813775938E+02  0.51100000000E-03 0.  1.
         12    1    3    3    0    0 -0.67303470166E+00  0.14176536276E+00 -0.17188852289E+01  0.18513885486E+01  0.00000000000E+00 0. -1.
</event>
<event>
 7    1  0.1736465E-010  0.4778724E+02  0.7816164E-02  0.1312668E+00
        -11   -1    0    0    0    0  0.00000000000E+00  0.00000000000E+00  0.45593999997E+02  0.45594000000E+02  0.51100000000E-03 0.  1.
         11   -1    0    0    0    0 -0.00000000000E+00 -0.00000000000E+00 -0.45593999997E+02  0.45594000000E+02  0.51100000000E-03 0. -1.
    9900012    2    1    2    0    0 -0.16704062986E+02  0.39873982174E+02  0.38295556996E+01  0.47787243422E+02  0.19999874058E+02 0.  0.
         12    1    1    2    0    0  0.16704062986E+02 -0.39873982174E+02 -0.38295556996E+01  0.43400756578E+02  0.00000000000E+00 0. -1.
         11    1    3    3    0    0  0.33783435727E+01  0.18934347138E+01 -0.21106271631E+01  0.44105609160E+01  0.51100000000E-03 0. -1.
        -11    1    3    3    0    0 -0.71652552384E+01  0.12900544387E+02  0.20999120438E+01  0.14905521090E+02  0.51100000000E-03 0.  1.
         12    1    3    3    0    0 -0.12917151321E+02  0.25080003073E+02  0.38402708190E+01  0.28471161416E+02  0.00000000000E+00 0. -1.
</event>
<event>
 7    1  0.1736465E-010  0.4778727E+02  0.7816164E-02  0.1312668E+00
        -11   -1    0    0    0    0  0.00000000000E+00  0.00000000000E+00  0.45593999997E+02  0.45594000000E+02  0.51100000000E-03 0. -1.
         11   -1    0    0    0    0 -0.00000000000E+00 -0.00000000000E+00 -0.45593999997E+02  0.45594000000E+02  0.51100000000E-03 0.  1.
    9900012    2    1    2    0    0  0.16662708474E+02  0.39440400315E+02 -0.71015739463E+01  0.47787269785E+02  0.19999994256E+02 0.  0.
         12    1    1    2    0    0 -0.16662708474E+02 -0.39440400315E+02  0.71015739463E+01  0.43400730215E+02  0.00000000000E+00 0. -1.
         11    1    3    3    0    0  0.33124000900E+01  0.88487206128E+01  0.18223444432E+01  0.96225147633E+01  0.51100000000E-03 0. -1.
        -11    1    3    3    0    0  0.74492633811E+01  0.43898080453E+01 -0.71992703871E+01  0.11251285880E+02  0.51100000000E-03 0.  1.
         12    1    3    3    0    0  0.59010450029E+01  0.26201871657E+02 -0.17246480024E+01  0.26913469141E+02  0.00000000000E+00 0. -1.
</event>
<event>
 7    1  0.1736465E-010  0.4778727E+02  0.7816164E-02  0.1312668E+00
        -11   -1    0    0    0    0  0.00000000000E+00  0.00000000000E+00  0.45593999997E+02  0.45594000000E+02  0.51100000000E-03 0.  1.
         11   -1    0    0    0    0 -0.00000000000E+00 -0.00000000000E+00 -0.45593999997E+02  0.45594000000E+02  0.51100000000E-03 0. -1.
    9900012    2    1    2    0    0 -0.30008221554E+02 -0.23135654832E+01  0.31269429563E+02  0.47787272226E+02  0.20000005388E+02 0.  0.
         12    1    1    2    0    0  0.30008221554E+02  0.23135654832E+01 -0.31269429563E+02  0.43400727774E+02  0.00000000000E+00 0. -1.
         11    1    3    3    0    0 -0.16275853187E+02 -0.51832375786E+00  0.21350988647E+02  0.26852127903E+02  0.51100000000E-03 0.  1.
        -11    1    3    3    0    0  0.15085603449E+00  0.34126881459E+01  0.73640174676E+00  0.34944936283E+01  0.51100000000E-03 0. -1.
         12    1    3    3    0    0 -0.13883224402E+02 -0.52079298712E+01  0.91820391696E+01  0.17440650695E+02  0.00000000000E+00 0. -1.
</event>
<event>
 7    1  0.1736465E-010  0.4778727E+02  0.7816164E-02  0.1312668E+00
        -11   -1    0    0    0    0  0.00000000000E+00  0.00000000000E+00  0.45593999997E+02  0.45594000000E+02  0.51100000000E-03 0.  1.
         11   -1    0    0    0    0 -0.00000000000E+00 -0.00000000000E+00 -0.45593999997E+02  0.45594000000E+02  0.51100000000E-03 0. -1.
    9900012    2    1    2    0    0 -0.36945006240E+02 -0.12667375916E+02  0.18926906274E+02  0.47787266368E+02  0.19999978678E+02 0.  0.
         12    1    1    2    0    0  0.36945006240E+02  0.12667375916E+02 -0.18926906274E+02  0.43400733632E+02  0.00000000000E+00 0. -1.
         11    1    3    3    0    0 -0.64747214960E+01 -0.54921455505E+01  0.22205632210E-01  0.84903577398E+01  0.51100000000E-03 0. -1.
        -11    1    3    3    0    0 -0.75574790702E+01 -0.56502612077E+01 -0.18036497516E+00  0.94378744109E+01  0.51100000000E-03 0.  1.
        -12    1    3    3    0    0 -0.22912805674E+02 -0.15249691581E+01  0.19085065616E+02  0.29859034217E+02  0.00000000000E+00 0.  1.
</event>
<event>
 7    1  0.1736465E-010  0.4778728E+02  0.7816164E-02  0.1312668E+00
        -11   -1    0    0    0    0  0.00000000000E+00  0.00000000000E+00  0.45593999997E+02  0.45594000000E+02  0.51100000000E-03 0. -1.
         11   -1    0    0    0    0 -0.00000000000E+00 -0.00000000000E+00 -0.45593999997E+02  0.45594000000E+02  0.51100000000E-03 0.  1.
    9900012    2    1    2    0    0  0.16972655033E+02  0.34437375749E+01 -0.39795629580E+02  0.47787280179E+02  0.20000041649E+02 0.  0.
         12    1    1    2    0    0 -0.16972655033E+02 -0.34437375749E+01  0.39795629580E+02  0.43400719821E+02  0.00000000000E+00 0. -1.
         11    1    3    3    0    0 -0.19042830899E+01 -0.38566402786E+01 -0.96055087939E+01  0.10524531713E+02  0.51100000000E-03 0. -1.
        -11    1    3    3    0    0  0.85658005534E+01  0.10104424222E+01 -0.69709442017E+01  0.11089995326E+02  0.51100000000E-03 0.  1.
         12    1    3    3    0    0  0.10311137569E+02  0.62899354313E+01 -0.23219176584E+02  0.26172753140E+02  0.00000000000E+00 0. -1.
</event>
<event>
 7    1  0.1736465E-010  0.4778728E+02  0.7816164E-02  0.1312668E+00
        -11   -1    0    0    0    0  0.00000000000E+00  0.00000000000E+00  0.45593999997E+02  0.45594000000E+02  0.51100000000E-03 0.  1.
         11   -1    0    0    0    0 -0.00000000000E+00 -0.00000000000E+00 -0.45593999997E+02  0.45594000000E+02  0.51100000000E-03 0. -1.
    9900012    2    1    2    0    0 -0.30537414418E+01 -0.23236201120E+02  0.36529118827E+02  0.47787275334E+02  0.20000019556E+02 0.  0.
         12    1    1    2    0    0  0.30537414418E+01  0.23236201120E+02 -0.36529118827E+02  0.43400724666E+02  0.00000000000E+00 0. -1.
         11    1    3    3    0    0  0.17677228683E+01 -0.32580687782E+01  0.12992242655E+01  0.39278289494E+01  0.51100000000E-03 0. -1.
        -11    1    3    3    0    0 -0.94921743554E+01 -0.14414497524E+02  0.30925653211E+02  0.35415747058E+02  0.51100000000E-03 0.  1.
        -12    1    3    3    0    0  0.46707100454E+01 -0.55636348175E+01  0.43042413500E+01  0.84436993261E+01  0.00000000000E+00 0.  1.
</event>
<event>
 7    1  0.1736465E-010  0.4778727E+02  0.7816164E-02  0.1312668E+00
        -11   -1    0    0    0    0  0.00000000000E+00  0.00000000000E+00  0.45593999997E+02  0.45594000000E+02  0.51100000000E-03 0. -1.
         11   -1    0    0    0    0 -0.00000000000E+00 -0.00000000000E+00 -0.45593999997E+02  0.45594000000E+02  0.51100000000E-03 0.  1.
    9900012    2    1    2    0    0  0.11433801586E+02 -0.34781178085E+02  0.23305820057E+02  0.47787269404E+02  0.19999992521E+02 0.  0.
         12    1    1    2    0    0 -0.11433801586E+02  0.34781178085E+02 -0.23305820057E+02  0.43400730596E+02  0.00000000000E+00 0. -1.
         11    1    3    3    0    0  0.13945205902E+02 -0.17185019079E+02  0.13674874213E+02  0.26015299987E+02  0.51100000000E-03 0. -1.
        -11    1    3    3    0    0  0.13439092688E+01 -0.14032053129E+02  0.56646723208E+01  0.15191876774E+02  0.51100000000E-03 0.  1.
        -12    1    3    3    0    0 -0.38553135846E+01 -0.35641058770E+01  0.39662735233E+01  0.65800926437E+01  0.00000000000E+00 0.  1.
</event>
<event>
 7    1  0.1736465E-010  0.4778727E+02  0.7816164E-02  0.1312668E+00
        -11   -1    0    0    0    0  0.00000000000E+00  0.00000000000E+00  0.45593999997E+02  0.45594000000E+02  0.51100000000E-03 0.  1.
         11   -1    0    0    0    0 -0.00000000000E+00 -0.00000000000E+00 -0.45593999997E+02  0.45594000000E+02  0.51100000000E-03 0. -1.
    9900012    2    1    2    0    0  0.15982577032E+02  0.36797088832E+02  0.16557626651E+02  0.47787268262E+02  0.19999987312E+02 0.  0.
         12    1    1    2    0    0 -0.15982577032E+02 -0.36797088832E+02 -0.16557626651E+02  0.43400731738E+02  0.00000000000E+00 0. -1.
         11    1    3    3    0    0  0.71409239532E+01  0.12083725704E+02  0.12033732476E+02  0.18488373086E+02  0.51100000000E-03 0. -1.
        -11    1    3    3    0    0  0.52519407651E+01  0.15983962209E+02  0.87423295145E+01  0.18960439217E+02  0.51100000000E-03 0.  1.
         12    1    3    3    0    0  0.35897123136E+01  0.87294009186E+01 -0.42184353392E+01  0.10338455958E+02  0.00000000000E+00 0. -1.
</event>
<event>
 7    1  0.1736465E-010  0.4778727E+02  0.7816164E-02  0.1312668E+00
        -11   -1    0    0    0    0  0.00000000000E+00  0.00000000000E+00  0.45593999997E+02  0.45594000000E+02  0.51100000000E-03 0. -1.
         11   -1    0    0    0    0 -0.00000000000E+00 -0.00000000000E+00 -0.45593999997E+02  0.45594000000E+02  0.51100000000E-03 0.  1.
    9900012    2    1    2    0    0  0.32948494050E+02 -0.18884594771E+02  0.21009334370E+02  0.47787270623E+02  0.19999998077E+02 0.  0.
         12    1    1    2    0    0 -0.32948494050E+02  0.18884594771E+02 -0.21009334370E+02  0.43400729377E+02  0.00000000000E+00 0. -1.
         11    1    3    3    0    0  0.13940540057E+02 -0.18691108828E+02  0.12009870228E+02  0.26228480502E+02  0.51100000000E-03 0. -1.
        -11    1    3    3    0    0  0.38620167761E+01  0.51084137616E+00  0.40245725185E+01  0.56011888656E+01  0.51100000000E-03 0.  1.
        -12    1    3    3    0    0  0.15145937217E+02 -0.70432731961E+00  0.49748916235E+01  0.15957601255E+02  0.00000000000E+00 0.  1.
</event>
<event>
 7    1  0.1736465E-010  0.4778728E+02  0.7816164E-02  0.1312668E+00
        -11   -1    0    0    0    0  0.00000000000E+00  0.00000000000E+00  0.45593999997E+02  0.45594000000E+02  0.51100000000E-03 0.  1.
         11   -1    0    0    0    0 -0.00000000000E+00 -0.00000000000E+00 -0.45593999997E+02  0.45594000000E+02  0.51100000000E-03 0. -1.
    9900012    2    1    2    0    0  0.10958292467E+02 -0.81715044336E+01  0.41191810331E+02  0.47787275388E+02  0.20000019806E+02 0.  0.
         12    1    1    2    0    0 -0.10958292467E+02  0.81715044336E+01 -0.41191810331E+02  0.43400724612E+02  0.00000000000E+00 0. -1.
         11    1    3    3    0    0  0.91471539078E+01 -0.48367645480E+01  0.25924259671E+02  0.27912935275E+02  0.51100000000E-03 0.  1.
        -11    1    3    3    0    0  0.41894735870E+01 -0.49338767337E+01  0.27494835615E+01  0.70323885470E+01  0.51100000000E-03 0. -1.
         12    1    3    3    0    0 -0.23783350283E+01  0.15991368481E+01  0.12518067098E+02  0.12841951567E+02  0.00000000000E+00 0. -1.
</event>
<event>
 7    1  0.1736465E-010  0.4778727E+02  0.7816164E-02  0.1312668E+00
        -11   -1    0    0    0    0  0.00000000000E+00  0.00000000000E+00  0.45593999997E+02  0.45594000000E+02  0.51100000000E-03 0.  1.
         11   -1    0    0    0    0 -0.00000000000E+00 -0.00000000000E+00 -0.45593999997E+02  0.45594000000E+02  0.51100000000E-03 0. -1.
    9900012    2    1    2    0    0  0.23759570887E+02  0.29257694622E+02  0.21519606546E+02  0.47787269946E+02  0.19999994992E+02 0.  0.
         12    1    1    2    0    0 -0.23759570887E+02 -0.29257694622E+02 -0.21519606546E+02  0.43400730054E+02  0.00000000000E+00 0. -1.
         11    1    3    3    0    0 -0.94675140079E+00  0.43141268757E+01 -0.95795965102E+00  0.45194818142E+01  0.51100000000E-03 0. -1.
        -11    1    3    3    0    0  0.11997366284E+02  0.48321742566E+01  0.55755711848E+01  0.14084519874E+02  0.51100000000E-03 0.  1.
         12    1    3    3    0    0  0.12708956004E+02  0.20111393489E+02  0.16901995012E+02  0.29183268258E+02  0.00000000000E+00 0. -1.
</event>
<event>
 7    1  0.1736465E-010  0.4778727E+02  0.7816164E-02  0.1312668E+00
        -11   -1    0    0    0    0  0.00000000000E+00  0.00000000000E+00  0.45593999997E+02  0.45594000000E+02  0.51100000000E-03 0. -1.
         11   -1    0    0    0    0 -0.00000000000E+00 -0.00000000000E+00 -0.45593999997E+02  0.45594000000E+02  0.51100000000E-03 0.  1.
    9900012    2    1    2    0    0 -0.80577578774E+01  0.40964413628E+02  0.11858019986E+02  0.47787270929E+02  0.19999999473E+02 0.  0.
         12    1    1    2    0    0  0.80577578774E+01 -0.40964413628E+02 -0.11858019986E+02  0.43400729071E+02  0.00000000000E+00 0. -1.
         11    1    3    3    0    0 -0.61236030513E+01  0.82546069816E+01  0.22543081223E+01  0.10522307547E+02  0.51100000000E-03 0. -1.
        -11    1    3    3    0    0  0.10507510731E+01  0.29463207082E+02  0.34342655853E+01  0.29681287535E+02  0.51100000000E-03 0.  1.
        -12    1    3    3    0    0 -0.29849058992E+01  0.32465995647E+01  0.61694462783E+01  0.75836758463E+01  0.00000000000E+00 0.  1.
</event>
<event>
 7    1  0.1736465E-010  0.4778727E+02  0.7816164E-02  0.1312668E+00
        -11   -1    0    0    0    0  0.00000000000E+00  0.00000000000E+00  0.45593999997E+02  0.45594000000E+02  0.51100000000E-03 0.  1.
         11   -1    0    0    0    0 -0.00000000000E+00 -0.00000000000E+00 -0.45593999997E+02  0.45594000000E+02  0.51100000000E-03 0. -1.
    9900012    2    1    2    0    0  0.23491239351E+02  0.32051329770E+02 -0.17449848447E+02  0.47787271007E+02  0.19999999828E+02 0.  0.
         12    1    1    2    0    0 -0.23491239351E+02 -0.32051329770E+02  0.17449848447E+02  0.43400728993E+02  0.00000000000E+00 0. -1.
         11    1    3    3    0    0  0.20993394272E+02  0.32776853597E+02 -0.17054103521E+02  0.42495731338E+02  0.51100000000E-03 0. -1.
        -11    1    3    3    0    0  0.31808658241E+01 -0.47199976536E+00 -0.18176499790E+01  0.36938520378E+01  0.51100000000E-03 0.  1.
         12    1    3    3    0    0 -0.68302074478E+00 -0.25352406128E+00  0.14219050527E+01  0.15976876311E+01  0.00000000000E+00 0. -1.
</event>
<event>
 7    1  0.1736465E-010  0.4778727E+02  0.7816164E-02  0.1312668E+00
        -11   -1    0    0    0    0  0.00000000000E+00  0.00000000000E+00  0.45593999997E+02  0.45594000000E+02  0.51100000000E-03 0. -1.
         11   -1    0    0    0    0 -0.00000000000E+00 -0.00000000000E+00 -0.45593999997E+02  0.45594000000E+02  0.51100000000E-03 0.  1.
    9900012    2    1    2    0    0  0.23424931663E+02  0.28116126364E+02 -0.23331935891E+02  0.47787271693E+02  0.20000002957E+02 0.  0.
         12    1    1    2    0    0 -0.23424931663E+02 -0.28116126364E+02  0.23331935891E+02  0.43400728307E+02  0.00000000000E+00 0. -1.
         11    1    3    3    0    0  0.13690793869E+02  0.95244785961E+01 -0.64907173700E+01  0.17896450528E+02  0.51100000000E-03 0. -1.
        -11    1    3    3    0    0  0.65716463309E+01  0.97073078604E+01 -0.16768967503E+02  0.20460122990E+02  0.51100000000E-03 0.  1.
         12    1    3    3    0    0  0.31624914639E+01  0.88843399075E+01 -0.72251018140E-01  0.94306981746E+01  0.00000000000E+00 0. -1.
</event>
<event>
 7    1  0.1736465E-010  0.4778728E+02  0.7816164E-02  0.1312668E+00
        -11   -1    0    0    0    0  0.00000000000E+00  0.00000000000E+00  0.45593999997E+02  0.45594000000E+02  0.51100000000E-03 0.  1.
         11   -1    0    0    0    0 -0.00000000000E+00 -0.00000000000E+00 -0.45593999997E+02  0.45594000000E+02  0.51100000000E-03 0. -1.
    9900012    2    1    2    0    0 -0.16923896944E+01  0.10339532336E+02  0.42117132061E+02  0.47787275065E+02  0.20000018333E+02 0.  0.
         12    1    1    2    0    0  0.16923896944E+01 -0.10339532336E+02 -0.42117132061E+02  0.43400724935E+02  0.00000000000E+00 0. -1.
         11    1    3    3    0    0 -0.25866527791E+01 -0.22961744039E+01  0.31029949745E+01  0.46466942621E+01  0.51100000000E-03 0. -1.
        -11    1    3    3    0    0  0.29241300343E+01  0.43952574145E+01  0.31071795018E+02  0.31517063158E+02  0.51100000000E-03 0.  1.
         12    1    3    3    0    0 -0.20298669497E+01  0.82404493257E+01  0.79423420684E+01  0.11623517645E+02  0.00000000000E+00 0. -1.
</event>
<event>
 7    1  0.1736465E-010  0.4778727E+02  0.7816164E-02  0.1312668E+00
        -11   -1    0    0    0    0  0.00000000000E+00  0.00000000000E+00  0.45593999997E+02  0.45594000000E+02  0.51100000000E-03 0.  1.
         11   -1    0    0    0    0 -0.00000000000E+00 -0.00000000000E+00 -0.45593999997E+02  0.45594000000E+02  0.51100000000E-03 0. -1.
    9900012    2    1    2    0    0  0.28267433926E+01 -0.40684393301E+02  0.14846302360E+02  0.47787273851E+02  0.20000012797E+02 0.  0.
         12    1    1    2    0    0 -0.28267433926E+01  0.40684393301E+02 -0.14846302360E+02  0.43400726149E+02  0.00000000000E+00 0. -1.
         11    1    3    3    0    0 -0.18966233528E+01 -0.10778184016E+02  0.23791825284E+01  0.11199416975E+02  0.51100000000E-03 0. -1.
        -11    1    3    3    0    0 -0.41679073423E+01 -0.18161798253E+02  0.11342486671E+02  0.21814544954E+02  0.51100000000E-03 0.  1.
         12    1    3    3    0    0  0.88912740878E+01 -0.11744411032E+02  0.11246331608E+01  0.14773311922E+02  0.00000000000E+00 0. -1.
</event>
<event>
 7    1  0.1736465E-010  0.4778727E+02  0.7816164E-02  0.1312668E+00
        -11   -1    0    0    0    0  0.00000000000E+00  0.00000000000E+00  0.45593999997E+02  0.45594000000E+02  0.51100000000E-03 0. -1.
         11   -1    0    0    0    0 -0.00000000000E+00 -0.00000000000E+00 -0.45593999997E+02  0.45594000000E+02  0.51100000000E-03 0.  1.
    9900012    2    1    2    0    0 -0.26912258325E+02  0.10976775603E+01 -0.34031588739E+02  0.47787267561E+02  0.19999984116E+02 0.  0.
         12    1    1    2    0    0  0.26912258325E+02 -0.10976775603E+01  0.34031588739E+02  0.43400732439E+02  0.00000000000E+00 0. -1.
         11    1    3    3    0    0 -0.99240397075E+01  0.50428336117E+01 -0.55962950147E+01  0.12459344008E+02  0.51100000000E-03 0. -1.
        -11    1    3    3    0    0 -0.14961684331E+02  0.72881201122E+00 -0.16145448267E+02  0.22024047425E+02  0.51100000000E-03 0.  1.
         12    1    3    3    0    0 -0.20265342866E+01 -0.46739680626E+01 -0.12289845457E+02  0.13303876128E+02  0.00000000000E+00 0. -1.
</event>
<event>
 7    1  0.1736465E-010  0.4778727E+02  0.7816164E-02  0.1312668E+00
        -11   -1    0    0    0    0  0.00000000000E+00  0.00000000000E+00  0.45593999997E+02  0.45594000000E+02  0.51100000000E-03 0.  1.
         11   -1    0    0    0    0 -0.00000000000E+00 -0.00000000000E+00 -0.45593999997E+02  0.45594000000E+02  0.51100000000E-03 0. -1.
    9900012    2    1    2    0    0  0.46890345720E+00 -0.35362707155E+02 -0.25157151513E+02  0.47787271895E+02  0.20000003880E+02 0.  0.
         12    1    1    2    0    0 -0.46890345720E+00  0.35362707155E+02  0.25157151513E+02  0.43400728105E+02  0.00000000000E+00 0. -1.
         11    1    3    3    0    0  0.80892028844E+01 -0.99313539775E+01 -0.36372818240E+01  0.13315284994E+02  0.51100000000E-03 0. -1.
        -11    1    3    3    0    0 -0.12666165457E+01 -0.11719676746E+02 -0.10235312286E+02  0.15611430375E+02  0.51100000000E-03 0.  1.
         12    1    3    3    0    0 -0.63536828815E+01 -0.13711676432E+02 -0.11284557403E+02  0.18860556527E+02  0.00000000000E+00 0. -1.
</event>
<event>
 7    1  0.1736465E-010  0.4778726E+02  0.7816164E-02  0.1312668E+00
        -11   -1    0    0    0    0  0.00000000000E+00  0.00000000000E+00  0.45593999997E+02  0.45594000000E+02  0.51100000000E-03 0. -1.
         11   -1    0    0    0    0 -0.00000000000E+00 -0.00000000000E+00 -0.45593999997E+02  0.45594000000E+02  0.51100000000E-03 0.  1.
    9900012    2    1    2    0    0 -0.42482737182E+02  0.34582343266E+01 -0.81781290759E+01  0.47787261086E+02  0.19999954594E+02 0.  0.
         12    1    1    2    0    0  0.42482737182E+02 -0.34582343266E+01  0.81781290759E+01  0.43400738914E+02  0.00000000000E+00 0. -1.
         11    1    3    3    0    0 -0.27895081060E+01 -0.83288565972E+00 -0.17304189334E+01  0.33866508444E+01  0.51100000000E-03 0. -1.
        -11    1    3    3    0    0 -0.10493559801E+02  0.33101718942E-01 -0.10224798318E+02  0.14651361505E+02  0.51100000000E-03 0.  1.
         12    1    3    3    0    0 -0.29199669275E+02  0.42580182674E+01  0.37770881758E+01  0.29749248737E+02  0.00000000000E+00 0. -1.
</event>
<event>
 7    1  0.1736465E-010  0.4778725E+02  0.7816164E-02  0.1312668E+00
        -11   -1    0    0    0    0  0.00000000000E+00  0.00000000000E+00  0.45593999997E+02  0.45594000000E+02  0.51100000000E-03 0.  1.
         11   -1    0    0    0    0 -0.00000000000E+00 -0.00000000000E+00 -0.45593999997E+02  0.45594000000E+02  0.51100000000E-03 0. -1.
    9900012    2    1    2    0    0 -0.15136165186E+02 -0.40142810764E+02  0.65632585445E+01  0.47787249830E+02  0.19999903276E+02 0.  0.
         12    1    1    2    0    0  0.15136165186E+02  0.40142810764E+02 -0.65632585445E+01  0.43400750170E+02  0.00000000000E+00 0. -1.
         11    1    3    3    0    0 -0.15086398446E+02 -0.22442894203E+02  0.27477888764E+01  0.27181487492E+02  0.51100000000E-03 0. -1.
        -11    1    3    3    0    0 -0.98246547176E+00 -0.36812709838E+01  0.52458342963E+01  0.64834999950E+01  0.51100000000E-03 0.  1.
         12    1    3    3    0    0  0.93269873184E+00 -0.14018645577E+02 -0.14303646282E+01  0.14122262344E+02  0.00000000000E+00 0. -1.
</event>
<event>
 7    1  0.1736465E-010  0.4778727E+02  0.7816164E-02  0.1312668E+00
        -11   -1    0    0    0    0  0.00000000000E+00  0.00000000000E+00  0.45593999997E+02  0.45594000000E+02  0.51100000000E-03 0.  1.
         11   -1    0    0    0    0 -0.00000000000E+00 -0.00000000000E+00 -0.45593999997E+02  0.45594000000E+02  0.51100000000E-03 0. -1.
    9900012    2    1    2    0    0  0.84284746591E+01  0.31231920417E+02  0.28933568358E+02  0.47787269407E+02  0.19999992535E+02 0.  0.
         12    1    1    2    0    0 -0.84284746591E+01 -0.31231920417E+02 -0.28933568358E+02  0.43400730593E+02  0.00000000000E+00 0. -1.
         11    1    3    3    0    0 -0.22569144786E+00  0.13930307477E+02  0.55106856727E+01  0.14982391661E+02  0.51100000000E-03 0. -1.
        -11    1    3    3    0    0  0.52214037237E+01  0.36829974024E+00  0.29235554932E+01  0.59954881809E+01  0.51100000000E-03 0.  1.
         12    1    3    3    0    0  0.34327623832E+01  0.16933313200E+02  0.20499327192E+02  0.26809389565E+02  0.00000000000E+00 0. -1.
</event>
<event>
 7    1  0.2168203E-010  0.4778727E+02  0.7816164E-02  0.1312668E+00
        -11   -1    0    0    0    0  0.00000000000E+00  0.00000000000E+00  0.45593999997E+02  0.45594000000E+02  0.51100000000E-03 0. -1.
         11   -1    0    0    0    0 -0.00000000000E+00 -0.00000000000E+00 -0.45593999997E+02  0.45594000000E+02  0.51100000000E-03 0.  1.
    9900012    2    1    2    0    0 -0.22635851949E+02 -0.17102707290E+01 -0.36990761985E+02  0.47787270839E+02  0.19999999064E+02 0.  0.
         12    1    1    2    0    0  0.22635851949E+02  0.17102707290E+01  0.36990761985E+02  0.43400729161E+02  0.00000000000E+00 0. -1.
         11    1    3    3    0    0  0.26981638731E+01  0.24111493917E+01 -0.19436437740E+01  0.41074908468E+01  0.51100000000E-03 0. -1.
        -11    1    3    3    0    0 -0.93544490885E+01  0.66204514759E+00 -0.13241406215E+02  0.16225870095E+02  0.51100000000E-03 0.  1.
         12    1    3    3    0    0 -0.15979566734E+02 -0.47834652683E+01 -0.21805711996E+02  0.27453909897E+02  0.00000000000E+00 0. -1.
</event>
<event>
 7    1  0.1736465E-010  0.4778727E+02  0.7816164E-02  0.1312668E+00
        -11   -1    0    0    0    0  0.00000000000E+00  0.00000000000E+00  0.45593999997E+02  0.45594000000E+02  0.51100000000E-03 0. -1.
         11   -1    0    0    0    0 -0.00000000000E+00 -0.00000000000E+00 -0.45593999997E+02  0.45594000000E+02  0.51100000000E-03 0.  1.
    9900012    2    1    2    0    0 -0.11121805078E+02  0.40575585290E+02  0.10656025806E+02  0.47787267797E+02  0.19999985193E+02 0.  0.
         12    1    1    2    0    0  0.11121805078E+02 -0.40575585290E+02 -0.10656025806E+02  0.43400732203E+02  0.00000000000E+00 0. -1.
         11    1    3    3    0    0  0.30705129763E+01  0.15861588214E+02  0.65972979162E+01  0.17451142388E+02  0.51100000000E-03 0. -1.
        -11    1    3    3    0    0 -0.97156319562E+01  0.23256482423E+02  0.22948649642E+01  0.25308573340E+02  0.51100000000E-03 0.  1.
        -12    1    3    3    0    0 -0.44766860985E+01  0.14575146525E+01  0.17638629256E+01  0.50275520691E+01  0.00000000000E+00 0.  1.
</event>
<event>
 7    1  0.1736465E-010  0.4778727E+02  0.7816164E-02  0.1312668E+00
        -11   -1    0    0    0    0  0.00000000000E+00  0.00000000000E+00  0.45593999997E+02  0.45594000000E+02  0.51100000000E-03 0.  1.
         11   -1    0    0    0    0 -0.00000000000E+00 -0.00000000000E+00 -0.45593999997E+02  0.45594000000E+02  0.51100000000E-03 0. -1.
    9900012    2    1    2    0    0  0.34583687106E+02  0.23059930959E+02 -0.12483251950E+02  0.47787269489E+02  0.19999992908E+02 0.  0.
         12    1    1    2    0    0 -0.34583687106E+02 -0.23059930959E+02  0.12483251950E+02  0.43400730511E+02  0.00000000000E+00 0. -1.
         11    1    3    3    0    0 -0.17611711282E+01  0.44978763037E+01 -0.19261076888E+01  0.52002409633E+01  0.51100000000E-03 0. -1.
        -11    1    3    3    0    0  0.81584666191E+01  0.64253770714E+01 -0.94120753234E+00  0.10427459900E+02  0.51100000000E-03 0.  1.
        -12    1    3    3    0    0  0.28186391615E+02  0.12136677584E+02 -0.96159367284E+01  0.32159568626E+02  0.00000000000E+00 0.  1.
</event>
<event>
 7    1  0.1736465E-010  0.4778726E+02  0.7816164E-02  0.1312668E+00
        -11   -1    0    0    0    0  0.00000000000E+00  0.00000000000E+00  0.45593999997E+02  0.45594000000E+02  0.51100000000E-03 0.  1.
         11   -1    0    0    0    0 -0.00000000000E+00 -0.00000000000E+00 -0.45593999997E+02  0.45594000000E+02  0.51100000000E-03 0. -1.
    9900012    2    1    2    0    0  0.24703827635E+02 -0.26610720579E+02  0.23774235193E+02  0.47787264884E+02  0.19999971913E+02 0.  0.
         12    1    1    2    0    0 -0.24703827635E+02  0.26610720579E+02 -0.23774235193E+02  0.43400735116E+02  0.00000000000E+00 0. -1.
         11    1    3    3    0    0  0.60035146725E+01 -0.24981090349E-01  0.11636652409E+01  0.61153028978E+01  0.51100000000E-03 0. -1.
        -11    1    3    3    0    0  0.11237503818E+01 -0.10802323024E+02  0.39105535254E+01  0.11543198291E+02  0.51100000000E-03 0.  1.
         12    1    3    3    0    0  0.17576562581E+02 -0.15783416464E+02  0.18700016427E+02  0.30128763696E+02  0.00000000000E+00 0. -1.
</event>
<event>
 7    1  0.2536710E-010  0.4778726E+02  0.7816164E-02  0.1312668E+00
        -11   -1    0    0    0    0  0.00000000000E+00  0.00000000000E+00  0.45593999997E+02  0.45594000000E+02  0.51100000000E-03 0.  1.
         11   -1    0    0    0    0 -0.00000000000E+00 -0.00000000000E+00 -0.45593999997E+02  0.45594000000E+02  0.51100000000E-03 0. -1.
    9900012    2    1    2    0    0 -0.28013201331E+01 -0.35952957865E+02  0.24148738393E+02  0.47787261070E+02  0.19999954520E+02 0.  0.
         12    1    1    2    0    0  0.28013201331E+01  0.35952957865E+02 -0.24148738393E+02  0.43400738930E+02  0.00000000000E+00 0. -1.
         11    1    3    3    0    0 -0.23357852221E+01  0.37722998523E+00 -0.11705783718E+01  0.26397820083E+01  0.51100000000E-03 0. -1.
        -11    1    3    3    0    0 -0.58347507211E+00 -0.12717898610E+02  0.14124836282E+02  0.19015687957E+02  0.51100000000E-03 0.  1.
        -12    1    3    3    0    0  0.11794016112E+00 -0.23612289240E+02  0.11194480483E+02  0.26131791104E+02  0.00000000000E+00 0.  1.
</event>
<event>
 7    1  0.1736465E-010  0.4778727E+02  0.7816164E-02  0.1312668E+00
        -11   -1    0    0    0    0  0.00000000000E+00  0.00000000000E+00  0.45593999997E+02  0.45594000000E+02  0.51100000000E-03 0.  1.
         11   -1    0    0    0    0 -0.00000000000E+00 -0.00000000000E+00 -0.45593999997E+02  0.45594000000E+02  0.51100000000E-03 0. -1.
    9900012    2    1    2    0    0 -0.19057584060E+02 -0.35286531124E+02  0.16591934234E+02  0.47787273386E+02  0.20000010676E+02 0.  0.
         12    1    1    2    0    0  0.19057584060E+02  0.35286531124E+02 -0.16591934234E+02  0.43400726614E+02  0.00000000000E+00 0. -1.
         11    1    3    3    0    0 -0.24387785802E+01 -0.38884369341E+00  0.50661224258E+01  0.56359947725E+01  0.51100000000E-03 0. -1.
        -11    1    3    3    0    0 -0.17064551750E+02 -0.23269730578E+02  0.91750471243E+01  0.30279709008E+02  0.51100000000E-03 0.  1.
         12    1    3    3    0    0  0.44574626988E+00 -0.11627956853E+02  0.23507646836E+01  0.11871569606E+02  0.00000000000E+00 0. -1.
</event>
<event>
 7    1  0.1736465E-010  0.4778728E+02  0.7816164E-02  0.1312668E+00
        -11   -1    0    0    0    0  0.00000000000E+00  0.00000000000E+00  0.45593999997E+02  0.45594000000E+02  0.51100000000E-03 0.  1.
         11   -1    0    0    0    0 -0.00000000000E+00 -0.00000000000E+00 -0.45593999997E+02  0.45594000000E+02  0.51100000000E-03 0. -1.
    9900012    2    1    2    0    0  0.31123013187E+02 -0.29638424870E+02  0.60452066882E+01  0.47787277627E+02  0.20000030014E+02 0.  0.
         12    1    1    2    0    0 -0.31123013187E+02  0.29638424870E+02 -0.60452066882E+01  0.43400722373E+02  0.00000000000E+00 0. -1.
         11    1    3    3    0    0  0.22145532222E+02 -0.24107734027E+02  0.28187156308E+00  0.32736629165E+02  0.51100000000E-03 0.  1.
        -11    1    3    3    0    0 -0.17278323227E+01 -0.13005629959E+01 -0.32992407834E-01  0.21628586181E+01  0.51100000000E-03 0. -1.
        -12    1    3    3    0    0  0.10705313288E+02 -0.42301278471E+01  0.57963275330E+01  0.12887789844E+02  0.00000000000E+00 0.  1.
</event>
<event>
 7    1  0.1736465E-010  0.4778727E+02  0.7816164E-02  0.1312668E+00
        -11   -1    0    0    0    0  0.00000000000E+00  0.00000000000E+00  0.45593999997E+02  0.45594000000E+02  0.51100000000E-03 0. -1.
         11   -1    0    0    0    0 -0.00000000000E+00 -0.00000000000E+00 -0.45593999997E+02  0.45594000000E+02  0.51100000000E-03 0.  1.
    9900012    2    1    2    0    0 -0.20914864077E+02  0.35519812928E+02  0.13584348728E+02  0.47787272124E+02  0.20000004923E+02 0.  0.
         12    1    1    2    0    0  0.20914864077E+02 -0.35519812928E+02 -0.13584348728E+02  0.43400727876E+02  0.00000000000E+00 0. -1.
         11    1    3    3    0    0 -0.10820770800E+02  0.13783053026E+02  0.18301152534E+01  0.17618483292E+02  0.51100000000E-03 0. -1.
        -11    1    3    3    0    0 -0.36779259682E+01  0.20955382753E+02  0.97352391771E+01  0.23397223935E+02  0.51100000000E-03 0.  1.
         12    1    3    3    0    0 -0.64161673085E+01  0.78137714914E+00  0.20189942971E+01  0.67715648968E+01  0.00000000000E+00 0. -1.
</event>
<event>
 7    1  0.1736465E-010  0.4778727E+02  0.7816164E-02  0.1312668E+00
        -11   -1    0    0    0    0  0.00000000000E+00  0.00000000000E+00  0.45593999997E+02  0.45594000000E+02  0.51100000000E-03 0. -1.
         11   -1    0    0    0    0 -0.00000000000E+00 -0.00000000000E+00 -0.45593999997E+02  0.45594000000E+02  0.51100000000E-03 0.  1.
    9900012    2    1    2    0    0  0.35577696047E+02 -0.99380288934E+01 -0.22783473067E+02  0.47787268217E+02  0.19999987108E+02 0.  0.
         12    1    1    2    0    0 -0.35577696047E+02  0.99380288934E+01  0.22783473067E+02  0.43400731783E+02  0.00000000000E+00 0. -1.
         11    1    3    3    0    0  0.17295031936E+02 -0.51788217628E+01 -0.46945460474E+01  0.18654143973E+02  0.51100000000E-03 0. -1.
        -11    1    3    3    0    0  0.19695806406E+02 -0.32846798607E+01 -0.18293267857E+02  0.27080575343E+02  0.51100000000E-03 0.  1.
         12    1    3    3    0    0 -0.14131422943E+01 -0.14745272699E+01  0.20434083692E+00  0.20525489010E+01  0.00000000000E+00 0. -1.
</event>
<event>
 7    1  0.1736465E-010  0.4778728E+02  0.7816164E-02  0.1312668E+00
        -11   -1    0    0    0    0  0.00000000000E+00  0.00000000000E+00  0.45593999997E+02  0.45594000000E+02  0.51100000000E-03 0.  1.
         11   -1    0    0    0    0 -0.00000000000E+00 -0.00000000000E+00 -0.45593999997E+02  0.45594000000E+02  0.51100000000E-03 0. -1.
    9900012    2    1    2    0    0 -0.40723140911E+02 -0.47322837743E+01  0.14242666239E+02  0.47787282759E+02  0.20000053412E+02 0.  0.
         12    1    1    2    0    0  0.40723140911E+02  0.47322837743E+01 -0.14242666239E+02  0.43400717241E+02  0.00000000000E+00 0. -1.
         11    1    3    3    0    0 -0.14003309900E+02 -0.66486167469E+01  0.50247730143E+00  0.15509651076E+02  0.51100000000E-03 0.  1.
        -11    1    3    3    0    0 -0.24367390475E+02 -0.21986758311E+01  0.11426603139E+02  0.27003169324E+02  0.51100000000E-03 0. -1.
         12    1    3    3    0    0 -0.23524405367E+01  0.41150088036E+01  0.23135857984E+01  0.52744623592E+01  0.00000000000E+00 0. -1.
</event>
<event>
 7    1  0.1736465E-010  0.4778727E+02  0.7816164E-02  0.1312668E+00
        -11   -1    0    0    0    0  0.00000000000E+00  0.00000000000E+00  0.45593999997E+02  0.45594000000E+02  0.51100000000E-03 0. -1.
         11   -1    0    0    0    0 -0.00000000000E+00 -0.00000000000E+00 -0.45593999997E+02  0.45594000000E+02  0.51100000000E-03 0.  1.
    9900012    2    1    2    0    0  0.20878587187E+02 -0.21301707369E+02 -0.31526894058E+02  0.47787272026E+02  0.20000004474E+02 0.  0.
         12    1    1    2    0    0 -0.20878587187E+02  0.21301707369E+02  0.31526894058E+02  0.43400727974E+02  0.00000000000E+00 0. -1.
         11    1    3    3    0    0  0.82634796293E+01 -0.76021929575E+01 -0.41400745412E+01  0.11967399501E+02  0.51100000000E-03 0. -1.
        -11    1    3    3    0    0  0.83845033273E+01 -0.67088189430E+01 -0.47283912018E+01  0.11733108338E+02  0.51100000000E-03 0.  1.
        -12    1    3    3    0    0  0.42306042306E+01 -0.69906954680E+01 -0.22658428315E+02  0.24086764187E+02  0.00000000000E+00 0.  1.
</event>
<event>
 7    1  0.1736465E-010  0.4778727E+02  0.7816164E-02  0.1312668E+00
        -11   -1    0    0    0    0  0.00000000000E+00  0.00000000000E+00  0.45593999997E+02  0.45594000000E+02  0.51100000000E-03 0.  1.
         11   -1    0    0    0    0 -0.00000000000E+00 -0.00000000000E+00 -0.45593999997E+02  0.45594000000E+02  0.51100000000E-03 0. -1.
    9900012    2    1    2    0    0  0.26264095704E+02  0.34500576912E+02 -0.18790164300E+01  0.47787271514E+02  0.20000002139E+02 0.  0.
         12    1    1    2    0    0 -0.26264095704E+02 -0.34500576912E+02  0.18790164300E+01  0.43400728486E+02  0.00000000000E+00 0. -1.
         11    1    3    3    0    0  0.11342059242E+02  0.11937614188E+02 -0.41244746991E+01  0.16975282977E+02  0.51100000000E-03 0. -1.
        -11    1    3    3    0    0  0.20027083582E+01  0.64687533922E+01  0.68868500495E+01  0.96583805621E+01  0.51100000000E-03 0.  1.
        -12    1    3    3    0    0  0.12919328104E+02  0.16094209332E+02 -0.46413917804E+01  0.21153607974E+02  0.00000000000E+00 0.  1.
</event>
<event>
 7    1  0.1736465E-010  0.4778725E+02  0.7816164E-02  0.1312668E+00
        -11   -1    0    0    0    0  0.00000000000E+00  0.00000000000E+00  0.45593999997E+02  0.45594000000E+02  0.51100000000E-03 0. -1.
         11   -1    0    0    0    0 -0.00000000000E+00 -0.00000000000E+00 -0.45593999997E+02  0.45594000000E+02  0.51100000000E-03 0.  1.
    9900012    2    1    2    0    0  0.35327230407E+02 -0.77974749692E+01 -0.23975219620E+02  0.47787251390E+02  0.19999910387E+02 0.  0.
         12    1    1    2    0    0 -0.35327230407E+02  0.77974749692E+01  0.23975219620E+02  0.43400748610E+02  0.00000000000E+00 0. -1.
         11    1    3    3    0    0  0.23695252084E+02 -0.78616710705E+00 -0.10720474866E+02  0.26019446798E+02  0.51100000000E-03 0. -1.
        -11    1    3    3    0    0  0.93721730655E+01 -0.74917881551E+01 -0.46661613049E+01  0.12873910801E+02  0.51100000000E-03 0.  1.
         12    1    3    3    0    0  0.22598052573E+01  0.48048029291E+00 -0.85885834485E+01  0.88938937909E+01  0.00000000000E+00 0. -1.
</event>
<event>
 7    1  0.1736465E-010  0.4778727E+02  0.7816164E-02  0.1312668E+00
        -11   -1    0    0    0    0  0.00000000000E+00  0.00000000000E+00  0.45593999997E+02  0.45594000000E+02  0.51100000000E-03 0.  1.
         11   -1    0    0    0    0 -0.00000000000E+00 -0.00000000000E+00 -0.45593999997E+02  0.45594000000E+02  0.51100000000E-03 0. -1.
    9900012    2    1    2    0    0  0.16471031153E+02 -0.17206379539E+02  0.36280420927E+02  0.47787270666E+02  0.19999998276E+02 0.  0.
         12    1    1    2    0    0 -0.16471031153E+02  0.17206379539E+02 -0.36280420927E+02  0.43400729334E+02  0.00000000000E+00 0. -1.
         11    1    3    3    0    0  0.49168381241E+01  0.26065653713E+01  0.88657930890E+01  0.10467653392E+02  0.51100000000E-03 0. -1.
        -11    1    3    3    0    0  0.10414386974E+02 -0.10389493772E+02  0.11039182060E+02  0.18391970468E+02  0.51100000000E-03 0.  1.
         12    1    3    3    0    0  0.11398060542E+01 -0.94234511386E+01  0.16375445777E+02  0.18927646806E+02  0.00000000000E+00 0. -1.
</event>
<event>
 7    1  0.1736465E-010  0.4778727E+02  0.7816164E-02  0.1312668E+00
        -11   -1    0    0    0    0  0.00000000000E+00  0.00000000000E+00  0.45593999997E+02  0.45594000000E+02  0.51100000000E-03 0.  1.
         11   -1    0    0    0    0 -0.00000000000E+00 -0.00000000000E+00 -0.45593999997E+02  0.45594000000E+02  0.51100000000E-03 0. -1.
    9900012    2    1    2    0    0  0.83068890815E+01  0.42593199096E+02  0.66206878905E+00  0.47787270161E+02  0.19999995972E+02 0.  0.
         12    1    1    2    0    0 -0.83068890815E+01 -0.42593199096E+02 -0.66206878905E+00  0.43400729839E+02  0.00000000000E+00 0. -1.
         11    1    3    3    0    0  0.10623714168E+01  0.32033208897E+01  0.16604678649E+01  0.37612566439E+01  0.51100000000E-03 0. -1.
        -11    1    3    3    0    0  0.63159719720E+01  0.21467434859E+02  0.82338870995E+01  0.23844059185E+02  0.51100000000E-03 0.  1.
         12    1    3    3    0    0  0.92854569268E+00  0.17922443347E+02 -0.92322861753E+01  0.20181954332E+02  0.00000000000E+00 0. -1.
</event>
<event>
 7    1  0.1736465E-010  0.4778722E+02  0.7816164E-02  0.1312668E+00
        -11   -1    0    0    0    0  0.00000000000E+00  0.00000000000E+00  0.45593999997E+02  0.45594000000E+02  0.51100000000E-03 0.  1.
         11   -1    0    0    0    0 -0.00000000000E+00 -0.00000000000E+00 -0.45593999997E+02  0.45594000000E+02  0.51100000000E-03 0. -1.
    9900012    2    1    2    0    0 -0.30442289643E+02 -0.16258698140E+02  0.26316337006E+02  0.47787218240E+02  0.19999759244E+02 0.  0.
         12    1    1    2    0    0  0.30442289643E+02  0.16258698140E+02 -0.26316337006E+02  0.43400781760E+02  0.00000000000E+00 0. -1.
         11    1    3    3    0    0  0.76979548604E+00 -0.14937784222E+00 -0.12894066174E+01  0.15091283962E+01  0.51100000000E-03 0. -1.
        -11    1    3    3    0    0 -0.18735781918E+02 -0.48840573126E+01  0.94206005063E+01  0.21532098227E+02  0.51100000000E-03 0.  1.
         12    1    3    3    0    0 -0.12476303211E+02 -0.11225262985E+02  0.18185143117E+02  0.24745991617E+02  0.00000000000E+00 0. -1.
</event>
<event>
 7    1  0.1736465E-010  0.4778727E+02  0.7816164E-02  0.1312668E+00
        -11   -1    0    0    0    0  0.00000000000E+00  0.00000000000E+00  0.45593999997E+02  0.45594000000E+02  0.51100000000E-03 0.  1.
         11   -1    0    0    0    0 -0.00000000000E+00 -0.00000000000E+00 -0.45593999997E+02  0.45594000000E+02  0.51100000000E-03 0. -1.
    9900012    2    1    2    0    0 -0.35774765739E+02  0.12806223090E+01  0.24538734007E+02  0.47787270469E+02  0.19999997377E+02 0.  0.
         12    1    1    2    0    0  0.35774765739E+02 -0.12806223090E+01 -0.24538734007E+02  0.43400729531E+02  0.00000000000E+00 0. -1.
         11    1    3    3    0    0 -0.19673871882E+02 -0.30092106523E+00  0.17794432152E+02  0.26529108621E+02  0.51100000000E-03 0.  1.
        -11    1    3    3    0    0 -0.17631312359E+02  0.24269310036E+01  0.43994882699E+01  0.18333266673E+02  0.51100000000E-03 0. -1.
         12    1    3    3    0    0  0.15304185030E+01 -0.84538762940E+00  0.23448135848E+01  0.29248951751E+01  0.00000000000E+00 0. -1.
</event>
<event>
 7    1  0.1736465E-010  0.4778728E+02  0.7816164E-02  0.1312668E+00
        -11   -1    0    0    0    0  0.00000000000E+00  0.00000000000E+00  0.45593999997E+02  0.45594000000E+02  0.51100000000E-03 0.  1.
         11   -1    0    0    0    0 -0.00000000000E+00 -0.00000000000E+00 -0.45593999997E+02  0.45594000000E+02  0.51100000000E-03 0. -1.
    9900012    2    1    2    0    0  0.45322907359E+01 -0.83643844793E+01  0.42345227043E+02  0.47787276038E+02  0.20000022770E+02 0.  0.
         12    1    1    2    0    0 -0.45322907359E+01  0.83643844793E+01 -0.42345227043E+02  0.43400723962E+02  0.00000000000E+00 0. -1.
         11    1    3    3    0    0  0.17287998301E+01 -0.57828411485E+01  0.61434154883E+01  0.86122909104E+01  0.51100000000E-03 0. -1.
        -11    1    3    3    0    0  0.64202824159E+00  0.52626454564E+01  0.65481979374E+01  0.84253506723E+01  0.51100000000E-03 0.  1.
        -12    1    3    3    0    0  0.21614626642E+01 -0.78441887873E+01  0.29653613618E+02  0.30749634456E+02  0.00000000000E+00 0.  1.
</event>
<event>
 7    1  0.1736465E-010  0.4778725E+02  0.7816164E-02  0.1312668E+00
        -11   -1    0    0    0    0  0.00000000000E+00  0.00000000000E+00  0.45593999997E+02  0.45594000000E+02  0.51100000000E-03 0.  1.
         11   -1    0    0    0    0 -0.00000000000E+00 -0.00000000000E+00 -0.45593999997E+02  0.45594000000E+02  0.51100000000E-03 0. -1.
    9900012    2    1    2    0    0 -0.24504857369E+02  0.34381000364E+02  0.10054049324E+02  0.47787249678E+02  0.19999902581E+02 0.  0.
         12    1    1    2    0    0  0.24504857369E+02 -0.34381000364E+02 -0.10054049324E+02  0.43400750322E+02  0.00000000000E+00 0. -1.
         11    1    3    3    0    0 -0.48375421190E+01  0.59262863811E+01 -0.21903626018E+01  0.79574099186E+01  0.51100000000E-03 0. -1.
        -11    1    3    3    0    0 -0.28075374405E+01  0.66422482313E+01  0.97800377296E+01  0.12151167281E+02  0.51100000000E-03 0.  1.
        -12    1    3    3    0    0 -0.16859777810E+02  0.21812465752E+02  0.24643741963E+01  0.27678672478E+02  0.00000000000E+00 0.  1.
</event>
<event>
 7    1  0.1736465E-010  0.4778727E+02  0.7816164E-02  0.1312668E+00
        -11   -1    0    0    0    0  0.00000000000E+00  0.00000000000E+00  0.45593999997E+02  0.45594000000E+02  0.51100000000E-03 0. -1.
         11   -1    0    0    0    0 -0.00000000000E+00 -0.00000000000E+00 -0.45593999997E+02  0.45594000000E+02  0.51100000000E-03 0.  1.
    9900012    2    1    2    0    0 -0.25002414295E+02 -0.34135337222E+02 -0.96582367208E+01  0.47787268389E+02  0.19999987891E+02 0.  0.
         12    1    1    2    0    0  0.25002414295E+02  0.34135337222E+02  0.96582367208E+01  0.43400731611E+02  0.00000000000E+00 0. -1.
         11    1    3    3    0    0 -0.51378718956E+00 -0.66715611200E-01 -0.32074915905E+01  0.32490661447E+01  0.51100000000E-03 0. -1.
        -11    1    3    3    0    0 -0.12677420522E+02 -0.10766795764E+02  0.27149539584E+01  0.16852651346E+02  0.51100000000E-03 0.  1.
        -12    1    3    3    0    0 -0.11811206583E+02 -0.23301825847E+02 -0.91656990887E+01  0.27685550898E+02  0.00000000000E+00 0.  1.
</event>
<event>
 7    1  0.1736465E-010  0.4778727E+02  0.7816164E-02  0.1312668E+00
        -11   -1    0    0    0    0  0.00000000000E+00  0.00000000000E+00  0.45593999997E+02  0.45594000000E+02  0.51100000000E-03 0. -1.
         11   -1    0    0    0    0 -0.00000000000E+00 -0.00000000000E+00 -0.45593999997E+02  0.45594000000E+02  0.51100000000E-03 0.  1.
    9900012    2    1    2    0    0  0.65441934710E+01 -0.38723049527E+02 -0.18474900672E+02  0.47787274341E+02  0.20000015032E+02 0.  0.
         12    1    1    2    0    0 -0.65441934710E+01  0.38723049527E+02  0.18474900672E+02  0.43400725659E+02  0.00000000000E+00 0. -1.
         11    1    3    3    0    0  0.78474012916E+01 -0.44742436141E+01 -0.14371105988E+01  0.91469038523E+01  0.51100000000E-03 0. -1.
        -11    1    3    3    0    0  0.15397192929E+01 -0.38918242361E+01 -0.18217626090E+01  0.45646303958E+01  0.51100000000E-03 0.  1.
        -12    1    3    3    0    0 -0.28429271134E+01 -0.30356981677E+02 -0.15216027464E+02  0.34075740093E+02  0.00000000000E+00 0.  1.
</event>
<event>
 7    1  0.1736465E-010  0.4778727E+02  0.7816164E-02  0.1312668E+00
        -11   -1    0    0    0    0  0.00000000000E+00  0.00000000000E+00  0.45593999997E+02  0.45594000000E+02  0.51100000000E-03 0. -1.
         11   -1    0    0    0    0 -0.00000000000E+00 -0.00000000000E+00 -0.45593999997E+02  0.45594000000E+02  0.51100000000E-03 0.  1.
    9900012    2    1    2    0    0  0.37835828978E+02 -0.60548300101E+01 -0.20381669580E+02  0.47787269871E+02  0.19999994649E+02 0.  0.
         12    1    1    2    0    0 -0.37835828978E+02  0.60548300101E+01  0.20381669580E+02  0.43400730129E+02  0.00000000000E+00 0. -1.
         11    1    3    3    0    0  0.48064655839E+01  0.37341853489E+00 -0.54583772583E+01  0.72825431936E+01  0.51100000000E-03 0. -1.
        -11    1    3    3    0    0  0.15315192282E+02  0.47251873957E+01 -0.10347119418E+02  0.19077352832E+02  0.51100000000E-03 0.  1.
         12    1    3    3    0    0  0.17714171112E+02 -0.11153435941E+02 -0.45761729039E+01  0.21427373846E+02  0.00000000000E+00 0. -1.
</event>
<event>
 7    1  0.1736465E-010  0.4778728E+02  0.7816164E-02  0.1312668E+00
        -11   -1    0    0    0    0  0.00000000000E+00  0.00000000000E+00  0.45593999997E+02  0.45594000000E+02  0.51100000000E-03 0.  1.
         11   -1    0    0    0    0 -0.00000000000E+00 -0.00000000000E+00 -0.45593999997E+02  0.45594000000E+02  0.51100000000E-03 0. -1.
    9900012    2    1    2    0    0  0.39644191875E+02 -0.17299730041E+02 -0.35608588921E+01  0.47787281977E+02  0.20000049845E+02 0.  0.
         12    1    1    2    0    0 -0.39644191875E+02  0.17299730041E+02  0.35608588921E+01  0.43400718023E+02  0.00000000000E+00 0. -1.
         11    1    3    3    0    0  0.20284112438E+02 -0.12143855627E+02 -0.37929664190E+01  0.23943789203E+02  0.51100000000E-03 0. -1.
        -11    1    3    3    0    0  0.81437196800E+01 -0.12138120121E+01  0.64198643240E+01  0.10440697679E+02  0.51100000000E-03 0.  1.
         12    1    3    3    0    0  0.11216359757E+02 -0.39420624017E+01 -0.61877567970E+01  0.13402795095E+02  0.00000000000E+00 0. -1.
</event>
<event>
 7    1  0.1736465E-010  0.4778727E+02  0.7816164E-02  0.1312668E+00
        -11   -1    0    0    0    0  0.00000000000E+00  0.00000000000E+00  0.45593999997E+02  0.45594000000E+02  0.51100000000E-03 0. -1.
         11   -1    0    0    0    0 -0.00000000000E+00 -0.00000000000E+00 -0.45593999997E+02  0.45594000000E+02  0.51100000000E-03 0.  1.
    9900012    2    1    2    0    0  0.18597899946E+02 -0.34450884775E+02 -0.18731731582E+02  0.47787272906E+02  0.20000008489E+02 0.  0.
         12    1    1    2    0    0 -0.18597899946E+02  0.34450884775E+02  0.18731731582E+02  0.43400727094E+02  0.00000000000E+00 0. -1.
         11    1    3    3    0    0  0.13708702062E+02 -0.32381000396E+02 -0.19407531772E+02  0.40163540539E+02  0.51100000000E-03 0. -1.
        -11    1    3    3    0    0  0.32907618114E+01 -0.37597410452E+01 -0.49260313601E+00  0.50206995665E+01  0.51100000000E-03 0.  1.
         12    1    3    3    0    0  0.15984360725E+01  0.16898566664E+01  0.11684033257E+01  0.26030328009E+01  0.00000000000E+00 0. -1.
</event>
<event>
 7    1  0.1736465E-010  0.4778727E+02  0.7816164E-02  0.1312668E+00
        -11   -1    0    0    0    0  0.00000000000E+00  0.00000000000E+00  0.45593999997E+02  0.45594000000E+02  0.51100000000E-03 0.  1.
         11   -1    0    0    0    0 -0.00000000000E+00 -0.00000000000E+00 -0.45593999997E+02  0.45594000000E+02  0.51100000000E-03 0. -1.
    9900012    2    1    2    0    0  0.28484875368E+02 -0.32372588616E+02 -0.49245034870E+01  0.47787270133E+02  0.19999995843E+02 0.  0.
         12    1    1    2    0    0 -0.28484875368E+02  0.32372588616E+02  0.49245034870E+01  0.43400729867E+02  0.00000000000E+00 0. -1.
         11    1    3    3    0    0  0.36985362840E+01 -0.25476593797E+01 -0.16429164981E+01  0.47821453177E+01  0.51100000000E-03 0. -1.
        -11    1    3    3    0    0  0.20844581471E+02 -0.11462127639E+02 -0.43961714488E+01  0.24190974978E+02  0.51100000000E-03 0.  1.
         12    1    3    3    0    0  0.39417576131E+01 -0.18362801597E+02  0.11145844599E+01  0.18814149837E+02  0.00000000000E+00 0. -1.
</event>
<event>
 7    1  0.1736465E-010  0.4778727E+02  0.7816164E-02  0.1312668E+00
        -11   -1    0    0    0    0  0.00000000000E+00  0.00000000000E+00  0.45593999997E+02  0.45594000000E+02  0.51100000000E-03 0.  1.
         11   -1    0    0    0    0 -0.00000000000E+00 -0.00000000000E+00 -0.45593999997E+02  0.45594000000E+02  0.51100000000E-03 0. -1.
    9900012    2    1    2    0    0  0.10096232940E+02 -0.12079774924E+02  0.40444631359E+02  0.47787273191E+02  0.20000009787E+02 0.  0.
         12    1    1    2    0    0 -0.10096232940E+02  0.12079774924E+02 -0.40444631359E+02  0.43400726809E+02  0.00000000000E+00 0. -1.
         11    1    3    3    0    0 -0.72466787750E+00  0.31058031588E+01  0.22821657279E+01  0.39216625893E+01  0.51100000000E-03 0. -1.
        -11    1    3    3    0    0  0.30586403780E+01 -0.85887281317E+01  0.83582332074E+01  0.12368572856E+02  0.51100000000E-03 0.  1.
        -12    1    3    3    0    0  0.77622604390E+01 -0.65968499510E+01  0.29804232424E+02  0.31497037746E+02  0.00000000000E+00 0.  1.
</event>
<event>
 7    1  0.1736465E-010  0.4778726E+02  0.7816164E-02  0.1312668E+00
        -11   -1    0    0    0    0  0.00000000000E+00  0.00000000000E+00  0.45593999997E+02  0.45594000000E+02  0.51100000000E-03 0.  1.
         11   -1    0    0    0    0 -0.00000000000E+00 -0.00000000000E+00 -0.45593999997E+02  0.45594000000E+02  0.51100000000E-03 0. -1.
    9900012    2    1    2    0    0 -0.33606839713E+02 -0.26778766300E+02  0.60911818789E+01  0.47787256957E+02  0.19999935769E+02 0.  0.
         12    1    1    2    0    0  0.33606839713E+02  0.26778766300E+02 -0.60911818789E+01  0.43400743043E+02  0.00000000000E+00 0. -1.
         11    1    3    3    0    0 -0.29313527562E+02 -0.13925182853E+02  0.30468812041E+01  0.32595660768E+02  0.51100000000E-03 0. -1.
        -11    1    3    3    0    0 -0.58678754167E+01 -0.97642562183E+01  0.26978736467E+01  0.11706886173E+02  0.51100000000E-03 0.  1.
         12    1    3    3    0    0  0.15745632658E+01 -0.30893272286E+01  0.34642702809E+00  0.34847100150E+01  0.00000000000E+00 0. -1.
</event>
<event>
 7    1  0.1736465E-010  0.4778727E+02  0.7816164E-02  0.1312668E+00
        -11   -1    0    0    0    0  0.00000000000E+00  0.00000000000E+00  0.45593999997E+02  0.45594000000E+02  0.51100000000E-03 0. -1.
         11   -1    0    0    0    0 -0.00000000000E+00 -0.00000000000E+00 -0.45593999997E+02  0.45594000000E+02  0.51100000000E-03 0.  1.
    9900012    2    1    2    0    0  0.41788206819E+02 -0.30461897659E+01  0.11317673893E+02  0.47787271394E+02  0.20000001592E+02 0.  0.
         12    1    1    2    0    0 -0.41788206819E+02  0.30461897659E+01 -0.11317673893E+02  0.43400728606E+02  0.00000000000E+00 0. -1.
         11    1    3    3    0    0  0.19192379679E+02  0.44557274185E+01  0.73079941063E+01  0.21014464607E+02  0.51100000000E-03 0. -1.
        -11    1    3    3    0    0  0.14293561691E+02  0.12990299004E+01  0.26864458892E+01  0.14601725113E+02  0.51100000000E-03 0.  1.
         12    1    3    3    0    0  0.83022654485E+01 -0.88009470849E+01  0.13232338973E+01  0.12171081674E+02  0.00000000000E+00 0. -1.
</event>
<event>
 7    1  0.1736465E-010  0.4778727E+02  0.7816164E-02  0.1312668E+00
        -11   -1    0    0    0    0  0.00000000000E+00  0.00000000000E+00  0.45593999997E+02  0.45594000000E+02  0.51100000000E-03 0.  1.
         11   -1    0    0    0    0 -0.00000000000E+00 -0.00000000000E+00 -0.45593999997E+02  0.45594000000E+02  0.51100000000E-03 0. -1.
    9900012    2    1    2    0    0 -0.52330706517E+01 -0.21464646244E+02  0.37356494297E+02  0.47787265755E+02  0.19999975885E+02 0.  0.
         12    1    1    2    0    0  0.52330706517E+01  0.21464646244E+02 -0.37356494297E+02  0.43400734245E+02  0.00000000000E+00 0. -1.
         11    1    3    3    0    0  0.52673387465E+00 -0.13430085820E+02  0.14544036812E+02  0.19803374985E+02  0.51100000000E-03 0. -1.
        -11    1    3    3    0    0  0.31391417310E+01 -0.80876663556E+00  0.11227894261E+02  0.11686484676E+02  0.51100000000E-03 0.  1.
        -12    1    3    3    0    0 -0.88989462573E+01 -0.72257937883E+01  0.11584563223E+02  0.16297406095E+02  0.00000000000E+00 0.  1.
</event>
<event>
 7    1  0.1736465E-010  0.4778729E+02  0.7816164E-02  0.1312668E+00
        -11   -1    0    0    0    0  0.00000000000E+00  0.00000000000E+00  0.45593999997E+02  0.45594000000E+02  0.51100000000E-03 0.  1.
         11   -1    0    0    0    0 -0.00000000000E+00 -0.00000000000E+00 -0.45593999997E+02  0.45594000000E+02  0.51100000000E-03 0. -1.
    9900012    2    1    2    0    0  0.14286125899E+02  0.28051542845E+02  0.29877061417E+02  0.47787294383E+02  0.20000106408E+02 0.  0.
         12    1    1    2    0    0 -0.14286125899E+02 -0.28051542845E+02 -0.29877061417E+02  0.43400705617E+02  0.00000000000E+00 0. -1.
         11    1    3    3    0    0  0.42462503340E+01  0.13822131716E+02  0.86000406978E+01  0.16823871948E+02  0.51100000000E-03 0. -1.
        -11    1    3    3    0    0  0.20404100402E+01  0.84310208194E+01  0.18908913545E+02  0.20803663065E+02  0.51100000000E-03 0.  1.
         12    1    3    3    0    0  0.79994655249E+01  0.57983903097E+01  0.23681071738E+01  0.10159759370E+02  0.00000000000E+00 0. -1.
</event>
<event>
 7    1  0.1736465E-010  0.4778726E+02  0.7816164E-02  0.1312668E+00
        -11   -1    0    0    0    0  0.00000000000E+00  0.00000000000E+00  0.45593999997E+02  0.45594000000E+02  0.51100000000E-03 0.  1.
         11   -1    0    0    0    0 -0.00000000000E+00 -0.00000000000E+00 -0.45593999997E+02  0.45594000000E+02  0.51100000000E-03 0. -1.
    9900012    2    1    2    0    0 -0.30270368116E+02 -0.14957879261E+02  0.27268857854E+02  0.47787263295E+02  0.19999964669E+02 0.  0.
         12    1    1    2    0    0  0.30270368116E+02  0.14957879261E+02 -0.27268857854E+02  0.43400736705E+02  0.00000000000E+00 0. -1.
         11    1    3    3    0    0 -0.14954147481E+02 -0.11275461916E+02  0.43020253842E+01  0.19216399012E+02  0.51100000000E-03 0. -1.
        -11    1    3    3    0    0 -0.38166342484E+01 -0.47085971510E+00  0.17495096943E+01  0.42248302083E+01  0.51100000000E-03 0.  1.
        -12    1    3    3    0    0 -0.11499586386E+02 -0.32115576306E+01  0.21217322775E+02  0.24346034075E+02  0.00000000000E+00 0.  1.
</event>
<event>
 7    1  0.1736465E-010  0.4778727E+02  0.7816164E-02  0.1312668E+00
        -11   -1    0    0    0    0  0.00000000000E+00  0.00000000000E+00  0.45593999997E+02  0.45594000000E+02  0.51100000000E-03 0. -1.
         11   -1    0    0    0    0 -0.00000000000E+00 -0.00000000000E+00 -0.45593999997E+02  0.45594000000E+02  0.51100000000E-03 0.  1.
    9900012    2    1    2    0    0  0.31068543606E+02 -0.11788045763E+02 -0.27917936349E+02  0.47787267348E+02  0.19999983148E+02 0.  0.
         12    1    1    2    0    0 -0.31068543606E+02  0.11788045763E+02  0.27917936349E+02  0.43400732652E+02  0.00000000000E+00 0. -1.
         11    1    3    3    0    0  0.24499792897E+01 -0.53902839076E+01  0.10798251719E+01  0.60186029764E+01  0.51100000000E-03 0. -1.
        -11    1    3    3    0    0  0.82190642315E+01 -0.44809053371E+01 -0.11469227628E+02  0.14804550386E+02  0.51100000000E-03 0.  1.
        -12    1    3    3    0    0  0.20399500085E+02 -0.19168565181E+01 -0.17528533893E+02  0.26964113986E+02  0.00000000000E+00 0.  1.
</event>
<event>
 7    1  0.1736465E-010  0.4778727E+02  0.7816164E-02  0.1312668E+00
        -11   -1    0    0    0    0  0.00000000000E+00  0.00000000000E+00  0.45593999997E+02  0.45594000000E+02  0.51100000000E-03 0.  1.
         11   -1    0    0    0    0 -0.00000000000E+00 -0.00000000000E+00 -0.45593999997E+02  0.45594000000E+02  0.51100000000E-03 0. -1.
    9900012    2    1    2    0    0  0.24582248084E+02  0.33828420616E+02 -0.11617838361E+02  0.47787272696E+02  0.20000007532E+02 0.  0.
         12    1    1    2    0    0 -0.24582248084E+02 -0.33828420616E+02  0.11617838361E+02  0.43400727304E+02  0.00000000000E+00 0. -1.
         11    1    3    3    0    0  0.32950932365E+01  0.81323024566E+00  0.19599582375E+01  0.39192370972E+01  0.51100000000E-03 0. -1.
        -11    1    3    3    0    0  0.23000127952E+02  0.27214040494E+02 -0.10979727324E+02  0.37284907110E+02  0.51100000000E-03 0.  1.
         12    1    3    3    0    0 -0.17129731044E+01  0.58011498769E+01 -0.25980692752E+01  0.65831284895E+01  0.00000000000E+00 0. -1.
</event>
<event>
 7    1  0.1736465E-010  0.4778728E+02  0.7816164E-02  0.1312668E+00
        -11   -1    0    0    0    0  0.00000000000E+00  0.00000000000E+00  0.45593999997E+02  0.45594000000E+02  0.51100000000E-03 0.  1.
         11   -1    0    0    0    0 -0.00000000000E+00 -0.00000000000E+00 -0.45593999997E+02  0.45594000000E+02  0.51100000000E-03 0. -1.
    9900012    2    1    2    0    0  0.25863113499E+02  0.15191596189E+02  0.31367780216E+02  0.47787275693E+02  0.20000021195E+02 0.  0.
         12    1    1    2    0    0 -0.25863113499E+02 -0.15191596189E+02 -0.31367780216E+02  0.43400724307E+02  0.00000000000E+00 0. -1.
         11    1    3    3    0    0  0.31573225142E+01 -0.93238465649E+00  0.48529038265E+01  0.58641881294E+01  0.51100000000E-03 0.  1.
        -11    1    3    3    0    0  0.68658887066E+01 -0.22621617635E+01  0.10851638119E+02  0.13039012758E+02  0.51100000000E-03 0. -1.
        -12    1    3    3    0    0  0.15839902278E+02  0.18386142609E+02  0.15663238271E+02  0.28884074806E+02  0.00000000000E+00 0.  1.
</event>
<event>
 7    1  0.1736465E-010  0.4778727E+02  0.7816164E-02  0.1312668E+00
        -11   -1    0    0    0    0  0.00000000000E+00  0.00000000000E+00  0.45593999997E+02  0.45594000000E+02  0.51100000000E-03 0.  1.
         11   -1    0    0    0    0 -0.00000000000E+00 -0.00000000000E+00 -0.45593999997E+02  0.45594000000E+02  0.51100000000E-03 0. -1.
    9900012    2    1    2    0    0 -0.95219424409E+00  0.91080625337E+01  0.42423576873E+02  0.47787270148E+02  0.19999995912E+02 0.  0.
         12    1    1    2    0    0  0.95219424409E+00 -0.91080625337E+01 -0.42423576873E+02  0.43400729852E+02  0.00000000000E+00 0. -1.
         11    1    3    3    0    0 -0.66527425482E+00  0.25364988505E+01  0.57191220578E+01  0.62916431579E+01  0.51100000000E-03 0. -1.
        -11    1    3    3    0    0  0.53996602754E+01  0.34874519673E+01  0.33797652449E+02  0.34403487667E+02  0.51100000000E-03 0.  1.
         12    1    3    3    0    0 -0.56865802647E+01  0.30841117159E+01  0.29068023662E+01  0.70921393231E+01  0.00000000000E+00 0. -1.
</event>
<event>
 7    1  0.1736465E-010  0.4778727E+02  0.7816164E-02  0.1312668E+00
        -11   -1    0    0    0    0  0.00000000000E+00  0.00000000000E+00  0.45593999997E+02  0.45594000000E+02  0.51100000000E-03 0.  1.
         11   -1    0    0    0    0 -0.00000000000E+00 -0.00000000000E+00 -0.45593999997E+02  0.45594000000E+02  0.51100000000E-03 0. -1.
    9900012    2    1    2    0    0 -0.17058064280E+02  0.36238568457E+02  0.16715608354E+02  0.47787274621E+02  0.20000016307E+02 0.  0.
         12    1    1    2    0    0  0.17058064280E+02 -0.36238568457E+02 -0.16715608354E+02  0.43400725379E+02  0.00000000000E+00 0. -1.
         11    1    3    3    0    0  0.31124080850E+00  0.12691277967E+02  0.61469995300E+01  0.14104999495E+02  0.51100000000E-03 0. -1.
        -11    1    3    3    0    0 -0.85575143930E+01  0.21114716292E+02  0.84426482241E+01  0.24296925854E+02  0.51100000000E-03 0.  1.
        -12    1    3    3    0    0 -0.88117906952E+01  0.24325741988E+01  0.21259605998E+01  0.93853492721E+01  0.00000000000E+00 0.  1.
</event>
<event>
 7    1  0.1736465E-010  0.4778727E+02  0.7816164E-02  0.1312668E+00
        -11   -1    0    0    0    0  0.00000000000E+00  0.00000000000E+00  0.45593999997E+02  0.45594000000E+02  0.51100000000E-03 0. -1.
         11   -1    0    0    0    0 -0.00000000000E+00 -0.00000000000E+00 -0.45593999997E+02  0.45594000000E+02  0.51100000000E-03 0.  1.
    9900012    2    1    2    0    0  0.44271529904E+01  0.18562354407E+02 -0.38980286411E+02  0.47787269437E+02  0.19999992672E+02 0.  0.
         12    1    1    2    0    0 -0.44271529904E+01 -0.18562354407E+02  0.38980286411E+02  0.43400730563E+02  0.00000000000E+00 0. -1.
         11    1    3    3    0    0 -0.37272689253E+01  0.30218458533E+01 -0.14990346683E+01  0.50270459716E+01  0.51100000000E-03 0. -1.
        -11    1    3    3    0    0  0.46229942922E+01  0.11476809283E+02 -0.14063403199E+02  0.18731485188E+02  0.51100000000E-03 0.  1.
        -12    1    3    3    0    0  0.35314276236E+01  0.40636992708E+01 -0.23417848543E+02  0.24028738278E+02  0.00000000000E+00 0.  1.
</event>
<event>
 7    1  0.1736465E-010  0.4778728E+02  0.7816164E-02  0.1312668E+00
        -11   -1    0    0    0    0  0.00000000000E+00  0.00000000000E+00  0.45593999997E+02  0.45594000000E+02  0.51100000000E-03 0.  1.
         11   -1    0    0    0    0 -0.00000000000E+00 -0.00000000000E+00 -0.45593999997E+02  0.45594000000E+02  0.51100000000E-03 0. -1.
    9900012    2    1    2    0    0 -0.19270853803E+02 -0.25680297487E+02  0.29202387199E+02  0.47787275312E+02  0.20000019459E+02 0.  0.
         12    1    1    2    0    0  0.19270853803E+02  0.25680297487E+02 -0.29202387199E+02  0.43400724688E+02  0.00000000000E+00 0. -1.
         11    1    3    3    0    0 -0.83801632970E+01 -0.19801882147E+02  0.16654616992E+02  0.27197756173E+02  0.51100000000E-03 0. -1.
        -11    1    3    3    0    0 -0.57724093346E+01 -0.24542663474E+01  0.12980202689E+02  0.14416303095E+02  0.51100000000E-03 0.  1.
         12    1    3    3    0    0 -0.51182811711E+01 -0.34241489934E+01 -0.43243248216E+00  0.61732160441E+01  0.00000000000E+00 0. -1.
</event>
<event>
 7    1  0.1736465E-010  0.4778727E+02  0.7816164E-02  0.1312668E+00
        -11   -1    0    0    0    0  0.00000000000E+00  0.00000000000E+00  0.45593999997E+02  0.45594000000E+02  0.51100000000E-03 0. -1.
         11   -1    0    0    0    0 -0.00000000000E+00 -0.00000000000E+00 -0.45593999997E+02  0.45594000000E+02  0.51100000000E-03 0.  1.
    9900012    2    1    2    0    0  0.14964023909E+01 -0.33498855899E+02 -0.27553774515E+02  0.47787273547E+02  0.20000011408E+02 0.  0.
         12    1    1    2    0    0 -0.14964023909E+01  0.33498855899E+02  0.27553774515E+02  0.43400726453E+02  0.00000000000E+00 0. -1.
         11    1    3    3    0    0  0.44256268351E+01 -0.30929083724E+02 -0.15515156016E+02  0.34884301044E+02  0.51100000000E-03 0. -1.
        -11    1    3    3    0    0 -0.10081555310E+01 -0.25189484037E+01 -0.74201192698E+01  0.79006106646E+01  0.51100000000E-03 0.  1.
         12    1    3    3    0    0 -0.19210689132E+01 -0.50823771522E-01 -0.46184992294E+01  0.50023618378E+01  0.00000000000E+00 0. -1.
</event>
<event>
 7    1  0.1736465E-010  0.4778730E+02  0.7816164E-02  0.1312668E+00
        -11   -1    0    0    0    0  0.00000000000E+00  0.00000000000E+00  0.45593999997E+02  0.45594000000E+02  0.51100000000E-03 0. -1.
         11   -1    0    0    0    0 -0.00000000000E+00 -0.00000000000E+00 -0.45593999997E+02  0.45594000000E+02  0.51100000000E-03 0.  1.
    9900012    2    1    2    0    0 -0.61678739381E+01 -0.14089444033E+02 -0.40584060305E+02  0.47787296631E+02  0.20000116659E+02 0.  0.
         12    1    1    2    0    0  0.61678739381E+01  0.14089444033E+02  0.40584060305E+02  0.43400703369E+02  0.00000000000E+00 0. -1.
         11    1    3    3    0    0  0.37136272151E+01  0.62727371785E+00 -0.18124414250E+02  0.18511588035E+02  0.51100000000E-03 0. -1.
        -11    1    3    3    0    0  0.27791767137E+00 -0.37799891411E+01 -0.55399460092E+01  0.67124182069E+01  0.51100000000E-03 0.  1.
        -12    1    3    3    0    0 -0.10159418825E+02 -0.10936728610E+02 -0.16919700046E+02  0.22563290389E+02  0.00000000000E+00 0.  1.
</event>
<event>
 7    1  0.1736465E-010  0.4778728E+02  0.7816164E-02  0.1312668E+00
        -11   -1    0    0    0    0  0.00000000000E+00  0.00000000000E+00  0.45593999997E+02  0.45594000000E+02  0.51100000000E-03 0.  1.
         11   -1    0    0    0    0 -0.00000000000E+00 -0.00000000000E+00 -0.45593999997E+02  0.45594000000E+02  0.51100000000E-03 0. -1.
    9900012    2    1    2    0    0 -0.16194532135E+02  0.19382131522E+02  0.35294372851E+02  0.47787278250E+02  0.20000032855E+02 0.  0.
         12    1    1    2    0    0  0.16194532135E+02 -0.19382131522E+02 -0.35294372851E+02  0.43400721750E+02  0.00000000000E+00 0. -1.
         11    1    3    3    0    0 -0.69065789284E+01  0.20080568835E+01  0.19650132299E+01  0.74561653815E+01  0.51100000000E-03 0. -1.
        -11    1    3    3    0    0  0.74032697107E+00  0.10250840425E+02  0.13026643593E+02  0.16592807388E+02  0.51100000000E-03 0.  1.
         12    1    3    3    0    0 -0.10028280178E+02  0.71232342136E+01  0.20302716028E+02  0.23738305481E+02  0.00000000000E+00 0. -1.
</event>
<event>
 7    1  0.1736465E-010  0.4778727E+02  0.7816164E-02  0.1312668E+00
        -11   -1    0    0    0    0  0.00000000000E+00  0.00000000000E+00  0.45593999997E+02  0.45594000000E+02  0.51100000000E-03 0. -1.
         11   -1    0    0    0    0 -0.00000000000E+00 -0.00000000000E+00 -0.45593999997E+02  0.45594000000E+02  0.51100000000E-03 0.  1.
    9900012    2    1    2    0    0  0.76213904372E+01 -0.26725672490E+02 -0.33335810662E+02  0.47787269191E+02  0.19999991552E+02 0.  0.
         12    1    1    2    0    0 -0.76213904372E+01  0.26725672490E+02  0.33335810662E+02  0.43400730809E+02  0.00000000000E+00 0. -1.
         11    1    3    3    0    0 -0.47627160843E+01 -0.45179297139E+01 -0.51282303796E+01  0.83303001438E+01  0.51100000000E-03 0. -1.
        -11    1    3    3    0    0  0.64115316412E+01 -0.31818896472E+01 -0.10967439565E+02  0.13096445724E+02  0.51100000000E-03 0.  1.
         12    1    3    3    0    0  0.59725748803E+01 -0.19025853129E+02 -0.17240140717E+02  0.26360523324E+02  0.00000000000E+00 0. -1.
</event>
<event>
 7    1  0.1736465E-010  0.4778727E+02  0.7816164E-02  0.1312668E+00
        -11   -1    0    0    0    0  0.00000000000E+00  0.00000000000E+00  0.45593999997E+02  0.45594000000E+02  0.51100000000E-03 0. -1.
         11   -1    0    0    0    0 -0.00000000000E+00 -0.00000000000E+00 -0.45593999997E+02  0.45594000000E+02  0.51100000000E-03 0.  1.
    9900012    2    1    2    0    0 -0.70840623584E+01 -0.32142799853E+02 -0.28289217134E+02  0.47787270422E+02  0.19999997161E+02 0.  0.
         12    1    1    2    0    0  0.70840623584E+01  0.32142799853E+02  0.28289217134E+02  0.43400729578E+02  0.00000000000E+00 0. -1.
         11    1    3    3    0    0 -0.84136524892E+01 -0.57694831418E+01 -0.61455599356E+01  0.11909844294E+02  0.51100000000E-03 0. -1.
        -11    1    3    3    0    0  0.36730160677E+01 -0.56562941537E+01 -0.23864132659E+01  0.71539974227E+01  0.51100000000E-03 0.  1.
        -12    1    3    3    0    0 -0.23434259369E+01 -0.20717022557E+02 -0.19757243932E+02  0.28723428705E+02  0.00000000000E+00 0.  1.
</event>
<event>
 7    1  0.1736465E-010  0.4778727E+02  0.7816164E-02  0.1312668E+00
        -11   -1    0    0    0    0  0.00000000000E+00  0.00000000000E+00  0.45593999997E+02  0.45594000000E+02  0.51100000000E-03 0. -1.
         11   -1    0    0    0    0 -0.00000000000E+00 -0.00000000000E+00 -0.45593999997E+02  0.45594000000E+02  0.51100000000E-03 0.  1.
    9900012    2    1    2    0    0 -0.25855372010E+01  0.43203484340E+02 -0.32244742369E+01  0.47787270791E+02  0.19999998844E+02 0.  0.
         12    1    1    2    0    0  0.25855372010E+01 -0.43203484340E+02  0.32244742369E+01  0.43400729209E+02  0.00000000000E+00 0. -1.
         11    1    3    3    0    0  0.11220084015E+00 -0.47599816882E+00 -0.17635034057E+01  0.18300567773E+01  0.51100000000E-03 0. -1.
        -11    1    3    3    0    0  0.19008769030E+01  0.16560649687E+02 -0.66844015540E+01  0.17959668022E+02  0.51100000000E-03 0.  1.
        -12    1    3    3    0    0 -0.45986149441E+01  0.27118832822E+02  0.52234307228E+01  0.27997545992E+02  0.00000000000E+00 0.  1.
</event>
<event>
 7    1  0.1736465E-010  0.4778727E+02  0.7816164E-02  0.1312668E+00
        -11   -1    0    0    0    0  0.00000000000E+00  0.00000000000E+00  0.45593999997E+02  0.45594000000E+02  0.51100000000E-03 0.  1.
         11   -1    0    0    0    0 -0.00000000000E+00 -0.00000000000E+00 -0.45593999997E+02  0.45594000000E+02  0.51100000000E-03 0. -1.
    9900012    2    1    2    0    0 -0.31944433430E+02 -0.27748680112E+02  0.96533541051E+01  0.47787270506E+02  0.19999997545E+02 0.  0.
         12    1    1    2    0    0  0.31944433430E+02  0.27748680112E+02 -0.96533541051E+01  0.43400729494E+02  0.00000000000E+00 0. -1.
         11    1    3    3    0    0 -0.10562583463E+02 -0.13639986770E+02  0.23690780412E+01  0.17413498773E+02  0.51100000000E-03 0. -1.
        -11    1    3    3    0    0 -0.17132243690E+02 -0.80050222974E+01  0.11190322451E+02  0.21973107943E+02  0.51100000000E-03 0.  1.
        -12    1    3    3    0    0 -0.42496062762E+01 -0.61036710451E+01 -0.39060463873E+01  0.84006637898E+01  0.00000000000E+00 0.  1.
</event>
<event>
 7    1  0.1736465E-010  0.4778727E+02  0.7816164E-02  0.1312668E+00
        -11   -1    0    0    0    0  0.00000000000E+00  0.00000000000E+00  0.45593999997E+02  0.45594000000E+02  0.51100000000E-03 0.  1.
         11   -1    0    0    0    0 -0.00000000000E+00 -0.00000000000E+00 -0.45593999997E+02  0.45594000000E+02  0.51100000000E-03 0. -1.
    9900012    2    1    2    0    0 -0.34993130605E+02 -0.24397029398E+02  0.79930820902E+01  0.47787267353E+02  0.19999983171E+02 0.  0.
         12    1    1    2    0    0  0.34993130605E+02  0.24397029398E+02 -0.79930820902E+01  0.43400732647E+02  0.00000000000E+00 0. -1.
         11    1    3    3    0    0 -0.35477770777E+01 -0.66746476944E+01 -0.29973977454E+01  0.81315458274E+01  0.51100000000E-03 0. -1.
        -11    1    3    3    0    0 -0.17811673480E+02 -0.16617434776E+02  0.81377540004E+01  0.25683027297E+02  0.51100000000E-03 0.  1.
         12    1    3    3    0    0 -0.13633680047E+02 -0.11049469281E+01  0.28527258352E+01  0.13972694229E+02  0.00000000000E+00 0. -1.
</event>
<event>
 7    1  0.1736465E-010  0.4778727E+02  0.7816164E-02  0.1312668E+00
        -11   -1    0    0    0    0  0.00000000000E+00  0.00000000000E+00  0.45593999997E+02  0.45594000000E+02  0.51100000000E-03 0.  1.
         11   -1    0    0    0    0 -0.00000000000E+00 -0.00000000000E+00 -0.45593999997E+02  0.45594000000E+02  0.51100000000E-03 0. -1.
    9900012    2    1    2    0    0  0.34256840397E+02  0.71935589782E+01  0.25658236697E+02  0.47787268265E+02  0.19999987327E+02 0.  0.
         12    1    1    2    0    0 -0.34256840397E+02 -0.71935589782E+01 -0.25658236697E+02  0.43400731735E+02  0.00000000000E+00 0. -1.
         11    1    3    3    0    0  0.21065618340E+01 -0.71729445177E+00 -0.93324617209E+00  0.24131023123E+01  0.51100000000E-03 0. -1.
        -11    1    3    3    0    0  0.28131479716E+02  0.12472471664E+01  0.16522208430E+02  0.32648417238E+02  0.51100000000E-03 0.  1.
         12    1    3    3    0    0  0.40187988466E+01  0.66636062636E+01  0.10069274439E+02  0.12725748714E+02  0.00000000000E+00 0. -1.
</event>
<event>
 7    1  0.1736465E-010  0.4778727E+02  0.7816164E-02  0.1312668E+00
        -11   -1    0    0    0    0  0.00000000000E+00  0.00000000000E+00  0.45593999997E+02  0.45594000000E+02  0.51100000000E-03 0.  1.
         11   -1    0    0    0    0 -0.00000000000E+00 -0.00000000000E+00 -0.45593999997E+02  0.45594000000E+02  0.51100000000E-03 0. -1.
    9900012    2    1    2    0    0 -0.75082698236E+01 -0.13190478886E+02  0.40660301065E+02  0.47787274987E+02  0.20000017974E+02 0.  0.
         12    1    1    2    0    0  0.75082698236E+01  0.13190478886E+02 -0.40660301065E+02  0.43400725013E+02  0.00000000000E+00 0. -1.
         11    1    3    3    0    0 -0.77826963021E+01 -0.19351372734E+01  0.25357077382E+02  0.26595046373E+02  0.51100000000E-03 0.  1.
        -11    1    3    3    0    0 -0.15893055340E+01 -0.73230824380E+00 -0.75269601804E+00  0.19049196836E+01  0.51100000000E-03 0. -1.
        -12    1    3    3    0    0  0.18637320125E+01 -0.10523033369E+02  0.16055919701E+02  0.19287308930E+02  0.00000000000E+00 0.  1.
</event>
<event>
 7    1  0.1736465E-010  0.4778727E+02  0.7816164E-02  0.1312668E+00
        -11   -1    0    0    0    0  0.00000000000E+00  0.00000000000E+00  0.45593999997E+02  0.45594000000E+02  0.51100000000E-03 0.  1.
         11   -1    0    0    0    0 -0.00000000000E+00 -0.00000000000E+00 -0.45593999997E+02  0.45594000000E+02  0.51100000000E-03 0. -1.
    9900012    2    1    2    0    0 -0.42455434564E+02  0.23956603937E+01  0.86844777318E+01  0.47787271132E+02  0.20000000401E+02 0.  0.
         12    1    1    2    0    0  0.42455434564E+02 -0.23956603937E+01 -0.86844777318E+01  0.43400728868E+02  0.00000000000E+00 0. -1.
         11    1    3    3    0    0 -0.17238358501E+02 -0.26127173896E+01 -0.64528115245E-02  0.17435232659E+02  0.51100000000E-03 0. -1.
        -11    1    3    3    0    0 -0.24450449662E+02  0.35338144219E+01  0.35612655091E+01  0.24959866693E+02  0.51100000000E-03 0.  1.
         12    1    3    3    0    0 -0.76662640132E+00  0.14745633614E+01  0.51296650343E+01  0.53921717804E+01  0.00000000000E+00 0. -1.
</event>
<event>
 7    1  0.1736465E-010  0.4778727E+02  0.7816164E-02  0.1312668E+00
        -11   -1    0    0    0    0  0.00000000000E+00  0.00000000000E+00  0.45593999997E+02  0.45594000000E+02  0.51100000000E-03 0.  1.
         11   -1    0    0    0    0 -0.00000000000E+00 -0.00000000000E+00 -0.45593999997E+02  0.45594000000E+02  0.51100000000E-03 0. -1.
    9900012    2    1    2    0    0 -0.91028983500E+01 -0.86332938532E+01  0.41547883865E+02  0.47787272186E+02  0.20000005203E+02 0.  0.
         12    1    1    2    0    0  0.91028983500E+01  0.86332938532E+01 -0.41547883865E+02  0.43400727814E+02  0.00000000000E+00 0. -1.
         11    1    3    3    0    0 -0.34904953844E+01 -0.79866823064E+01  0.77438751816E+01  0.11659256210E+02  0.51100000000E-03 0. -1.
        -11    1    3    3    0    0 -0.60133205703E+01 -0.48823432051E+01  0.27122444616E+02  0.28206813036E+02  0.51100000000E-03 0.  1.
         12    1    3    3    0    0  0.40091760469E+00  0.42357316583E+01  0.66815640679E+01  0.79212029389E+01  0.00000000000E+00 0. -1.
</event>
<event>
 7    1  0.1736465E-010  0.4778727E+02  0.7816164E-02  0.1312668E+00
        -11   -1    0    0    0    0  0.00000000000E+00  0.00000000000E+00  0.45593999997E+02  0.45594000000E+02  0.51100000000E-03 0. -1.
         11   -1    0    0    0    0 -0.00000000000E+00 -0.00000000000E+00 -0.45593999997E+02  0.45594000000E+02  0.51100000000E-03 0.  1.
    9900012    2    1    2    0    0 -0.35972040918E+02  0.73068945023E+01 -0.23156953949E+02  0.47787274761E+02  0.20000016945E+02 0.  0.
         12    1    1    2    0    0  0.35972040918E+02 -0.73068945023E+01  0.23156953949E+02  0.43400725239E+02  0.00000000000E+00 0. -1.
         11    1    3    3    0    0 -0.22630292662E+01  0.58756944008E+01 -0.23564457469E+00  0.63008423864E+01  0.51100000000E-03 0. -1.
        -11    1    3    3    0    0 -0.15627173977E+02  0.13945737059E+01 -0.62381554054E+01  0.16883956451E+02  0.51100000000E-03 0.  1.
        -12    1    3    3    0    0 -0.18081837675E+02  0.36626395589E-01 -0.16683153969E+02  0.24602475923E+02  0.00000000000E+00 0.  1.
</event>
<event>
 7    1  0.1736465E-010  0.4778727E+02  0.7816164E-02  0.1312668E+00
        -11   -1    0    0    0    0  0.00000000000E+00  0.00000000000E+00  0.45593999997E+02  0.45594000000E+02  0.51100000000E-03 0.  1.
         11   -1    0    0    0    0 -0.00000000000E+00 -0.00000000000E+00 -0.45593999997E+02  0.45594000000E+02  0.51100000000E-03 0. -1.
    9900012    2    1    2    0    0 -0.12431378428E+00 -0.23828417052E+02  0.36274153014E+02  0.47787273163E+02  0.20000009659E+02 0.  0.
         12    1    1    2    0    0  0.12431378428E+00  0.23828417052E+02 -0.36274153014E+02  0.43400726837E+02  0.00000000000E+00 0. -1.
         11    1    3    3    0    0  0.76475556569E+00 -0.13640740039E+02  0.21562071115E+02  0.25526017138E+02  0.51100000000E-03 0. -1.
        -11    1    3    3    0    0 -0.55209832863E+01 -0.92135218694E+01  0.58909178985E+01  0.12250434916E+02  0.51100000000E-03 0.  1.
         12    1    3    3    0    0  0.46319139363E+01 -0.97415514324E+00  0.88211640004E+01  0.10010821109E+02  0.00000000000E+00 0. -1.
</event>
<event>
 7    1  0.1736465E-010  0.4778726E+02  0.7816164E-02  0.1312668E+00
        -11   -1    0    0    0    0  0.00000000000E+00  0.00000000000E+00  0.45593999997E+02  0.45594000000E+02  0.51100000000E-03 0. -1.
         11   -1    0    0    0    0 -0.00000000000E+00 -0.00000000000E+00 -0.45593999997E+02  0.45594000000E+02  0.51100000000E-03 0.  1.
    9900012    2    1    2    0    0 -0.23020390809E+02  0.15590559061E+02 -0.33325971074E+02  0.47787259536E+02  0.19999947529E+02 0.  0.
         12    1    1    2    0    0  0.23020390809E+02 -0.15590559061E+02  0.33325971074E+02  0.43400740464E+02  0.00000000000E+00 0. -1.
         11    1    3    3    0    0 -0.91273073887E+01  0.13380122396E+02 -0.21403928281E+02  0.26841452301E+02  0.51100000000E-03 0. -1.
        -11    1    3    3    0    0  0.40028154679E+00 -0.13564207655E+01  0.67086492773E+00  0.15652995312E+01  0.51100000000E-03 0.  1.
        -12    1    3    3    0    0 -0.14293364967E+02  0.35668574297E+01 -0.12592907720E+02  0.19380507703E+02  0.00000000000E+00 0.  1.
</event>
<event>
 7    1  0.1736465E-010  0.4778727E+02  0.7816164E-02  0.1312668E+00
        -11   -1    0    0    0    0  0.00000000000E+00  0.00000000000E+00  0.45593999997E+02  0.45594000000E+02  0.51100000000E-03 0. -1.
         11   -1    0    0    0    0 -0.00000000000E+00 -0.00000000000E+00 -0.45593999997E+02  0.45594000000E+02  0.51100000000E-03 0.  1.
    9900012    2    1    2    0    0  0.79396870116E+01 -0.16246016692E+02 -0.39454423399E+02  0.47787271735E+02  0.20000003147E+02 0.  0.
         12    1    1    2    0    0 -0.79396870116E+01  0.16246016692E+02  0.39454423399E+02  0.43400728265E+02  0.00000000000E+00 0. -1.
         11    1    3    3    0    0  0.17035967510E+01 -0.16047119554E+02 -0.13781117804E+02  0.21221015434E+02  0.51100000000E-03 0. -1.
        -11    1    3    3    0    0  0.27850794061E+01 -0.10095403677E+01 -0.15812560618E+02  0.16087663367E+02  0.51100000000E-03 0.  1.
         12    1    3    3    0    0  0.34510108546E+01  0.81064322910E+00 -0.98607449772E+01  0.10478592934E+02  0.00000000000E+00 0. -1.
</event>
<event>
 7    1  0.1736465E-010  0.4778727E+02  0.7816164E-02  0.1312668E+00
        -11   -1    0    0    0    0  0.00000000000E+00  0.00000000000E+00  0.45593999997E+02  0.45594000000E+02  0.51100000000E-03 0. -1.
         11   -1    0    0    0    0 -0.00000000000E+00 -0.00000000000E+00 -0.45593999997E+02  0.45594000000E+02  0.51100000000E-03 0.  1.
    9900012    2    1    2    0    0 -0.42079907990E+02 -0.10367425181E+02  0.23283335566E+01  0.47787270761E+02  0.19999998709E+02 0.  0.
         12    1    1    2    0    0  0.42079907990E+02  0.10367425181E+02 -0.23283335566E+01  0.43400729239E+02  0.00000000000E+00 0. -1.
         11    1    3    3    0    0 -0.18497636813E+02  0.49534551327E+01  0.15010949362E+01  0.19208138162E+02  0.51100000000E-03 0. -1.
        -11    1    3    3    0    0  0.28066178696E-01  0.16530527351E+00 -0.27452086486E+00  0.32167609517E+00  0.51100000000E-03 0.  1.
        -12    1    3    3    0    0 -0.23610337356E+02 -0.15486185587E+02  0.11017594852E+01  0.28257456504E+02  0.00000000000E+00 0.  1.
</event>
<event>
 7    1  0.1736465E-010  0.4778727E+02  0.7816164E-02  0.1312668E+00
        -11   -1    0    0    0    0  0.00000000000E+00  0.00000000000E+00  0.45593999997E+02  0.45594000000E+02  0.51100000000E-03 0.  1.
         11   -1    0    0    0    0 -0.00000000000E+00 -0.00000000000E+00 -0.45593999997E+02  0.45594000000E+02  0.51100000000E-03 0. -1.
    9900012    2    1    2    0    0  0.35841586652E+02  0.24474322469E+02 -0.10726846015E+00  0.47787270737E+02  0.19999998597E+02 0.  0.
         12    1    1    2    0    0 -0.35841586652E+02 -0.24474322469E+02  0.10726846015E+00  0.43400729263E+02  0.00000000000E+00 0. -1.
         11    1    3    3    0    0  0.37371647100E+01  0.23488361560E+00 -0.29088962691E+01  0.47416503612E+01  0.51100000000E-03 0. -1.
        -11    1    3    3    0    0  0.48626196302E+01  0.74421778736E+01  0.62341107547E+01  0.10857956453E+02  0.51100000000E-03 0.  1.
         12    1    3    3    0    0  0.27241802312E+02  0.16797260980E+02 -0.34324829457E+01  0.32187663923E+02  0.00000000000E+00 0. -1.
</event>
<event>
 7    1  0.1736465E-010  0.4778727E+02  0.7816164E-02  0.1312668E+00
        -11   -1    0    0    0    0  0.00000000000E+00  0.00000000000E+00  0.45593999997E+02  0.45594000000E+02  0.51100000000E-03 0.  1.
         11   -1    0    0    0    0 -0.00000000000E+00 -0.00000000000E+00 -0.45593999997E+02  0.45594000000E+02  0.51100000000E-03 0. -1.
    9900012    2    1    2    0    0 -0.29257789103E+01 -0.94636597950E+00  0.43291656773E+02  0.47787270318E+02  0.19999996686E+02 0.  0.
         12    1    1    2    0    0  0.29257789103E+01  0.94636597950E+00 -0.43291656773E+02  0.43400729682E+02  0.00000000000E+00 0. -1.
         11    1    3    3    0    0  0.40978725139E+01 -0.53216978091E+01  0.21609050244E+02  0.22628832922E+02  0.51100000000E-03 0.  1.
        -11    1    3    3    0    0  0.23265144397E+01  0.15214609045E+01  0.31188043522E+01  0.41778527464E+01  0.51100000000E-03 0. -1.
        -12    1    3    3    0    0 -0.93501658639E+01  0.28538709251E+01  0.18563802177E+02  0.20980584649E+02  0.00000000000E+00 0.  1.
</event>
<event>
 7    1  0.1751150E-010  0.4778727E+02  0.7816164E-02  0.1312668E+00
        -11   -1    0    0    0    0  0.00000000000E+00  0.00000000000E+00  0.45593999997E+02  0.45594000000E+02  0.51100000000E-03 0.  1.
         11   -1    0    0    0    0 -0.00000000000E+00 -0.00000000000E+00 -0.45593999997E+02  0.45594000000E+02  0.51100000000E-03 0. -1.
    9900012    2    1    2    0    0  0.31769083333E+02 -0.17290532437E+02  0.23987210750E+02  0.47787269046E+02  0.19999990888E+02 0.  0.
         12    1    1    2    0    0 -0.31769083333E+02  0.17290532437E+02 -0.23987210750E+02  0.43400730954E+02  0.00000000000E+00 0. -1.
         11    1    3    3    0    0  0.20269135200E+01  0.21447380357E+01 -0.14854010638E+01  0.33037397356E+01  0.51100000000E-03 0. -1.
        -11    1    3    3    0    0  0.81385623532E+01 -0.45885415732E+01  0.11373734047E+02  0.14719128282E+02  0.51100000000E-03 0.  1.
        -12    1    3    3    0    0  0.21603607460E+02 -0.14846728899E+02  0.14098877767E+02  0.29764401029E+02  0.00000000000E+00 0.  1.
</event>
<event>
 7    1  0.1736465E-010  0.4778728E+02  0.7816164E-02  0.1312668E+00
        -11   -1    0    0    0    0  0.00000000000E+00  0.00000000000E+00  0.45593999997E+02  0.45594000000E+02  0.51100000000E-03 0.  1.
         11   -1    0    0    0    0 -0.00000000000E+00 -0.00000000000E+00 -0.45593999997E+02  0.45594000000E+02  0.51100000000E-03 0. -1.
    9900012    2    1    2    0    0  0.39846093136E+02 -0.61195621706E+01  0.16076775338E+02  0.47787275529E+02  0.20000020447E+02 0.  0.
         12    1    1    2    0    0 -0.39846093136E+02  0.61195621706E+01 -0.16076775338E+02  0.43400724471E+02  0.00000000000E+00 0. -1.
         11    1    3    3    0    0  0.10017217635E+02  0.46706800598E+01  0.46937095366E+01  0.12007947819E+02  0.51100000000E-03 0. -1.
        -11    1    3    3    0    0  0.14765947158E+02 -0.42246072364E+01 -0.71394821822E+00  0.15374986962E+02  0.51100000000E-03 0.  1.
         12    1    3    3    0    0  0.15062928343E+02 -0.65656349939E+01  0.12097014020E+02  0.20404340747E+02  0.00000000000E+00 0. -1.
</event>
<event>
 7    1  0.1736465E-010  0.4778727E+02  0.7816164E-02  0.1312668E+00
        -11   -1    0    0    0    0  0.00000000000E+00  0.00000000000E+00  0.45593999997E+02  0.45594000000E+02  0.51100000000E-03 0. -1.
         11   -1    0    0    0    0 -0.00000000000E+00 -0.00000000000E+00 -0.45593999997E+02  0.45594000000E+02  0.51100000000E-03 0.  1.
    9900012    2    1    2    0    0 -0.19321967933E+02 -0.33162410464E+02 -0.20261771185E+02  0.47787270926E+02  0.19999999460E+02 0.  0.
         12    1    1    2    0    0  0.19321967933E+02  0.33162410464E+02  0.20261771185E+02  0.43400729074E+02  0.00000000000E+00 0. -1.
         11    1    3    3    0    0 -0.96417090418E+00 -0.97770754251E+01  0.12777691032E+01  0.99072460121E+01  0.51100000000E-03 0. -1.
        -11    1    3    3    0    0 -0.60850576260E+01 -0.18453716626E+01 -0.47944341430E+01  0.79636625932E+01  0.51100000000E-03 0.  1.
        -12    1    3    3    0    0 -0.12272739403E+02 -0.21539963376E+02 -0.16745106145E+02  0.29916362321E+02  0.00000000000E+00 0.  1.
</event>
<event>
 7    1  0.1736465E-010  0.4778727E+02  0.7816164E-02  0.1312668E+00
        -11   -1    0    0    0    0  0.00000000000E+00  0.00000000000E+00  0.45593999997E+02  0.45594000000E+02  0.51100000000E-03 0.  1.
         11   -1    0    0    0    0 -0.00000000000E+00 -0.00000000000E+00 -0.45593999997E+02  0.45594000000E+02  0.51100000000E-03 0. -1.
    9900012    2    1    2    0    0  0.19571541726E+02 -0.38601630772E+02  0.32391127152E+01  0.47787274258E+02  0.20000014651E+02 0.  0.
         12    1    1    2    0    0 -0.19571541726E+02  0.38601630772E+02 -0.32391127152E+01  0.43400725742E+02  0.00000000000E+00 0. -1.
         11    1    3    3    0    0  0.34572264499E+01 -0.58729974443E+00  0.51744286613E+01  0.62507637891E+01  0.51100000000E-03 0. -1.
        -11    1    3    3    0    0  0.41839010295E+01 -0.14380241794E+02  0.17911817848E+00  0.14977598788E+02  0.51100000000E-03 0.  1.
         12    1    3    3    0    0  0.11930414247E+02 -0.23634089233E+02 -0.21144341245E+01  0.26558911680E+02  0.00000000000E+00 0. -1.
</event>
<event>
 7    1  0.2457617E-010  0.4778727E+02  0.7816164E-02  0.1312668E+00
        -11   -1    0    0    0    0  0.00000000000E+00  0.00000000000E+00  0.45593999997E+02  0.45594000000E+02  0.51100000000E-03 0.  1.
         11   -1    0    0    0    0 -0.00000000000E+00 -0.00000000000E+00 -0.45593999997E+02  0.45594000000E+02  0.51100000000E-03 0. -1.
    9900012    2    1    2    0    0 -0.13746242374E+02  0.29561777779E+02  0.28649004468E+02  0.47787270261E+02  0.19999996429E+02 0.  0.
         12    1    1    2    0    0  0.13746242374E+02 -0.29561777779E+02 -0.28649004468E+02  0.43400729739E+02  0.00000000000E+00 0. -1.
         11    1    3    3    0    0 -0.46867177772E+01  0.71687213683E+01  0.75402725924E+00  0.85979327137E+01  0.51100000000E-03 0. -1.
        -11    1    3    3    0    0 -0.11985705809E+02  0.13635062638E+02  0.20297726784E+02  0.27231779041E+02  0.51100000000E-03 0.  1.
        -12    1    3    3    0    0  0.29261812126E+01  0.87579937732E+01  0.75972504243E+01  0.11957558506E+02  0.00000000000E+00 0.  1.
</event>
<event>
 7    1  0.1736465E-010  0.4778725E+02  0.7816164E-02  0.1312668E+00
        -11   -1    0    0    0    0  0.00000000000E+00  0.00000000000E+00  0.45593999997E+02  0.45594000000E+02  0.51100000000E-03 0.  1.
         11   -1    0    0    0    0 -0.00000000000E+00 -0.00000000000E+00 -0.45593999997E+02  0.45594000000E+02  0.51100000000E-03 0. -1.
    9900012    2    1    2    0    0 -0.42459972967E+02  0.77682086652E+01 -0.45200612282E+01  0.47787247429E+02  0.19999892329E+02 0.  0.
         12    1    1    2    0    0  0.42459972967E+02 -0.77682086652E+01  0.45200612282E+01  0.43400752571E+02  0.00000000000E+00 0. -1.
         11    1    3    3    0    0 -0.10798487922E+01 -0.40821058574E+01 -0.83303794382E+00  0.43039068440E+01  0.51100000000E-03 0. -1.
        -11    1    3    3    0    0 -0.16533974189E+02  0.37578008307E+01 -0.36900496669E+01  0.17352516716E+02  0.51100000000E-03 0.  1.
        -12    1    3    3    0    0 -0.24846149985E+02  0.80925136918E+01  0.30263825206E-02  0.26130823870E+02  0.00000000000E+00 0.  1.
</event>
<event>
 7    1  0.1736465E-010  0.4778727E+02  0.7816164E-02  0.1312668E+00
        -11   -1    0    0    0    0  0.00000000000E+00  0.00000000000E+00  0.45593999997E+02  0.45594000000E+02  0.51100000000E-03 0.  1.
         11   -1    0    0    0    0 -0.00000000000E+00 -0.00000000000E+00 -0.45593999997E+02  0.45594000000E+02  0.51100000000E-03 0. -1.
    9900012    2    1    2    0    0 -0.87688313741E+01 -0.34135217656E+02  0.25328204659E+02  0.47787269138E+02  0.19999991308E+02 0.  0.
         12    1    1    2    0    0  0.87688313741E+01  0.34135217656E+02 -0.25328204659E+02  0.43400730862E+02  0.00000000000E+00 0. -1.
         11    1    3    3    0    0 -0.88503183253E+01 -0.10419143429E+02  0.15369471075E+02  0.20569572811E+02  0.51100000000E-03 0. -1.
        -11    1    3    3    0    0 -0.10494187466E+01  0.41054432422E+00  0.81941106468E+00  0.13932914633E+01  0.51100000000E-03 0.  1.
        -12    1    3    3    0    0  0.11309056979E+01 -0.24126618552E+02  0.91393225190E+01  0.25824404863E+02  0.00000000000E+00 0.  1.
</event>
<event>
 7    1  0.1736465E-010  0.4778728E+02  0.7816164E-02  0.1312668E+00
        -11   -1    0    0    0    0  0.00000000000E+00  0.00000000000E+00  0.45593999997E+02  0.45594000000E+02  0.51100000000E-03 0.  1.
         11   -1    0    0    0    0 -0.00000000000E+00 -0.00000000000E+00 -0.45593999997E+02  0.45594000000E+02  0.51100000000E-03 0. -1.
    9900012    2    1    2    0    0  0.40043058227E+02  0.45382497369E+01  0.16111499038E+02  0.47787278531E+02  0.20000034132E+02 0.  0.
         12    1    1    2    0    0 -0.40043058227E+02 -0.45382497369E+01 -0.16111499038E+02  0.43400721469E+02  0.00000000000E+00 0. -1.
         11    1    3    3    0    0 -0.38361896853E+00  0.69823553625E+00  0.43661406331E+01  0.44382294517E+01  0.51100000000E-03 0. -1.
        -11    1    3    3    0    0  0.47393227310E+01 -0.90154431391E+00  0.45593654063E+01  0.66379044335E+01  0.51100000000E-03 0.  1.
        -12    1    3    3    0    0  0.35687354464E+02  0.47415585145E+01  0.71859929989E+01  0.36711144645E+02  0.00000000000E+00 0.  1.
</event>
<event>
 7    1  0.1736465E-010  0.4778725E+02  0.7816164E-02  0.1312668E+00
        -11   -1    0    0    0    0  0.00000000000E+00  0.00000000000E+00  0.45593999997E+02  0.45594000000E+02  0.51100000000E-03 0. -1.
         11   -1    0    0    0    0 -0.00000000000E+00 -0.00000000000E+00 -0.45593999997E+02  0.45594000000E+02  0.51100000000E-03 0.  1.
    9900012    2    1    2    0    0  0.95654462850E+01  0.37569154877E+02 -0.19511168134E+02  0.47787252970E+02  0.19999917591E+02 0.  0.
         12    1    1    2    0    0 -0.95654462850E+01 -0.37569154877E+02  0.19511168134E+02  0.43400747030E+02  0.00000000000E+00 0. -1.
         11    1    3    3    0    0  0.29072281874E+01  0.21769064409E+02 -0.10857567313E+02  0.24499610389E+02  0.51100000000E-03 0. -1.
        -11    1    3    3    0    0 -0.28844696689E+01 -0.27177714130E+00 -0.74155577567E+00  0.29906409539E+01  0.51100000000E-03 0.  1.
         12    1    3    3    0    0  0.95426877665E+01  0.16071867609E+02 -0.79120450449E+01  0.20297001627E+02  0.00000000000E+00 0. -1.
</event>
<event>
 7    1  0.1736465E-010  0.4778727E+02  0.7816164E-02  0.1312668E+00
        -11   -1    0    0    0    0  0.00000000000E+00  0.00000000000E+00  0.45593999997E+02  0.45594000000E+02  0.51100000000E-03 0.  1.
         11   -1    0    0    0    0 -0.00000000000E+00 -0.00000000000E+00 -0.45593999997E+02  0.45594000000E+02  0.51100000000E-03 0. -1.
    9900012    2    1    2    0    0 -0.28617885102E+02 -0.25788385214E+02  0.19989975833E+02  0.47787270819E+02  0.19999998972E+02 0.  0.
         12    1    1    2    0    0  0.28617885102E+02  0.25788385214E+02 -0.19989975833E+02  0.43400729181E+02  0.00000000000E+00 0. -1.
         11    1    3    3    0    0 -0.87174703925E+01 -0.79358422010E+01  0.36992098848E+01  0.12355405113E+02  0.51100000000E-03 0. -1.
        -11    1    3    3    0    0 -0.18166102657E+02 -0.17073909740E+02  0.19534487944E+02  0.31672099694E+02  0.51100000000E-03 0.  1.
         12    1    3    3    0    0 -0.17343120526E+01 -0.77863327344E+00 -0.32437219963E+01  0.37597660112E+01  0.00000000000E+00 0. -1.
</event>
<event>
 7    1  0.1736465E-010  0.4778727E+02  0.7816164E-02  0.1312668E+00
        -11   -1    0    0    0    0  0.00000000000E+00  0.00000000000E+00  0.45593999997E+02  0.45594000000E+02  0.51100000000E-03 0.  1.
         11   -1    0    0    0    0 -0.00000000000E+00 -0.00000000000E+00 -0.45593999997E+02  0.45594000000E+02  0.51100000000E-03 0. -1.
    9900012    2    1    2    0    0 -0.37634145965E+02 -0.11552342941E+02  0.18271231624E+02  0.47787268727E+02  0.19999989434E+02 0.  0.
         12    1    1    2    0    0  0.37634145965E+02  0.11552342941E+02 -0.18271231624E+02  0.43400731273E+02  0.00000000000E+00 0. -1.
         11    1    3    3    0    0 -0.10315468223E+02 -0.28923110856E+01  0.15441603062E+02  0.18794080277E+02  0.51100000000E-03 0. -1.
        -11    1    3    3    0    0 -0.96410007884E+01 -0.13906224720E+01  0.96766533650E+00  0.97887232838E+01  0.51100000000E-03 0.  1.
        -12    1    3    3    0    0 -0.17677676954E+02 -0.72694093833E+01  0.18619632261E+01  0.19204465167E+02  0.00000000000E+00 0.  1.
</event>
<event>
 7    1  0.1736465E-010  0.4778727E+02  0.7816164E-02  0.1312668E+00
        -11   -1    0    0    0    0  0.00000000000E+00  0.00000000000E+00  0.45593999997E+02  0.45594000000E+02  0.51100000000E-03 0.  1.
         11   -1    0    0    0    0 -0.00000000000E+00 -0.00000000000E+00 -0.45593999997E+02  0.45594000000E+02  0.51100000000E-03 0. -1.
    9900012    2    1    2    0    0 -0.18680788770E+02 -0.12563465547E+01  0.39154475753E+02  0.47787271352E+02  0.20000001400E+02 0.  0.
         12    1    1    2    0    0  0.18680788770E+02  0.12563465547E+01 -0.39154475753E+02  0.43400728648E+02  0.00000000000E+00 0. -1.
         11    1    3    3    0    0 -0.22310564735E+01  0.73264361447E+01  0.59709762703E+01  0.97111707560E+01  0.51100000000E-03 0. -1.
        -11    1    3    3    0    0 -0.92259277510E+01 -0.51841559009E+01  0.16882486312E+02  0.19925148923E+02  0.51100000000E-03 0.  1.
         12    1    3    3    0    0 -0.72238045453E+01 -0.33986267986E+01  0.16301013170E+02  0.18150951672E+02  0.00000000000E+00 0. -1.
</event>
<event>
 7    1  0.1736465E-010  0.4778727E+02  0.7816164E-02  0.1312668E+00
        -11   -1    0    0    0    0  0.00000000000E+00  0.00000000000E+00  0.45593999997E+02  0.45594000000E+02  0.51100000000E-03 0.  1.
         11   -1    0    0    0    0 -0.00000000000E+00 -0.00000000000E+00 -0.45593999997E+02  0.45594000000E+02  0.51100000000E-03 0. -1.
    9900012    2    1    2    0    0  0.35430479453E+02  0.24720801134E+02  0.41456495740E+01  0.47787270820E+02  0.19999998977E+02 0.  0.
         12    1    1    2    0    0 -0.35430479453E+02 -0.24720801134E+02 -0.41456495740E+01  0.43400729180E+02  0.00000000000E+00 0. -1.
         11    1    3    3    0    0  0.12177179564E+02  0.19079401968E+02  0.23868373777E+01  0.22759707259E+02  0.51100000000E-03 0. -1.
        -11    1    3    3    0    0  0.16568784121E+02  0.72542819333E+01  0.14183804465E+01  0.18142795180E+02  0.51100000000E-03 0.  1.
         12    1    3    3    0    0  0.66845157679E+01 -0.16128827676E+01  0.34043174973E+00  0.68847683803E+01  0.00000000000E+00 0. -1.
</event>
<event>
 7    1  0.1736465E-010  0.4778727E+02  0.7816164E-02  0.1312668E+00
        -11   -1    0    0    0    0  0.00000000000E+00  0.00000000000E+00  0.45593999997E+02  0.45594000000E+02  0.51100000000E-03 0.  1.
         11   -1    0    0    0    0 -0.00000000000E+00 -0.00000000000E+00 -0.45593999997E+02  0.45594000000E+02  0.51100000000E-03 0. -1.
    9900012    2    1    2    0    0  0.29646427619E+02  0.29358833661E+02  0.11948717820E+02  0.47787266803E+02  0.19999980663E+02 0.  0.
         12    1    1    2    0    0 -0.29646427619E+02 -0.29358833661E+02 -0.11948717820E+02  0.43400733197E+02  0.00000000000E+00 0. -1.
         11    1    3    3    0    0 -0.17409815706E+01  0.46289183012E+00  0.53174159914E+00  0.18783064353E+01  0.51100000000E-03 0. -1.
        -11    1    3    3    0    0  0.15219307740E+02  0.58283078800E+01  0.41845814277E+01  0.16825790407E+02  0.51100000000E-03 0.  1.
        -12    1    3    3    0    0  0.16168101449E+02  0.23067633951E+02  0.72323947932E+01  0.29083169961E+02  0.00000000000E+00 0.  1.
</event>
<event>
 7    1  0.1736465E-010  0.4778727E+02  0.7816164E-02  0.1312668E+00
        -11   -1    0    0    0    0  0.00000000000E+00  0.00000000000E+00  0.45593999997E+02  0.45594000000E+02  0.51100000000E-03 0.  1.
         11   -1    0    0    0    0 -0.00000000000E+00 -0.00000000000E+00 -0.45593999997E+02  0.45594000000E+02  0.51100000000E-03 0. -1.
    9900012    2    1    2    0    0 -0.56995481854E+01 -0.31607854619E+02  0.29190442966E+02  0.47787270932E+02  0.19999999487E+02 0.  0.
         12    1    1    2    0    0  0.56995481854E+01  0.31607854619E+02 -0.29190442966E+02  0.43400729068E+02  0.00000000000E+00 0. -1.
         11    1    3    3    0    0 -0.75879204662E+01 -0.66242400714E+01  0.54651977660E+01  0.11459732999E+02  0.51100000000E-03 0. -1.
        -11    1    3    3    0    0 -0.73822451642E+00  0.10726507794E+01  0.84693064978E+00  0.15533341295E+01  0.51100000000E-03 0.  1.
        -12    1    3    3    0    0  0.26265967972E+01 -0.26056265327E+02  0.22878314550E+02  0.34774203803E+02  0.00000000000E+00 0.  1.
</event>
<event>
 7    1  0.1736465E-010  0.4778727E+02  0.7816164E-02  0.1312668E+00
        -11   -1    0    0    0    0  0.00000000000E+00  0.00000000000E+00  0.45593999997E+02  0.45594000000E+02  0.51100000000E-03 0.  1.
         11   -1    0    0    0    0 -0.00000000000E+00 -0.00000000000E+00 -0.45593999997E+02  0.45594000000E+02  0.51100000000E-03 0. -1.
    9900012    2    1    2    0    0 -0.25211135020E+01 -0.35217868666E+02  0.25238247193E+02  0.47787269498E+02  0.19999992951E+02 0.  0.
         12    1    1    2    0    0  0.25211135020E+01  0.35217868666E+02 -0.25238247193E+02  0.43400730502E+02  0.00000000000E+00 0. -1.
         11    1    3    3    0    0 -0.25640121681E+01 -0.79803059857E+01 -0.23165245825E+01  0.86963054469E+01  0.51100000000E-03 0. -1.
        -11    1    3    3    0    0 -0.19620041234E+01 -0.12662216162E+02  0.10491019568E+02  0.16560273855E+02  0.51100000000E-03 0.  1.
         12    1    3    3    0    0  0.20049027894E+01 -0.14575346519E+02  0.17063752208E+02  0.22530690197E+02  0.00000000000E+00 0. -1.
</event>
<event>
 7    1  0.1736465E-010  0.4778727E+02  0.7816164E-02  0.1312668E+00
        -11   -1    0    0    0    0  0.00000000000E+00  0.00000000000E+00  0.45593999997E+02  0.45594000000E+02  0.51100000000E-03 0. -1.
         11   -1    0    0    0    0 -0.00000000000E+00 -0.00000000000E+00 -0.45593999997E+02  0.45594000000E+02  0.51100000000E-03 0.  1.
    9900012    2    1    2    0    0  0.32945577931E+01  0.17892348451E+02 -0.39403463456E+02  0.47787272166E+02  0.20000005116E+02 0.  0.
         12    1    1    2    0    0 -0.32945577931E+01 -0.17892348451E+02  0.39403463456E+02  0.43400727834E+02  0.00000000000E+00 0. -1.
         11    1    3    3    0    0  0.16214818980E+01  0.10112969352E+02 -0.13641162496E+02  0.17058214067E+02  0.51100000000E-03 0. -1.
        -11    1    3    3    0    0 -0.23277949548E+01  0.19741342316E+01 -0.22928064378E+02  0.23130325801E+02  0.51100000000E-03 0.  1.
         12    1    3    3    0    0  0.40008708499E+01  0.58052448675E+01 -0.28342365826E+01  0.75987322979E+01  0.00000000000E+00 0. -1.
</event>
<event>
 7    1  0.1736465E-010  0.4778727E+02  0.7816164E-02  0.1312668E+00
        -11   -1    0    0    0    0  0.00000000000E+00  0.00000000000E+00  0.45593999997E+02  0.45594000000E+02  0.51100000000E-03 0. -1.
         11   -1    0    0    0    0 -0.00000000000E+00 -0.00000000000E+00 -0.45593999997E+02  0.45594000000E+02  0.51100000000E-03 0.  1.
    9900012    2    1    2    0    0  0.26301156992E+02  0.73546940724E+01 -0.33731006427E+02  0.47787272142E+02  0.20000005004E+02 0.  0.
         12    1    1    2    0    0 -0.26301156992E+02 -0.73546940724E+01  0.33731006427E+02  0.43400727858E+02  0.00000000000E+00 0. -1.
         11    1    3    3    0    0 -0.11864968454E+01 -0.14380078915E+01 -0.70294546458E+01  0.72724737428E+01  0.51100000000E-03 0. -1.
        -11    1    3    3    0    0  0.80898309052E+01  0.47143092513E+01 -0.14430377807E+02  0.17201915001E+02  0.51100000000E-03 0.  1.
         12    1    3    3    0    0  0.19397822932E+02  0.40783927126E+01 -0.12271173974E+02  0.23312883398E+02  0.00000000000E+00 0. -1.
</event>
<event>
 7    1  0.1736465E-010  0.4778726E+02  0.7816164E-02  0.1312668E+00
        -11   -1    0    0    0    0  0.00000000000E+00  0.00000000000E+00  0.45593999997E+02  0.45594000000E+02  0.51100000000E-03 0.  1.
         11   -1    0    0    0    0 -0.00000000000E+00 -0.00000000000E+00 -0.45593999997E+02  0.45594000000E+02  0.51100000000E-03 0. -1.
    9900012    2    1    2    0    0  0.64116407841E+01  0.29679507320E+02  0.31010357705E+02  0.47787256029E+02  0.19999931538E+02 0.  0.
         12    1    1    2    0    0 -0.64116407841E+01 -0.29679507320E+02 -0.31010357705E+02  0.43400743971E+02  0.00000000000E+00 0. -1.
         11    1    3    3    0    0 -0.26517985293E+01  0.12077776091E+02  0.80858360651E+01  0.14774486653E+02  0.51100000000E-03 0. -1.
        -11    1    3    3    0    0  0.10219561608E+02  0.12760648853E+02  0.22772537741E+02  0.28033231602E+02  0.51100000000E-03 0.  1.
         12    1    3    3    0    0 -0.11561222948E+01  0.48410823763E+01  0.15198389801E+00  0.49795377737E+01  0.00000000000E+00 0. -1.
</event>
<event>
 7    1  0.1736465E-010  0.4778727E+02  0.7816164E-02  0.1312668E+00
        -11   -1    0    0    0    0  0.00000000000E+00  0.00000000000E+00  0.45593999997E+02  0.45594000000E+02  0.51100000000E-03 0.  1.
         11   -1    0    0    0    0 -0.00000000000E+00 -0.00000000000E+00 -0.45593999997E+02  0.45594000000E+02  0.51100000000E-03 0. -1.
    9900012    2    1    2    0    0  0.68660121816E+01 -0.18689051972E+02  0.38564241365E+02  0.47787268452E+02  0.19999988178E+02 0.  0.
         12    1    1    2    0    0 -0.68660121816E+01  0.18689051972E+02 -0.38564241365E+02  0.43400731548E+02  0.00000000000E+00 0. -1.
         11    1    3    3    0    0  0.56891280014E+01 -0.24022451139E+01  0.19615779243E+02  0.20564915623E+02  0.51100000000E-03 0. -1.
        -11    1    3    3    0    0 -0.47468691562E+01 -0.65677923462E+01  0.68436432060E+01  0.10606795731E+02  0.51100000000E-03 0.  1.
         12    1    3    3    0    0  0.59237533363E+01 -0.97190145120E+01  0.12104818915E+02  0.16615557097E+02  0.00000000000E+00 0. -1.
</event>
<event>
 7    1  0.1736465E-010  0.4778727E+02  0.7816164E-02  0.1312668E+00
        -11   -1    0    0    0    0  0.00000000000E+00  0.00000000000E+00  0.45593999997E+02  0.45594000000E+02  0.51100000000E-03 0.  1.
         11   -1    0    0    0    0 -0.00000000000E+00 -0.00000000000E+00 -0.45593999997E+02  0.45594000000E+02  0.51100000000E-03 0. -1.
    9900012    2    1    2    0    0 -0.68424361024E+00  0.10828348158E+02  0.42022640779E+02  0.47787266698E+02  0.19999980182E+02 0.  0.
         12    1    1    2    0    0  0.68424361024E+00 -0.10828348158E+02 -0.42022640779E+02  0.43400733302E+02  0.00000000000E+00 0. -1.
         11    1    3    3    0    0 -0.23094380223E+01  0.95780055496E+00  0.10204363175E+01  0.27004030109E+01  0.51100000000E-03 0. -1.
        -11    1    3    3    0    0  0.62194972656E+01  0.16025393867E+01  0.29519093403E+02  0.30209719534E+02  0.51100000000E-03 0.  1.
         12    1    3    3    0    0 -0.45943028535E+01  0.82680082160E+01  0.11483111058E+02  0.14877144153E+02  0.00000000000E+00 0. -1.
</event>
<event>
 7    1  0.1736465E-010  0.4778728E+02  0.7816164E-02  0.1312668E+00
        -11   -1    0    0    0    0  0.00000000000E+00  0.00000000000E+00  0.45593999997E+02  0.45594000000E+02  0.51100000000E-03 0.  1.
         11   -1    0    0    0    0 -0.00000000000E+00 -0.00000000000E+00 -0.45593999997E+02  0.45594000000E+02  0.51100000000E-03 0. -1.
    9900012    2    1    2    0    0  0.13743169346E+02 -0.40998642919E+02  0.37227398962E+01  0.47787283218E+02  0.20000055503E+02 0.  0.
         12    1    1    2    0    0 -0.13743169346E+02  0.40998642919E+02 -0.37227398962E+01  0.43400716782E+02  0.00000000000E+00 0. -1.
         11    1    3    3    0    0  0.18344706529E+01 -0.54171747877E+01  0.32162480153E+01  0.65616550362E+01  0.51100000000E-03 0. -1.
        -11    1    3    3    0    0  0.12609159902E+02 -0.29592435921E+02  0.63962878407E+01  0.32796580242E+02  0.51100000000E-03 0.  1.
         12    1    3    3    0    0 -0.70046120894E+00 -0.59890322105E+01 -0.58897959597E+01  0.84290479398E+01  0.00000000000E+00 0. -1.
</event>
<event>
 7    1  0.1736465E-010  0.4778728E+02  0.7816164E-02  0.1312668E+00
        -11   -1    0    0    0    0  0.00000000000E+00  0.00000000000E+00  0.45593999997E+02  0.45594000000E+02  0.51100000000E-03 0.  1.
         11   -1    0    0    0    0 -0.00000000000E+00 -0.00000000000E+00 -0.45593999997E+02  0.45594000000E+02  0.51100000000E-03 0. -1.
    9900012    2    1    2    0    0  0.25487605268E+02  0.22946923554E+02  0.26597801685E+02  0.47787281373E+02  0.20000047090E+02 0.  0.
         12    1    1    2    0    0 -0.25487605268E+02 -0.22946923554E+02 -0.26597801685E+02  0.43400718627E+02  0.00000000000E+00 0. -1.
         11    1    3    3    0    0  0.97588355289E+01  0.38997175017E+01  0.37665560171E+01  0.11163763342E+02  0.51100000000E-03 0. -1.
        -11    1    3    3    0    0 -0.33396589264E+00  0.87661608220E+01  0.34324627321E+01  0.94201331966E+01  0.51100000000E-03 0.  1.
        -12    1    3    3    0    0  0.16062735631E+02  0.10281045231E+02  0.19398782936E+02  0.27203384834E+02  0.00000000000E+00 0.  1.
</event>
<event>
 7    1  0.1736465E-010  0.4778727E+02  0.7816164E-02  0.1312668E+00
        -11   -1    0    0    0    0  0.00000000000E+00  0.00000000000E+00  0.45593999997E+02  0.45594000000E+02  0.51100000000E-03 0.  1.
         11   -1    0    0    0    0 -0.00000000000E+00 -0.00000000000E+00 -0.45593999997E+02  0.45594000000E+02  0.51100000000E-03 0. -1.
    9900012    2    1    2    0    0  0.10223220700E+02 -0.12075645173E+02  0.40413957310E+02  0.47787269669E+02  0.19999993727E+02 0.  0.
         12    1    1    2    0    0 -0.10223220700E+02  0.12075645173E+02 -0.40413957310E+02  0.43400730331E+02  0.00000000000E+00 0. -1.
         11    1    3    3    0    0  0.21574554794E+01  0.34436826974E+00 -0.61277369865E+00  0.22690737135E+01  0.51100000000E-03 0. -1.
        -11    1    3    3    0    0  0.97020047228E+01 -0.74874291950E+01  0.36900720911E+02  0.38882562873E+02  0.51100000000E-03 0.  1.
         12    1    3    3    0    0 -0.16362395017E+01 -0.49325842481E+01  0.41260100980E+01  0.66356330821E+01  0.00000000000E+00 0. -1.
</event>
<event>
 7    1  0.1736465E-010  0.4778727E+02  0.7816164E-02  0.1312668E+00
        -11   -1    0    0    0    0  0.00000000000E+00  0.00000000000E+00  0.45593999997E+02  0.45594000000E+02  0.51100000000E-03 0.  1.
         11   -1    0    0    0    0 -0.00000000000E+00 -0.00000000000E+00 -0.45593999997E+02  0.45594000000E+02  0.51100000000E-03 0. -1.
    9900012    2    1    2    0    0  0.24985669034E+02  0.22786242125E+02  0.27205269895E+02  0.47787271926E+02  0.20000004019E+02 0.  0.
         12    1    1    2    0    0 -0.24985669034E+02 -0.22786242125E+02 -0.27205269895E+02  0.43400728074E+02  0.00000000000E+00 0. -1.
         11    1    3    3    0    0  0.15788948257E+01  0.51882065788E+00  0.69163917141E+01  0.71132663629E+01  0.51100000000E-03 0. -1.
        -11    1    3    3    0    0  0.76764613899E+01  0.15540130638E+02  0.58696988469E+01  0.18299647115E+02  0.51100000000E-03 0.  1.
        -12    1    3    3    0    0  0.15730312819E+02  0.67272908290E+01  0.14419179334E+02  0.22374358448E+02  0.00000000000E+00 0.  1.
</event>
<event>
 7    1  0.1736465E-010  0.4778727E+02  0.7816164E-02  0.1312668E+00
        -11   -1    0    0    0    0  0.00000000000E+00  0.00000000000E+00  0.45593999997E+02  0.45594000000E+02  0.51100000000E-03 0.  1.
         11   -1    0    0    0    0 -0.00000000000E+00 -0.00000000000E+00 -0.45593999997E+02  0.45594000000E+02  0.51100000000E-03 0. -1.
    9900012    2    1    2    0    0 -0.32639784378E+02  0.26103853297E+02  0.11698579919E+02  0.47787268977E+02  0.19999990575E+02 0.  0.
         12    1    1    2    0    0  0.32639784378E+02 -0.26103853297E+02 -0.11698579919E+02  0.43400731023E+02  0.00000000000E+00 0. -1.
         11    1    3    3    0    0 -0.45448957590E+01  0.12672898999E+01  0.72782789556E+00  0.47740794774E+01  0.51100000000E-03 0. -1.
        -11    1    3    3    0    0 -0.19018761052E+02  0.48314214993E+01  0.51680898046E+01  0.20291994928E+02  0.51100000000E-03 0.  1.
         12    1    3    3    0    0 -0.90761275667E+01  0.20005141898E+02  0.58026622187E+01  0.22721194572E+02  0.00000000000E+00 0. -1.
</event>
<event>
 7    1  0.1736465E-010  0.4778727E+02  0.7816164E-02  0.1312668E+00
        -11   -1    0    0    0    0  0.00000000000E+00  0.00000000000E+00  0.45593999997E+02  0.45594000000E+02  0.51100000000E-03 0. -1.
         11   -1    0    0    0    0 -0.00000000000E+00 -0.00000000000E+00 -0.45593999997E+02  0.45594000000E+02  0.51100000000E-03 0.  1.
    9900012    2    1    2    0    0 -0.25611926175E+01 -0.57143391146E+01 -0.42946597260E+02  0.47787267341E+02  0.19999983115E+02 0.  0.
         12    1    1    2    0    0  0.25611926175E+01  0.57143391146E+01  0.42946597260E+02  0.43400732659E+02  0.00000000000E+00 0. -1.
         11    1    3    3    0    0 -0.20584732042E+01 -0.90319915750E+01 -0.14524155547E+02  0.17226876628E+02  0.51100000000E-03 0. -1.
        -11    1    3    3    0    0 -0.42770908461E+01  0.61357833211E+00 -0.23085719319E+02  0.23486600886E+02  0.51100000000E-03 0.  1.
         12    1    3    3    0    0  0.37743714328E+01  0.27040741283E+01 -0.53367223943E+01  0.70737898270E+01  0.00000000000E+00 0. -1.
</event>
<event>
 7    1  0.2247947E-010  0.4778727E+02  0.7816164E-02  0.1312668E+00
        -11   -1    0    0    0    0  0.00000000000E+00  0.00000000000E+00  0.45593999997E+02  0.45594000000E+02  0.51100000000E-03 0. -1.
         11   -1    0    0    0    0 -0.00000000000E+00 -0.00000000000E+00 -0.45593999997E+02  0.45594000000E+02  0.51100000000E-03 0.  1.
    9900012    2    1    2    0    0 -0.15453087414E+02 -0.38015375805E+02 -0.14129987408E+02  0.47787271293E+02  0.20000001132E+02 0.  0.
         12    1    1    2    0    0  0.15453087414E+02  0.38015375805E+02  0.14129987408E+02  0.43400728707E+02  0.00000000000E+00 0. -1.
         11    1    3    3    0    0  0.29815418741E+01 -0.11969652370E+01 -0.28668875272E+01  0.43059681931E+01  0.51100000000E-03 0. -1.
        -11    1    3    3    0    0 -0.67870047569E+01 -0.17668348485E+02 -0.89857783883E+01  0.20951806253E+02  0.51100000000E-03 0.  1.
        -12    1    3    3    0    0 -0.11647624531E+02 -0.19150062082E+02 -0.22773214921E+01  0.22529496846E+02  0.00000000000E+00 0.  1.
</event>
<event>
 7    1  0.1736465E-010  0.4778727E+02  0.7816164E-02  0.1312668E+00
        -11   -1    0    0    0    0  0.00000000000E+00  0.00000000000E+00  0.45593999997E+02  0.45594000000E+02  0.51100000000E-03 0. -1.
         11   -1    0    0    0    0 -0.00000000000E+00 -0.00000000000E+00 -0.45593999997E+02  0.45594000000E+02  0.51100000000E-03 0.  1.
    9900012    2    1    2    0    0 -0.22599113391E+02  0.36091018893E+02  0.83869908909E+01  0.47787272045E+02  0.20000004561E+02 0.  0.
         12    1    1    2    0    0  0.22599113391E+02 -0.36091018893E+02 -0.83869908909E+01  0.43400727955E+02  0.00000000000E+00 0. -1.
         11    1    3    3    0    0 -0.82864732483E+01  0.23609292689E+01 -0.64841014949E+00  0.86406054122E+01  0.51100000000E-03 0. -1.
        -11    1    3    3    0    0 -0.13768743677E+02  0.20922543914E+02  0.79668941700E+01  0.26283122898E+02  0.51100000000E-03 0.  1.
         12    1    3    3    0    0 -0.54389646638E+00  0.12807545710E+02  0.10685068705E+01  0.12863543735E+02  0.00000000000E+00 0. -1.
</event>
<event>
 7    1  0.1736465E-010  0.4778727E+02  0.7816164E-02  0.1312668E+00
        -11   -1    0    0    0    0  0.00000000000E+00  0.00000000000E+00  0.45593999997E+02  0.45594000000E+02  0.51100000000E-03 0.  1.
         11   -1    0    0    0    0 -0.00000000000E+00 -0.00000000000E+00 -0.45593999997E+02  0.45594000000E+02  0.51100000000E-03 0. -1.
    9900012    2    1    2    0    0  0.11772447407E+02  0.26054864593E+02  0.32652361535E+02  0.47787271887E+02  0.20000003843E+02 0.  0.
         12    1    1    2    0    0 -0.11772447407E+02 -0.26054864593E+02 -0.32652361535E+02  0.43400728113E+02  0.00000000000E+00 0. -1.
         11    1    3    3    0    0 -0.16275842849E+01  0.44937212965E+01  0.21973953456E+01  0.52603334743E+01  0.51100000000E-03 0. -1.
        -11    1    3    3    0    0  0.10350721452E+02  0.21278583122E+02  0.31404058114E+02  0.39320864698E+02  0.51100000000E-03 0.  1.
        -12    1    3    3    0    0  0.30493102392E+01  0.28256017438E+00 -0.94909192493E+00  0.32060737154E+01  0.00000000000E+00 0.  1.
</event>
<event>
 7    1  0.1736465E-010  0.4778727E+02  0.7816164E-02  0.1312668E+00
        -11   -1    0    0    0    0  0.00000000000E+00  0.00000000000E+00  0.45593999997E+02  0.45594000000E+02  0.51100000000E-03 0.  1.
         11   -1    0    0    0    0 -0.00000000000E+00 -0.00000000000E+00 -0.45593999997E+02  0.45594000000E+02  0.51100000000E-03 0. -1.
    9900012    2    1    2    0    0 -0.41726938204E+02 -0.11584833733E+02  0.28771363699E+01  0.47787266617E+02  0.19999979814E+02 0.  0.
         12    1    1    2    0    0  0.41726938204E+02  0.11584833733E+02 -0.28771363699E+01  0.43400733383E+02  0.00000000000E+00 0. -1.
         11    1    3    3    0    0 -0.10151273709E+02  0.41480538330E+01  0.10467284019E+01  0.11015913449E+02  0.51100000000E-03 0. -1.
        -11    1    3    3    0    0 -0.10285491350E+02 -0.81279251704E+00  0.30076830359E+01  0.10747005234E+02  0.51100000000E-03 0.  1.
        -12    1    3    3    0    0 -0.21290173145E+02 -0.14920095049E+02 -0.11772750679E+01  0.26024347934E+02  0.00000000000E+00 0.  1.
</event>
<event>
 7    1  0.1736465E-010  0.4778727E+02  0.7816164E-02  0.1312668E+00
        -11   -1    0    0    0    0  0.00000000000E+00  0.00000000000E+00  0.45593999997E+02  0.45594000000E+02  0.51100000000E-03 0. -1.
         11   -1    0    0    0    0 -0.00000000000E+00 -0.00000000000E+00 -0.45593999997E+02  0.45594000000E+02  0.51100000000E-03 0.  1.
    9900012    2    1    2    0    0  0.21750269401E+02 -0.50780632887E+01 -0.37212394961E+02  0.47787270922E+02  0.19999999443E+02 0.  0.
         12    1    1    2    0    0 -0.21750269401E+02  0.50780632887E+01  0.37212394961E+02  0.43400729078E+02  0.00000000000E+00 0. -1.
         11    1    3    3    0    0  0.72369116343E+01 -0.20220931846E+01 -0.63484611407E+01  0.98369055076E+01  0.51100000000E-03 0.  1.
        -11    1    3    3    0    0 -0.23486606796E+01 -0.21375041000E+01 -0.12941641693E+02  0.13325585193E+02  0.51100000000E-03 0. -1.
         12    1    3    3    0    0  0.16862018446E+02 -0.91846600413E+00 -0.17922292127E+02  0.24624780221E+02  0.00000000000E+00 0. -1.
</event>
<event>
 7    1  0.1736465E-010  0.4778727E+02  0.7816164E-02  0.1312668E+00
        -11   -1    0    0    0    0  0.00000000000E+00  0.00000000000E+00  0.45593999997E+02  0.45594000000E+02  0.51100000000E-03 0. -1.
         11   -1    0    0    0    0 -0.00000000000E+00 -0.00000000000E+00 -0.45593999997E+02  0.45594000000E+02  0.51100000000E-03 0.  1.
    9900012    2    1    2    0    0  0.44880334032E+01 -0.20506025033E+02 -0.37986625534E+02  0.47787271597E+02  0.20000002519E+02 0.  0.
         12    1    1    2    0    0 -0.44880334032E+01  0.20506025033E+02  0.37986625534E+02  0.43400728403E+02  0.00000000000E+00 0. -1.
         11    1    3    3    0    0  0.43718798344E+01 -0.50586187959E+01 -0.20929405404E+01  0.70059515967E+01  0.51100000000E-03 0. -1.
        -11    1    3    3    0    0  0.54029901886E+01 -0.86845059924E+01 -0.24221318998E+02  0.26292303847E+02  0.51100000000E-03 0.  1.
         12    1    3    3    0    0 -0.52868366199E+01 -0.67629002448E+01 -0.11672365995E+02  0.14489016153E+02  0.00000000000E+00 0. -1.
</event>
<event>
 7    1  0.1736465E-010  0.4778727E+02  0.7816164E-02  0.1312668E+00
        -11   -1    0    0    0    0  0.00000000000E+00  0.00000000000E+00  0.45593999997E+02  0.45594000000E+02  0.51100000000E-03 0. -1.
         11   -1    0    0    0    0 -0.00000000000E+00 -0.00000000000E+00 -0.45593999997E+02  0.45594000000E+02  0.51100000000E-03 0.  1.
    9900012    2    1    2    0    0  0.28412773444E+02  0.23675882775E+02 -0.22711012322E+02  0.47787271888E+02  0.20000003847E+02 0.  0.
         12    1    1    2    0    0 -0.28412773444E+02 -0.23675882775E+02  0.22711012322E+02  0.43400728112E+02  0.00000000000E+00 0. -1.
         11    1    3    3    0    0  0.75045778658E+01  0.57166115038E+01  0.27914050046E+00  0.94380218113E+01  0.51100000000E-03 0. -1.
        -11    1    3    3    0    0  0.22306623510E+02  0.17014137669E+02 -0.18638547054E+02  0.33681772067E+02  0.51100000000E-03 0.  1.
        -12    1    3    3    0    0 -0.13984279319E+01  0.94513360151E+00 -0.43516057686E+01  0.46674780097E+01  0.00000000000E+00 0.  1.
</event>
<event>
 7    1  0.1736465E-010  0.4778727E+02  0.7816164E-02  0.1312668E+00
        -11   -1    0    0    0    0  0.00000000000E+00  0.00000000000E+00  0.45593999997E+02  0.45594000000E+02  0.51100000000E-03 0. -1.
         11   -1    0    0    0    0 -0.00000000000E+00 -0.00000000000E+00 -0.45593999997E+02  0.45594000000E+02  0.51100000000E-03 0.  1.
    9900012    2    1    2    0    0 -0.17498980882E+02  0.39603710193E+02 -0.29925339034E+01  0.47787268991E+02  0.19999990638E+02 0.  0.
         12    1    1    2    0    0  0.17498980882E+02 -0.39603710193E+02  0.29925339034E+01  0.43400731009E+02  0.00000000000E+00 0. -1.
         11    1    3    3    0    0 -0.12336531898E+02  0.23735555869E+02  0.71550882976E+01  0.27690466238E+02  0.51100000000E-03 0. -1.
        -11    1    3    3    0    0 -0.91112879133E+00  0.14107605927E+01 -0.29547713942E+01  0.33986873021E+01  0.51100000000E-03 0.  1.
         12    1    3    3    0    0 -0.42513201932E+01  0.14457393732E+02 -0.71928508068E+01  0.16698115451E+02  0.00000000000E+00 0. -1.
</event>
<event>
 7    1  0.1736465E-010  0.4778726E+02  0.7816164E-02  0.1312668E+00
        -11   -1    0    0    0    0  0.00000000000E+00  0.00000000000E+00  0.45593999997E+02  0.45594000000E+02  0.51100000000E-03 0.  1.
         11   -1    0    0    0    0 -0.00000000000E+00 -0.00000000000E+00 -0.45593999997E+02  0.45594000000E+02  0.51100000000E-03 0. -1.
    9900012    2    1    2    0    0  0.19584578158E+02  0.30562513220E+02  0.23790777291E+02  0.47787262679E+02  0.19999961857E+02 0.  0.
         12    1    1    2    0    0 -0.19584578158E+02 -0.30562513220E+02 -0.23790777291E+02  0.43400737321E+02  0.00000000000E+00 0. -1.
         11    1    3    3    0    0  0.58226550013E+01  0.53831139195E+01  0.13772027534E+01  0.80484728005E+01  0.51100000000E-03 0. -1.
        -11    1    3    3    0    0  0.29834580593E+01  0.20942832114E+02  0.15788082900E+02  0.26396340672E+02  0.51100000000E-03 0.  1.
        -12    1    3    3    0    0  0.10778465098E+02  0.42365671861E+01  0.66254916377E+01  0.13342449207E+02  0.00000000000E+00 0.  1.
</event>
<event>
 7    1  0.1736465E-010  0.4778727E+02  0.7816164E-02  0.1312668E+00
        -11   -1    0    0    0    0  0.00000000000E+00  0.00000000000E+00  0.45593999997E+02  0.45594000000E+02  0.51100000000E-03 0.  1.
         11   -1    0    0    0    0 -0.00000000000E+00 -0.00000000000E+00 -0.45593999997E+02  0.45594000000E+02  0.51100000000E-03 0. -1.
    9900012    2    1    2    0    0 -0.44542170400E+01  0.23848246942E+02  0.35986730459E+02  0.47787266127E+02  0.19999977578E+02 0.  0.
         12    1    1    2    0    0  0.44542170400E+01 -0.23848246942E+02 -0.35986730459E+02  0.43400733873E+02  0.00000000000E+00 0. -1.
         11    1    3    3    0    0 -0.53605006974E+01  0.22572661381E+02  0.17679238777E+02  0.29168741721E+02  0.51100000000E-03 0. -1.
        -11    1    3    3    0    0 -0.92680928423E+00 -0.27101326050E+00  0.63349405619E+01  0.64081117203E+01  0.51100000000E-03 0.  1.
        -12    1    3    3    0    0  0.18330929417E+01  0.15465988211E+01  0.11972551120E+02  0.12210412686E+02  0.00000000000E+00 0.  1.
</event>
<event>
 7    1  0.1736465E-010  0.4778727E+02  0.7816164E-02  0.1312668E+00
        -11   -1    0    0    0    0  0.00000000000E+00  0.00000000000E+00  0.45593999997E+02  0.45594000000E+02  0.51100000000E-03 0.  1.
         11   -1    0    0    0    0 -0.00000000000E+00 -0.00000000000E+00 -0.45593999997E+02  0.45594000000E+02  0.51100000000E-03 0. -1.
    9900012    2    1    2    0    0  0.27164427222E+01  0.32306238248E+02  0.28853967154E+02  0.47787268309E+02  0.19999987528E+02 0.  0.
         12    1    1    2    0    0 -0.27164427222E+01 -0.32306238248E+02 -0.28853967154E+02  0.43400731691E+02  0.00000000000E+00 0. -1.
         11    1    3    3    0    0  0.17943718448E+01  0.13569934320E+02  0.73829090763E+01  0.15552177804E+02  0.51100000000E-03 0. -1.
        -11    1    3    3    0    0 -0.29112768761E+01  0.89189718230E+01  0.19321504291E+02  0.21478922686E+02  0.51100000000E-03 0.  1.
         12    1    3    3    0    0  0.38333477535E+01  0.98173321055E+01  0.21495537863E+01  0.10756167819E+02  0.00000000000E+00 0. -1.
</event>
<event>
 7    1  0.1736465E-010  0.4778727E+02  0.7816164E-02  0.1312668E+00
        -11   -1    0    0    0    0  0.00000000000E+00  0.00000000000E+00  0.45593999997E+02  0.45594000000E+02  0.51100000000E-03 0. -1.
         11   -1    0    0    0    0 -0.00000000000E+00 -0.00000000000E+00 -0.45593999997E+02  0.45594000000E+02  0.51100000000E-03 0.  1.
    9900012    2    1    2    0    0 -0.32899571826E+02  0.27629127299E+02  0.61540857406E+01  0.47787271056E+02  0.20000000051E+02 0.  0.
         12    1    1    2    0    0  0.32899571826E+02 -0.27629127299E+02 -0.61540857406E+01  0.43400728944E+02  0.00000000000E+00 0. -1.
         11    1    3    3    0    0  0.11131819345E+01  0.30155820455E+01  0.46774531068E+01  0.56755155642E+01  0.51100000000E-03 0. -1.
        -11    1    3    3    0    0 -0.11080275145E+02  0.84758475081E+01  0.18172316991E+01  0.14068220199E+02  0.51100000000E-03 0.  1.
         12    1    3    3    0    0 -0.22932478615E+02  0.16137697745E+02 -0.34059906532E+00  0.28043535292E+02  0.00000000000E+00 0. -1.
</event>
<event>
 7    1  0.1736465E-010  0.4778727E+02  0.7816164E-02  0.1312668E+00
        -11   -1    0    0    0    0  0.00000000000E+00  0.00000000000E+00  0.45593999997E+02  0.45594000000E+02  0.51100000000E-03 0. -1.
         11   -1    0    0    0    0 -0.00000000000E+00 -0.00000000000E+00 -0.45593999997E+02  0.45594000000E+02  0.51100000000E-03 0.  1.
    9900012    2    1    2    0    0  0.16445014943E+02  0.40070999537E+02  0.27385840018E+01  0.47787270021E+02  0.19999995333E+02 0.  0.
         12    1    1    2    0    0 -0.16445014943E+02 -0.40070999537E+02 -0.27385840018E+01  0.43400729979E+02  0.00000000000E+00 0. -1.
         11    1    3    3    0    0  0.89934565904E+01  0.13092240938E+02 -0.38675655701E+01  0.16347693963E+02  0.51100000000E-03 0. -1.
        -11    1    3    3    0    0  0.44548808518E+01  0.26522491509E+02  0.35365330461E+01  0.27125552261E+02  0.51100000000E-03 0.  1.
         12    1    3    3    0    0  0.29966775005E+01  0.45626709089E+00  0.30696165259E+01  0.43140237964E+01  0.00000000000E+00 0. -1.
</event>
<event>
 7    1  0.1736465E-010  0.4778727E+02  0.7816164E-02  0.1312668E+00
        -11   -1    0    0    0    0  0.00000000000E+00  0.00000000000E+00  0.45593999997E+02  0.45594000000E+02  0.51100000000E-03 0.  1.
         11   -1    0    0    0    0 -0.00000000000E+00 -0.00000000000E+00 -0.45593999997E+02  0.45594000000E+02  0.51100000000E-03 0. -1.
    9900012    2    1    2    0    0  0.26437820948E+01 -0.23885589597E+02  0.36140174961E+02  0.47787271661E+02  0.20000002811E+02 0.  0.
         12    1    1    2    0    0 -0.26437820948E+01  0.23885589597E+02 -0.36140174961E+02  0.43400728339E+02  0.00000000000E+00 0. -1.
         11    1    3    3    0    0  0.83252008197E+00  0.66246929877E+00 -0.29250022599E+00  0.11034092178E+01  0.51100000000E-03 0. -1.
        -11    1    3    3    0    0 -0.26547541323E+01 -0.19762578554E+02  0.34518636729E+02  0.39864062920E+02  0.51100000000E-03 0.  1.
        -12    1    3    3    0    0  0.44660161452E+01 -0.47854803423E+01  0.19140384575E+01  0.68197995229E+01  0.00000000000E+00 0.  1.
</event>
<event>
 7    1  0.1736465E-010  0.4778728E+02  0.7816164E-02  0.1312668E+00
        -11   -1    0    0    0    0  0.00000000000E+00  0.00000000000E+00  0.45593999997E+02  0.45594000000E+02  0.51100000000E-03 0. -1.
         11   -1    0    0    0    0 -0.00000000000E+00 -0.00000000000E+00 -0.45593999997E+02  0.45594000000E+02  0.51100000000E-03 0.  1.
    9900012    2    1    2    0    0  0.15072121874E+02 -0.38787644196E+02 -0.12327699990E+02  0.47787281260E+02  0.20000046579E+02 0.  0.
         12    1    1    2    0    0 -0.15072121874E+02  0.38787644196E+02  0.12327699990E+02  0.43400718740E+02  0.00000000000E+00 0. -1.
         11    1    3    3    0    0  0.33959095173E+01 -0.98981833065E+01 -0.68953471219E+01  0.12532040792E+02  0.51100000000E-03 0. -1.
        -11    1    3    3    0    0  0.37919370777E+01 -0.16181919999E+02 -0.10270279598E+02  0.19537450318E+02  0.51100000000E-03 0.  1.
        -12    1    3    3    0    0  0.78842752789E+01 -0.12707540891E+02  0.48379267298E+01  0.15717790150E+02  0.00000000000E+00 0.  1.
</event>
<event>
 7    1  0.1736465E-010  0.4778727E+02  0.7816164E-02  0.1312668E+00
        -11   -1    0    0    0    0  0.00000000000E+00  0.00000000000E+00  0.45593999997E+02  0.45594000000E+02  0.51100000000E-03 0.  1.
         11   -1    0    0    0    0 -0.00000000000E+00 -0.00000000000E+00 -0.45593999997E+02  0.45594000000E+02  0.51100000000E-03 0. -1.
    9900012    2    1    2    0    0  0.76133290738E+01 -0.83713289475E+01  0.41899658722E+02  0.47787270410E+02  0.19999997107E+02 0.  0.
         12    1    1    2    0    0 -0.76133290738E+01  0.83713289475E+01 -0.41899658722E+02  0.43400729590E+02  0.00000000000E+00 0. -1.
         11    1    3    3    0    0  0.40063185033E+01 -0.25491257017E+01  0.55381863003E+01  0.72952133314E+01  0.51100000000E-03 0. -1.
        -11    1    3    3    0    0  0.89578304521E+01  0.53791569112E-01  0.12775523891E+02  0.15603192971E+02  0.51100000000E-03 0.  1.
         12    1    3    3    0    0 -0.53508198816E+01 -0.58759948149E+01  0.23585948531E+02  0.24888864107E+02  0.00000000000E+00 0. -1.
</event>
<event>
 7    1  0.1736465E-010  0.4778727E+02  0.7816164E-02  0.1312668E+00
        -11   -1    0    0    0    0  0.00000000000E+00  0.00000000000E+00  0.45593999997E+02  0.45594000000E+02  0.51100000000E-03 0.  1.
         11   -1    0    0    0    0 -0.00000000000E+00 -0.00000000000E+00 -0.45593999997E+02  0.45594000000E+02  0.51100000000E-03 0. -1.
    9900012    2    1    2    0    0 -0.40261525614E+02 -0.10819365562E+02 -0.12065422054E+02  0.47787268148E+02  0.19999986795E+02 0.  0.
         12    1    1    2    0    0  0.40261525614E+02  0.10819365562E+02  0.12065422054E+02  0.43400731852E+02  0.00000000000E+00 0. -1.
         11    1    3    3    0    0 -0.16839408984E+02 -0.44124313375E+01 -0.13553560812E+02  0.22062054668E+02  0.51100000000E-03 0. -1.
        -11    1    3    3    0    0 -0.16646787488E+02 -0.47460136959E+00  0.44410328725E+00  0.16659472024E+02  0.51100000000E-03 0.  1.
        -12    1    3    3    0    0 -0.67753291415E+01 -0.59323328545E+01  0.10440354703E+01  0.90657414554E+01  0.00000000000E+00 0.  1.
</event>
<event>
 7    1  0.1736465E-010  0.4778727E+02  0.7816164E-02  0.1312668E+00
        -11   -1    0    0    0    0  0.00000000000E+00  0.00000000000E+00  0.45593999997E+02  0.45594000000E+02  0.51100000000E-03 0. -1.
         11   -1    0    0    0    0 -0.00000000000E+00 -0.00000000000E+00 -0.45593999997E+02  0.45594000000E+02  0.51100000000E-03 0.  1.
    9900012    2    1    2    0    0  0.35941373537E+02 -0.17331895331E+02 -0.17071804933E+02  0.47787269002E+02  0.19999990687E+02 0.  0.
         12    1    1    2    0    0 -0.35941373537E+02  0.17331895331E+02  0.17071804933E+02  0.43400730998E+02  0.00000000000E+00 0. -1.
         11    1    3    3    0    0  0.18676397074E+01 -0.84759830359E+01 -0.11848943246E+00  0.86801155815E+01  0.51100000000E-03 0. -1.
        -11    1    3    3    0    0  0.15558721289E+02 -0.36396201157E+01 -0.69341716539E+01  0.17418478106E+02  0.51100000000E-03 0.  1.
         12    1    3    3    0    0  0.18515012541E+02 -0.52162921789E+01 -0.10019143847E+02  0.21688675315E+02  0.00000000000E+00 0. -1.
</event>
<event>
 7    1  0.1736465E-010  0.4778727E+02  0.7816164E-02  0.1312668E+00
        -11   -1    0    0    0    0  0.00000000000E+00  0.00000000000E+00  0.45593999997E+02  0.45594000000E+02  0.51100000000E-03 0.  1.
         11   -1    0    0    0    0 -0.00000000000E+00 -0.00000000000E+00 -0.45593999997E+02  0.45594000000E+02  0.51100000000E-03 0. -1.
    9900012    2    1    2    0    0 -0.18093804900E+02  0.37987749280E+02  0.10638072956E+02  0.47787268816E+02  0.19999989838E+02 0.  0.
         12    1    1    2    0    0  0.18093804900E+02 -0.37987749280E+02 -0.10638072956E+02  0.43400731184E+02  0.00000000000E+00 0. -1.
         11    1    3    3    0    0 -0.24458775024E+01  0.13955021693E+01 -0.53663965691E+00  0.28666575387E+01  0.51100000000E-03 0. -1.
        -11    1    3    3    0    0 -0.68455478078E+01  0.71687800590E+01 -0.39698308940E+01  0.10677663130E+02  0.51100000000E-03 0.  1.
        -12    1    3    3    0    0 -0.88023795895E+01  0.29423467052E+02  0.15144543506E+02  0.34242948147E+02  0.00000000000E+00 0.  1.
</event>
<event>
 7    1  0.1736465E-010  0.4778726E+02  0.7816164E-02  0.1312668E+00
        -11   -1    0    0    0    0  0.00000000000E+00  0.00000000000E+00  0.45593999997E+02  0.45594000000E+02  0.51100000000E-03 0. -1.
         11   -1    0    0    0    0 -0.00000000000E+00 -0.00000000000E+00 -0.45593999997E+02  0.45594000000E+02  0.51100000000E-03 0.  1.
    9900012    2    1    2    0    0  0.38583327875E+02  0.14054975197E+02 -0.14050210283E+02  0.47787263523E+02  0.19999965708E+02 0.  0.
         12    1    1    2    0    0 -0.38583327875E+02 -0.14054975197E+02  0.14050210283E+02  0.43400736477E+02  0.00000000000E+00 0. -1.
         11    1    3    3    0    0  0.22304492388E+01 -0.47087123989E+00  0.30405118244E+00  0.22997980159E+01  0.51100000000E-03 0. -1.
        -11    1    3    3    0    0  0.36078061647E+02  0.12914516611E+02 -0.82894047677E+01  0.39206192153E+02  0.51100000000E-03 0.  1.
         12    1    3    3    0    0  0.27481699001E+00  0.16113298260E+01 -0.60648566980E+01  0.62812733544E+01  0.00000000000E+00 0. -1.
</event>
<event>
 7    1  0.1736465E-010  0.4778727E+02  0.7816164E-02  0.1312668E+00
        -11   -1    0    0    0    0  0.00000000000E+00  0.00000000000E+00  0.45593999997E+02  0.45594000000E+02  0.51100000000E-03 0. -1.
         11   -1    0    0    0    0 -0.00000000000E+00 -0.00000000000E+00 -0.45593999997E+02  0.45594000000E+02  0.51100000000E-03 0.  1.
    9900012    2    1    2    0    0  0.28105921306E+02 -0.27930544140E+02 -0.17707768664E+02  0.47787272132E+02  0.20000004958E+02 0.  0.
         12    1    1    2    0    0 -0.28105921306E+02  0.27930544140E+02  0.17707768664E+02  0.43400727868E+02  0.00000000000E+00 0. -1.
         11    1    3    3    0    0  0.15011392081E+02 -0.18556223780E+02 -0.48944320856E+01  0.24364539784E+02  0.51100000000E-03 0. -1.
        -11    1    3    3    0    0  0.72551961438E+01 -0.11273079570E+02 -0.79163258267E+01  0.15568828117E+02  0.51100000000E-03 0.  1.
        -12    1    3    3    0    0  0.58393330813E+01  0.18987592095E+01 -0.48970107519E+01  0.78539042313E+01  0.00000000000E+00 0.  1.
</event>
<event>
 7    1  0.1736465E-010  0.4778728E+02  0.7816164E-02  0.1312668E+00
        -11   -1    0    0    0    0  0.00000000000E+00  0.00000000000E+00  0.45593999997E+02  0.45594000000E+02  0.51100000000E-03 0. -1.
         11   -1    0    0    0    0 -0.00000000000E+00 -0.00000000000E+00 -0.45593999997E+02  0.45594000000E+02  0.51100000000E-03 0.  1.
    9900012    2    1    2    0    0 -0.42405888371E+02 -0.18608624114E+01 -0.90498818357E+01  0.47787279514E+02  0.20000038617E+02 0.  0.
         12    1    1    2    0    0  0.42405888371E+02  0.18608624114E+01  0.90498818357E+01  0.43400720486E+02  0.00000000000E+00 0. -1.
         11    1    3    3    0    0 -0.26117137198E+02  0.31404723122E+01 -0.10463351359E+00  0.26305481751E+02  0.51100000000E-03 0. -1.
        -11    1    3    3    0    0  0.12132826931E+01  0.98417057711E-01 -0.10575114423E+00  0.12218528456E+01  0.51100000000E-03 0.  1.
         12    1    3    3    0    0 -0.17502033866E+02 -0.50997517813E+01 -0.88394971779E+01  0.20259944917E+02  0.00000000000E+00 0. -1.
</event>
<event>
 7    1  0.1736465E-010  0.4778727E+02  0.7816164E-02  0.1312668E+00
        -11   -1    0    0    0    0  0.00000000000E+00  0.00000000000E+00  0.45593999997E+02  0.45594000000E+02  0.51100000000E-03 0. -1.
         11   -1    0    0    0    0 -0.00000000000E+00 -0.00000000000E+00 -0.45593999997E+02  0.45594000000E+02  0.51100000000E-03 0.  1.
    9900012    2    1    2    0    0  0.40550667073E+02 -0.14746856541E+02  0.46687158176E+01  0.47787270913E+02  0.19999999401E+02 0.  0.
         12    1    1    2    0    0 -0.40550667073E+02  0.14746856541E+02 -0.46687158176E+01  0.43400729087E+02  0.00000000000E+00 0. -1.
         11    1    3    3    0    0  0.46625186561E+01 -0.77557492289E+01  0.11973064455E+01  0.91282128210E+01  0.51100000000E-03 0. -1.
        -11    1    3    3    0    0  0.16418253559E+02 -0.78480825392E+01  0.56362921335E+01  0.19050439332E+02  0.51100000000E-03 0.  1.
        -12    1    3    3    0    0  0.19469894858E+02  0.85697522713E+00 -0.21648827614E+01  0.19608618760E+02  0.00000000000E+00 0.  1.
</event>
<event>
 7    1  0.1863570E-010  0.4778725E+02  0.7816164E-02  0.1312668E+00
        -11   -1    0    0    0    0  0.00000000000E+00  0.00000000000E+00  0.45593999997E+02  0.45594000000E+02  0.51100000000E-03 0. -1.
         11   -1    0    0    0    0 -0.00000000000E+00 -0.00000000000E+00 -0.45593999997E+02  0.45594000000E+02  0.51100000000E-03 0.  1.
    9900012    2    1    2    0    0  0.35451094831E+02 -0.24628635993E+02  0.45028280768E+01  0.47787247745E+02  0.19999893768E+02 0.  0.
         12    1    1    2    0    0 -0.35451094831E+02  0.24628635993E+02 -0.45028280768E+01  0.43400752255E+02  0.00000000000E+00 0. -1.
         11    1    3    3    0    0  0.14349417632E+02 -0.89837171609E+01  0.78506053951E+01  0.18661322722E+02  0.51100000000E-03 0. -1.
        -11    1    3    3    0    0  0.22139408968E+02 -0.16239162351E+02 -0.23293876143E+01  0.27555214937E+02  0.51100000000E-03 0.  1.
         12    1    3    3    0    0 -0.10377317688E+01  0.59424351884E+00 -0.10183897041E+01  0.15707100856E+01  0.00000000000E+00 0. -1.
</event>
<event>
 7    1  0.1736465E-010  0.4778725E+02  0.7816164E-02  0.1312668E+00
        -11   -1    0    0    0    0  0.00000000000E+00  0.00000000000E+00  0.45593999997E+02  0.45594000000E+02  0.51100000000E-03 0. -1.
         11   -1    0    0    0    0 -0.00000000000E+00 -0.00000000000E+00 -0.45593999997E+02  0.45594000000E+02  0.51100000000E-03 0.  1.
    9900012    2    1    2    0    0 -0.14314889792E+02  0.29892475514E+02 -0.28020506605E+02  0.47787251706E+02  0.19999911827E+02 0.  0.
         12    1    1    2    0    0  0.14314889792E+02 -0.29892475514E+02  0.28020506605E+02  0.43400748294E+02  0.00000000000E+00 0. -1.
         11    1    3    3    0    0 -0.35626934861E+01  0.36266414921E+01 -0.92100367521E+01  0.10519985296E+02  0.51100000000E-03 0. -1.
        -11    1    3    3    0    0  0.78772902807E+00  0.66440830658E+01  0.13894950556E+01  0.68333779039E+01  0.51100000000E-03 0.  1.
        -12    1    3    3    0    0 -0.11539925334E+02  0.19621750956E+02 -0.20199964908E+02  0.30433888506E+02  0.00000000000E+00 0.  1.
</event>
<event>
 7    1  0.1736465E-010  0.4778727E+02  0.7816164E-02  0.1312668E+00
        -11   -1    0    0    0    0  0.00000000000E+00  0.00000000000E+00  0.45593999997E+02  0.45594000000E+02  0.51100000000E-03 0.  1.
         11   -1    0    0    0    0 -0.00000000000E+00 -0.00000000000E+00 -0.45593999997E+02  0.45594000000E+02  0.51100000000E-03 0. -1.
    9900012    2    1    2    0    0 -0.69932455701E+00  0.24282419434E+02  0.35965239208E+02  0.47787269825E+02  0.19999994441E+02 0.  0.
         12    1    1    2    0    0  0.69932455701E+00 -0.24282419434E+02 -0.35965239208E+02  0.43400730175E+02  0.00000000000E+00 0. -1.
         11    1    3    3    0    0 -0.22918504145E+01 -0.12658437491E+01  0.65138228104E+01  0.70203152768E+01  0.51100000000E-03 0. -1.
        -11    1    3    3    0    0  0.24326106666E+01  0.25530333811E+01  0.10110120218E+02  0.10707478937E+02  0.51100000000E-03 0.  1.
        -12    1    3    3    0    0 -0.84008480915E+00  0.22995229802E+02  0.19341296180E+02  0.30059475612E+02  0.00000000000E+00 0.  1.
</event>
<event>
 7    1  0.1736465E-010  0.4778727E+02  0.7816164E-02  0.1312668E+00
        -11   -1    0    0    0    0  0.00000000000E+00  0.00000000000E+00  0.45593999997E+02  0.45594000000E+02  0.51100000000E-03 0.  1.
         11   -1    0    0    0    0 -0.00000000000E+00 -0.00000000000E+00 -0.45593999997E+02  0.45594000000E+02  0.51100000000E-03 0. -1.
    9900012    2    1    2    0    0  0.23774628684E+02  0.30219350716E+02  0.20129111818E+02  0.47787271097E+02  0.20000000238E+02 0.  0.
         12    1    1    2    0    0 -0.23774628684E+02 -0.30219350716E+02 -0.20129111818E+02  0.43400728903E+02  0.00000000000E+00 0. -1.
         11    1    3    3    0    0  0.15933642169E+02  0.76877135847E+01  0.35317204273E+01  0.18040369796E+02  0.51100000000E-03 0. -1.
        -11    1    3    3    0    0  0.11834028813E+01  0.53798357961E+01  0.72638331044E+01  0.91162682717E+01  0.51100000000E-03 0.  1.
        -12    1    3    3    0    0  0.66575836330E+01  0.17151801335E+02  0.93335582867E+01  0.20630633029E+02  0.00000000000E+00 0.  1.
</event>
<event>
 7    1  0.1736465E-010  0.4778727E+02  0.7816164E-02  0.1312668E+00
        -11   -1    0    0    0    0  0.00000000000E+00  0.00000000000E+00  0.45593999997E+02  0.45594000000E+02  0.51100000000E-03 0.  1.
         11   -1    0    0    0    0 -0.00000000000E+00 -0.00000000000E+00 -0.45593999997E+02  0.45594000000E+02  0.51100000000E-03 0. -1.
    9900012    2    1    2    0    0 -0.17518502411E+02 -0.71600654494E+01  0.39057123552E+02  0.47787270005E+02  0.19999995259E+02 0.  0.
         12    1    1    2    0    0  0.17518502411E+02  0.71600654494E+01 -0.39057123552E+02  0.43400729995E+02  0.00000000000E+00 0. -1.
         11    1    3    3    0    0 -0.63189892389E+01 -0.25162911920E+01  0.24200345180E+02  0.25137980298E+02  0.51100000000E-03 0. -1.
        -11    1    3    3    0    0 -0.57116314947E+01 -0.85560297596E+01  0.79702298210E+01  0.13013567660E+02  0.51100000000E-03 0.  1.
         12    1    3    3    0    0 -0.54878816771E+01  0.39122555022E+01  0.68865485515E+01  0.96357220471E+01  0.00000000000E+00 0. -1.
</event>
<event>
 7    1  0.1736465E-010  0.4778727E+02  0.7816164E-02  0.1312668E+00
        -11   -1    0    0    0    0  0.00000000000E+00  0.00000000000E+00  0.45593999997E+02  0.45594000000E+02  0.51100000000E-03 0.  1.
         11   -1    0    0    0    0 -0.00000000000E+00 -0.00000000000E+00 -0.45593999997E+02  0.45594000000E+02  0.51100000000E-03 0. -1.
    9900012    2    1    2    0    0  0.14907020395E+02 -0.52136124674E+01  0.40425515062E+02  0.47787270973E+02  0.19999999675E+02 0.  0.
         12    1    1    2    0    0 -0.14907020395E+02  0.52136124674E+01 -0.40425515062E+02  0.43400729027E+02  0.00000000000E+00 0. -1.
         11    1    3    3    0    0  0.57720548620E+01 -0.23188085579E+01  0.21581444870E+01  0.65841535786E+01  0.51100000000E-03 0. -1.
        -11    1    3    3    0    0  0.53666762214E+00 -0.50841904370E+00 -0.82354125627E+00  0.11066718224E+01  0.51100000000E-03 0.  1.
        -12    1    3    3    0    0  0.85982979110E+01 -0.23863848658E+01  0.39090911831E+02  0.40096445572E+02  0.00000000000E+00 0.  1.
</event>
<event>
 7    1  0.1736465E-010  0.4778727E+02  0.7816164E-02  0.1312668E+00
        -11   -1    0    0    0    0  0.00000000000E+00  0.00000000000E+00  0.45593999997E+02  0.45594000000E+02  0.51100000000E-03 0.  1.
         11   -1    0    0    0    0 -0.00000000000E+00 -0.00000000000E+00 -0.45593999997E+02  0.45594000000E+02  0.51100000000E-03 0. -1.
    9900012    2    1    2    0    0  0.22658574237E+02  0.27514031145E+02  0.24762683781E+02  0.47787269542E+02  0.19999993149E+02 0.  0.
         12    1    1    2    0    0 -0.22658574237E+02 -0.27514031145E+02 -0.24762683781E+02  0.43400730458E+02  0.00000000000E+00 0. -1.
         11    1    3    3    0    0 -0.17838969164E+01 -0.12520293106E+01 -0.28613270241E+00  0.21981214224E+01  0.51100000000E-03 0. -1.
        -11    1    3    3    0    0  0.49052349508E+01  0.54156611685E+01  0.25757602101E+01  0.77475968361E+01  0.51100000000E-03 0.  1.
        -12    1    3    3    0    0  0.19537236202E+02  0.23350399287E+02  0.22473056273E+02  0.37841551283E+02  0.00000000000E+00 0.  1.
</event>
<event>
 7    1  0.1736465E-010  0.4778727E+02  0.7816164E-02  0.1312668E+00
        -11   -1    0    0    0    0  0.00000000000E+00  0.00000000000E+00  0.45593999997E+02  0.45594000000E+02  0.51100000000E-03 0. -1.
         11   -1    0    0    0    0 -0.00000000000E+00 -0.00000000000E+00 -0.45593999997E+02  0.45594000000E+02  0.51100000000E-03 0.  1.
    9900012    2    1    2    0    0 -0.11091809567E+02 -0.28142035215E+02 -0.31122676989E+02  0.47787269494E+02  0.19999992931E+02 0.  0.
         12    1    1    2    0    0  0.11091809567E+02  0.28142035215E+02  0.31122676989E+02  0.43400730506E+02  0.00000000000E+00 0. -1.
         11    1    3    3    0    0 -0.25877590729E+01 -0.32757869428E+00  0.18074877112E-02  0.26084110773E+01  0.51100000000E-03 0. -1.
        -11    1    3    3    0    0 -0.36462299219E+01 -0.20672472623E+02 -0.29783842360E+02  0.36437938786E+02  0.51100000000E-03 0.  1.
        -12    1    3    3    0    0 -0.48578205723E+01 -0.71419838981E+01 -0.13406421166E+01  0.87409196311E+01  0.00000000000E+00 0.  1.
</event>
<event>
 7    1  0.1736465E-010  0.4778728E+02  0.7816164E-02  0.1312668E+00
        -11   -1    0    0    0    0  0.00000000000E+00  0.00000000000E+00  0.45593999997E+02  0.45594000000E+02  0.51100000000E-03 0.  1.
         11   -1    0    0    0    0 -0.00000000000E+00 -0.00000000000E+00 -0.45593999997E+02  0.45594000000E+02  0.51100000000E-03 0. -1.
    9900012    2    1    2    0    0 -0.31606983863E+02  0.29691449685E+02  0.17432772069E+01  0.47787278476E+02  0.20000033886E+02 0.  0.
         12    1    1    2    0    0  0.31606983863E+02 -0.29691449685E+02 -0.17432772069E+01  0.43400721524E+02  0.00000000000E+00 0. -1.
         11    1    3    3    0    0 -0.94424444303E+01  0.14517900691E+02 -0.74225445395E+01  0.18842063714E+02  0.51100000000E-03 0. -1.
        -11    1    3    3    0    0 -0.40581003559E+01  0.23463723157E+01  0.39998441392E+01  0.61621745303E+01  0.51100000000E-03 0.  1.
        -12    1    3    3    0    0 -0.18106439077E+02  0.12827176678E+02  0.51659776071E+01  0.22783040233E+02  0.00000000000E+00 0.  1.
</event>
<event>
 7    1  0.1736465E-010  0.4778727E+02  0.7816164E-02  0.1312668E+00
        -11   -1    0    0    0    0  0.00000000000E+00  0.00000000000E+00  0.45593999997E+02  0.45594000000E+02  0.51100000000E-03 0.  1.
         11   -1    0    0    0    0 -0.00000000000E+00 -0.00000000000E+00 -0.45593999997E+02  0.45594000000E+02  0.51100000000E-03 0. -1.
    9900012    2    1    2    0    0 -0.24787631353E+02  0.89511552313E+01  0.34482951365E+02  0.47787265180E+02  0.19999973260E+02 0.  0.
         12    1    1    2    0    0  0.24787631353E+02 -0.89511552313E+01 -0.34482951365E+02  0.43400734820E+02  0.00000000000E+00 0. -1.
         11    1    3    3    0    0  0.72504403756E+00  0.90540087777E+00  0.23911347289E+01  0.26576239686E+01  0.51100000000E-03 0. -1.
        -11    1    3    3    0    0 -0.22967616959E+01 -0.35146046072E+01  0.10755860170E+02  0.11546258619E+02  0.51100000000E-03 0.  1.
         12    1    3    3    0    0 -0.23215913695E+02  0.11560358961E+02  0.21335956466E+02  0.33583382592E+02  0.00000000000E+00 0. -1.
</event>
<event>
 7    1  0.1736465E-010  0.4778730E+02  0.7816164E-02  0.1312668E+00
        -11   -1    0    0    0    0  0.00000000000E+00  0.00000000000E+00  0.45593999997E+02  0.45594000000E+02  0.51100000000E-03 0.  1.
         11   -1    0    0    0    0 -0.00000000000E+00 -0.00000000000E+00 -0.45593999997E+02  0.45594000000E+02  0.51100000000E-03 0. -1.
    9900012    2    1    2    0    0  0.40850112569E+02 -0.11049943032E+02  0.96326533333E+01  0.47787297838E+02  0.20000122163E+02 0.  0.
         12    1    1    2    0    0 -0.40850112569E+02  0.11049943032E+02 -0.96326533333E+01  0.43400702162E+02  0.00000000000E+00 0. -1.
         11    1    3    3    0    0  0.16136523616E+02 -0.12304671448E+02  0.38487350616E+01  0.20654420730E+02  0.51100000000E-03 0. -1.
        -11    1    3    3    0    0  0.21460097401E+02 -0.24187460143E+01  0.44850020394E+01  0.22056775746E+02  0.51100000000E-03 0.  1.
         12    1    3    3    0    0  0.32534915516E+01  0.36734744301E+01  0.12989162322E+01  0.50761013626E+01  0.00000000000E+00 0. -1.
</event>
<event>
 7    1  0.1736465E-010  0.4778727E+02  0.7816164E-02  0.1312668E+00
        -11   -1    0    0    0    0  0.00000000000E+00  0.00000000000E+00  0.45593999997E+02  0.45594000000E+02  0.51100000000E-03 0.  1.
         11   -1    0    0    0    0 -0.00000000000E+00 -0.00000000000E+00 -0.45593999997E+02  0.45594000000E+02  0.51100000000E-03 0. -1.
    9900012    2    1    2    0    0  0.36274444457E+02 -0.22628412150E+02 -0.74661354788E+01  0.47787268024E+02  0.19999986227E+02 0.  0.
         12    1    1    2    0    0 -0.36274444457E+02  0.22628412150E+02  0.74661354788E+01  0.43400731976E+02  0.00000000000E+00 0. -1.
         11    1    3    3    0    0  0.18001429189E+01 -0.50153399200E+01 -0.57242168596E+00  0.53592738210E+01  0.51100000000E-03 0. -1.
        -11    1    3    3    0    0  0.16245773603E+02 -0.16178396142E+02 -0.75292952200E+01  0.24132052305E+02  0.51100000000E-03 0.  1.
        -12    1    3    3    0    0  0.18228527935E+02 -0.14346760876E+01  0.63558142717E+00  0.18295941897E+02  0.00000000000E+00 0.  1.
</event>
<event>
 7    1  0.1736465E-010  0.4778727E+02  0.7816164E-02  0.1312668E+00
        -11   -1    0    0    0    0  0.00000000000E+00  0.00000000000E+00  0.45593999997E+02  0.45594000000E+02  0.51100000000E-03 0.  1.
         11   -1    0    0    0    0 -0.00000000000E+00 -0.00000000000E+00 -0.45593999997E+02  0.45594000000E+02  0.51100000000E-03 0. -1.
    9900012    2    1    2    0    0  0.74029582449E+01 -0.25900658094E+02  0.34029042890E+02  0.47787266821E+02  0.19999980744E+02 0.  0.
         12    1    1    2    0    0 -0.74029582449E+01  0.25900658094E+02 -0.34029042890E+02  0.43400733179E+02  0.00000000000E+00 0. -1.
         11    1    3    3    0    0  0.71245709660E+01 -0.16046114823E+02  0.26489770508E+02  0.31779635841E+02  0.51100000000E-03 0. -1.
        -11    1    3    3    0    0  0.46998070788E+01 -0.70686606933E+01  0.27601299976E+01  0.89259435602E+01  0.51100000000E-03 0.  1.
         12    1    3    3    0    0 -0.44214197999E+01 -0.27858825780E+01  0.47791423839E+01  0.70816874197E+01  0.00000000000E+00 0. -1.
</event>
<event>
 7    1  0.1736465E-010  0.4778727E+02  0.7816164E-02  0.1312668E+00
        -11   -1    0    0    0    0  0.00000000000E+00  0.00000000000E+00  0.45593999997E+02  0.45594000000E+02  0.51100000000E-03 0.  1.
         11   -1    0    0    0    0 -0.00000000000E+00 -0.00000000000E+00 -0.45593999997E+02  0.45594000000E+02  0.51100000000E-03 0. -1.
    9900012    2    1    2    0    0 -0.24144089669E+01  0.36295072131E+02  0.23674070025E+02  0.47787271628E+02  0.20000002660E+02 0.  0.
         12    1    1    2    0    0  0.24144089669E+01 -0.36295072131E+02 -0.23674070025E+02  0.43400728372E+02  0.00000000000E+00 0. -1.
         11    1    3    3    0    0  0.13649884351E+01  0.36414052273E+01  0.72998059327E+01  0.82710454220E+01  0.51100000000E-03 0. -1.
        -11    1    3    3    0    0 -0.48271104176E+01  0.12483866894E+02 -0.20466171937E+00  0.13386179974E+02  0.51100000000E-03 0.  1.
        -12    1    3    3    0    0  0.10477130156E+01  0.20169800010E+02  0.16578925812E+02  0.26130046232E+02  0.00000000000E+00 0.  1.
</event>
<event>
 7    1  0.1736465E-010  0.4778724E+02  0.7816164E-02  0.1312668E+00
        -11   -1    0    0    0    0  0.00000000000E+00  0.00000000000E+00  0.45593999997E+02  0.45594000000E+02  0.51100000000E-03 0.  1.
         11   -1    0    0    0    0 -0.00000000000E+00 -0.00000000000E+00 -0.45593999997E+02  0.45594000000E+02  0.51100000000E-03 0. -1.
    9900012    2    1    2    0    0  0.11311412053E+02  0.27953418672E+02  0.31213521604E+02  0.47787244373E+02  0.19999878394E+02 0.  0.
         12    1    1    2    0    0 -0.11311412053E+02 -0.27953418672E+02 -0.31213521604E+02  0.43400755627E+02  0.00000000000E+00 0. -1.
         11    1    3    3    0    0  0.25613310577E+00  0.95551198892E+01  0.62855751532E+01  0.11440033896E+02  0.51100000000E-03 0. -1.
        -11    1    3    3    0    0 -0.34378707854E+00  0.10540995247E+02  0.40531973688E+01  0.11298636180E+02  0.51100000000E-03 0.  1.
        -12    1    3    3    0    0  0.11399066025E+02  0.78573035358E+01  0.20874749082E+02  0.25048574298E+02  0.00000000000E+00 0.  1.
</event>
<event>
 7    1  0.1736465E-010  0.4778727E+02  0.7816164E-02  0.1312668E+00
        -11   -1    0    0    0    0  0.00000000000E+00  0.00000000000E+00  0.45593999997E+02  0.45594000000E+02  0.51100000000E-03 0. -1.
         11   -1    0    0    0    0 -0.00000000000E+00 -0.00000000000E+00 -0.45593999997E+02  0.45594000000E+02  0.51100000000E-03 0.  1.
    9900012    2    1    2    0    0 -0.10173040841E+02  0.30763888496E+02 -0.28874134380E+02  0.47787271532E+02  0.20000002224E+02 0.  0.
         12    1    1    2    0    0  0.10173040841E+02 -0.30763888496E+02  0.28874134380E+02  0.43400728468E+02  0.00000000000E+00 0. -1.
         11    1    3    3    0    0 -0.44237625955E+01  0.20803602401E+01  0.15246596691E+01  0.51207579125E+01  0.51100000000E-03 0. -1.
        -11    1    3    3    0    0  0.94141109115E+00  0.82772942290E+01 -0.10362409268E+02  0.13295840729E+02  0.51100000000E-03 0.  1.
         12    1    3    3    0    0 -0.66906893363E+01  0.20406234027E+02 -0.20036384781E+02  0.29370672890E+02  0.00000000000E+00 0. -1.
</event>
<event>
 7    1  0.1736465E-010  0.4778726E+02  0.7816164E-02  0.1312668E+00
        -11   -1    0    0    0    0  0.00000000000E+00  0.00000000000E+00  0.45593999997E+02  0.45594000000E+02  0.51100000000E-03 0.  1.
         11   -1    0    0    0    0 -0.00000000000E+00 -0.00000000000E+00 -0.45593999997E+02  0.45594000000E+02  0.51100000000E-03 0. -1.
    9900012    2    1    2    0    0 -0.51134094233E+01 -0.98078398375E+01  0.41967647785E+02  0.47787261080E+02  0.19999954568E+02 0.  0.
         12    1    1    2    0    0  0.51134094233E+01  0.98078398375E+01 -0.41967647785E+02  0.43400738920E+02  0.00000000000E+00 0. -1.
         11    1    3    3    0    0  0.22587584032E+01 -0.21684176680E+01  0.27682450614E+01  0.41793786246E+01  0.51100000000E-03 0. -1.
        -11    1    3    3    0    0 -0.10823638099E+02 -0.32216015201E+00  0.25396819698E+02  0.27608936594E+02  0.51100000000E-03 0.  1.
        -12    1    3    3    0    0  0.34514702725E+01 -0.73172620175E+01  0.13802583026E+02  0.15998945861E+02  0.00000000000E+00 0.  1.
</event>
<event>
 7    1  0.1736465E-010  0.4778727E+02  0.7816164E-02  0.1312668E+00
        -11   -1    0    0    0    0  0.00000000000E+00  0.00000000000E+00  0.45593999997E+02  0.45594000000E+02  0.51100000000E-03 0.  1.
         11   -1    0    0    0    0 -0.00000000000E+00 -0.00000000000E+00 -0.45593999997E+02  0.45594000000E+02  0.51100000000E-03 0. -1.
    9900012    2    1    2    0    0 -0.64523152582E+01 -0.25502354548E+02  0.34519862635E+02  0.47787269867E+02  0.19999994634E+02 0.  0.
         12    1    1    2    0    0  0.64523152582E+01  0.25502354548E+02 -0.34519862635E+02  0.43400730133E+02  0.00000000000E+00 0. -1.
         11    1    3    3    0    0  0.89617259178E+00 -0.25036898374E+02  0.27097252749E+02  0.36904071758E+02  0.51100000000E-03 0. -1.
        -11    1    3    3    0    0 -0.15478078152E+01  0.50502132803E+00  0.31586039489E+00  0.16584702664E+01  0.51100000000E-03 0.  1.
         12    1    3    3    0    0 -0.58006800348E+01 -0.97047750206E+00  0.71067494909E+01  0.92247278429E+01  0.00000000000E+00 0. -1.
</event>
<event>
 7    1  0.1736465E-010  0.4778728E+02  0.7816164E-02  0.1312668E+00
        -11   -1    0    0    0    0  0.00000000000E+00  0.00000000000E+00  0.45593999997E+02  0.45594000000E+02  0.51100000000E-03 0.  1.
         11   -1    0    0    0    0 -0.00000000000E+00 -0.00000000000E+00 -0.45593999997E+02  0.45594000000E+02  0.51100000000E-03 0. -1.
    9900012    2    1    2    0    0 -0.41307807580E+02 -0.80182311213E+01  0.10629915558E+02  0.47787284544E+02  0.20000061549E+02 0.  0.
         12    1    1    2    0    0  0.41307807580E+02  0.80182311213E+01 -0.10629915558E+02  0.43400715456E+02  0.00000000000E+00 0. -1.
         11    1    3    3    0    0 -0.12598476307E+02 -0.56824826436E+01  0.97930816280E-01  0.13821063814E+02  0.51100000000E-03 0. -1.
        -11    1    3    3    0    0 -0.18993096900E+01  0.21313389319E+00  0.64506184115E+01  0.67277991577E+01  0.51100000000E-03 0.  1.
        -12    1    3    3    0    0 -0.26810021583E+02 -0.25488823709E+01  0.40813663304E+01  0.27238421572E+02  0.00000000000E+00 0.  1.
</event>
<event>
 7    1  0.1736465E-010  0.4778727E+02  0.7816164E-02  0.1312668E+00
        -11   -1    0    0    0    0  0.00000000000E+00  0.00000000000E+00  0.45593999997E+02  0.45594000000E+02  0.51100000000E-03 0.  1.
         11   -1    0    0    0    0 -0.00000000000E+00 -0.00000000000E+00 -0.45593999997E+02  0.45594000000E+02  0.51100000000E-03 0. -1.
    9900012    2    1    2    0    0 -0.47605029753E+01 -0.13757758587E+02  0.40886242922E+02  0.47787272239E+02  0.20000005445E+02 0.  0.
         12    1    1    2    0    0  0.47605029753E+01  0.13757758587E+02 -0.40886242922E+02  0.43400727761E+02  0.00000000000E+00 0. -1.
         11    1    3    3    0    0  0.58173119348E+01 -0.28026067049E+01  0.17754222540E+02  0.18892012618E+02  0.51100000000E-03 0. -1.
        -11    1    3    3    0    0 -0.30022444223E+01 -0.36346148998E+01  0.16951720451E+01  0.50097410677E+01  0.51100000000E-03 0.  1.
        -12    1    3    3    0    0 -0.75755704878E+01 -0.73205369820E+01  0.21436848337E+02  0.23885518553E+02  0.00000000000E+00 0.  1.
</event>
<event>
 7    1  0.1736465E-010  0.4778727E+02  0.7816164E-02  0.1312668E+00
        -11   -1    0    0    0    0  0.00000000000E+00  0.00000000000E+00  0.45593999997E+02  0.45594000000E+02  0.51100000000E-03 0. -1.
         11   -1    0    0    0    0 -0.00000000000E+00 -0.00000000000E+00 -0.45593999997E+02  0.45594000000E+02  0.51100000000E-03 0.  1.
    9900012    2    1    2    0    0  0.30856655436E+01  0.43224774013E+02  0.23918274851E+01  0.47787271216E+02  0.20000000780E+02 0.  0.
         12    1    1    2    0    0 -0.30856655436E+01 -0.43224774013E+02 -0.23918274851E+01  0.43400728784E+02  0.00000000000E+00 0. -1.
         11    1    3    3    0    0 -0.17798933760E+01  0.11424206782E+02  0.35287204421E+01  0.12088523038E+02  0.51100000000E-03 0. -1.
        -11    1    3    3    0    0 -0.10776467719E+01  0.10686136190E+02 -0.72132306719E+01  0.12937755842E+02  0.51100000000E-03 0.  1.
        -12    1    3    3    0    0  0.59432056915E+01  0.21114431041E+02  0.60763377149E+01  0.22760992336E+02  0.00000000000E+00 0.  1.
</event>
<event>
 7    1  0.1736465E-010  0.4778722E+02  0.7816164E-02  0.1312668E+00
        -11   -1    0    0    0    0  0.00000000000E+00  0.00000000000E+00  0.45593999997E+02  0.45594000000E+02  0.51100000000E-03 0.  1.
         11   -1    0    0    0    0 -0.00000000000E+00 -0.00000000000E+00 -0.45593999997E+02  0.45594000000E+02  0.51100000000E-03 0. -1.
    9900012    2    1    2    0    0 -0.34288016490E+02 -0.77549993516E+01 -0.25452302218E+02  0.47787219155E+02  0.19999763413E+02 0.  0.
         12    1    1    2    0    0  0.34288016490E+02  0.77549993516E+01  0.25452302218E+02  0.43400780845E+02  0.00000000000E+00 0. -1.
         11    1    3    3    0    0 -0.17137036806E+01 -0.17162512037E+01 -0.12067197615E+01  0.27089613033E+01  0.51100000000E-03 0. -1.
        -11    1    3    3    0    0 -0.27000008702E+02 -0.10499265383E+02 -0.12988111758E+02  0.31747851751E+02  0.51100000000E-03 0.  1.
         12    1    3    3    0    0 -0.55743041080E+01  0.44605172353E+01 -0.11257470698E+02  0.13330406101E+02  0.00000000000E+00 0. -1.
</event>
<event>
 7    1  0.1736465E-010  0.4778727E+02  0.7816164E-02  0.1312668E+00
        -11   -1    0    0    0    0  0.00000000000E+00  0.00000000000E+00  0.45593999997E+02  0.45594000000E+02  0.51100000000E-03 0. -1.
         11   -1    0    0    0    0 -0.00000000000E+00 -0.00000000000E+00 -0.45593999997E+02  0.45594000000E+02  0.51100000000E-03 0.  1.
    9900012    2    1    2    0    0 -0.43136758086E+01 -0.42294903002E+02  0.87267935585E+01  0.47787267924E+02  0.19999985774E+02 0.  0.
         12    1    1    2    0    0  0.43136758086E+01  0.42294903002E+02 -0.87267935585E+01  0.43400732076E+02  0.00000000000E+00 0. -1.
         11    1    3    3    0    0  0.15644873204E+01 -0.12843565382E+02  0.80064110474E+01  0.15215367575E+02  0.51100000000E-03 0. -1.
        -11    1    3    3    0    0 -0.59836768858E+01 -0.30210458790E+02  0.22309349989E+01  0.30878038808E+02  0.51100000000E-03 0.  1.
         12    1    3    3    0    0  0.10551375682E+00  0.75912117104E+00 -0.15105524878E+01  0.16938615420E+01  0.00000000000E+00 0. -1.
</event>
<event>
 7    1  0.1736465E-010  0.4778727E+02  0.7816164E-02  0.1312668E+00
        -11   -1    0    0    0    0  0.00000000000E+00  0.00000000000E+00  0.45593999997E+02  0.45594000000E+02  0.51100000000E-03 0.  1.
         11   -1    0    0    0    0 -0.00000000000E+00 -0.00000000000E+00 -0.45593999997E+02  0.45594000000E+02  0.51100000000E-03 0. -1.
    9900012    2    1    2    0    0 -0.12933892911E+01 -0.42912978462E+02  0.63581948041E+01  0.47787271694E+02  0.20000002960E+02 0.  0.
         12    1    1    2    0    0  0.12933892911E+01  0.42912978462E+02 -0.63581948041E+01  0.43400728306E+02  0.00000000000E+00 0. -1.
         11    1    3    3    0    0 -0.96811585913E+01 -0.19705517954E+02  0.21391087092E+01  0.22059194360E+02  0.51100000000E-03 0. -1.
        -11    1    3    3    0    0  0.31170905037E+01 -0.97334624850E+01 -0.11735893112E+01  0.10287558373E+02  0.51100000000E-03 0.  1.
        -12    1    3    3    0    0  0.52706787964E+01 -0.13473998024E+02  0.53926754061E+01  0.15440518960E+02  0.00000000000E+00 0.  1.
</event>
<event>
 7    1  0.1736465E-010  0.4778727E+02  0.7816164E-02  0.1312668E+00
        -11   -1    0    0    0    0  0.00000000000E+00  0.00000000000E+00  0.45593999997E+02  0.45594000000E+02  0.51100000000E-03 0.  1.
         11   -1    0    0    0    0 -0.00000000000E+00 -0.00000000000E+00 -0.45593999997E+02  0.45594000000E+02  0.51100000000E-03 0. -1.
    9900012    2    1    2    0    0 -0.64814853282E-01 -0.41919138312E+02  0.11242990493E+02  0.47787271976E+02  0.20000004247E+02 0.  0.
         12    1    1    2    0    0  0.64814853282E-01  0.41919138312E+02 -0.11242990493E+02  0.43400728024E+02  0.00000000000E+00 0. -1.
         11    1    3    3    0    0 -0.40465033754E+01 -0.95395067488E+01  0.53876435232E+01  0.11679172983E+02  0.51100000000E-03 0. -1.
        -11    1    3    3    0    0  0.48804946888E+01 -0.28944771250E+02  0.96620056954E+01  0.30902643341E+02  0.51100000000E-03 0.  1.
         12    1    3    3    0    0 -0.89880616670E+00 -0.34348603131E+01 -0.38066587252E+01  0.52054556521E+01  0.00000000000E+00 0. -1.
</event>
<event>
 7    1  0.1736465E-010  0.4778726E+02  0.7816164E-02  0.1312668E+00
        -11   -1    0    0    0    0  0.00000000000E+00  0.00000000000E+00  0.45593999997E+02  0.45594000000E+02  0.51100000000E-03 0.  1.
         11   -1    0    0    0    0 -0.00000000000E+00 -0.00000000000E+00 -0.45593999997E+02  0.45594000000E+02  0.51100000000E-03 0. -1.
    9900012    2    1    2    0    0 -0.15414390858E+02 -0.56775183051E+00  0.40567203703E+02  0.47787264938E+02  0.19999972156E+02 0.  0.
         12    1    1    2    0    0  0.15414390858E+02  0.56775183051E+00 -0.40567203703E+02  0.43400735062E+02  0.00000000000E+00 0. -1.
         11    1    3    3    0    0 -0.25179648502E+01 -0.91186593019E+00  0.71601759366E+01  0.76445906474E+01  0.51100000000E-03 0. -1.
        -11    1    3    3    0    0 -0.71591963534E+01 -0.88228031457E+01  0.15398685521E+02  0.19136756878E+02  0.51100000000E-03 0.  1.
         12    1    3    3    0    0 -0.57372296547E+01  0.91669172454E+01  0.18008342246E+02  0.21005917412E+02  0.00000000000E+00 0. -1.
</event>
<event>
 7    1  0.1736465E-010  0.4778727E+02  0.7816164E-02  0.1312668E+00
        -11   -1    0    0    0    0  0.00000000000E+00  0.00000000000E+00  0.45593999997E+02  0.45594000000E+02  0.51100000000E-03 0.  1.
         11   -1    0    0    0    0 -0.00000000000E+00 -0.00000000000E+00 -0.45593999997E+02  0.45594000000E+02  0.51100000000E-03 0. -1.
    9900012    2    1    2    0    0  0.50584958227E+01  0.12067218806E+02  0.41381362069E+02  0.47787271016E+02  0.19999999870E+02 0.  0.
         12    1    1    2    0    0 -0.50584958227E+01 -0.12067218806E+02 -0.41381362069E+02  0.43400728984E+02  0.00000000000E+00 0. -1.
         11    1    3    3    0    0  0.52720421940E+01  0.45539106672E+01  0.34829853305E+01  0.77886916959E+01  0.51100000000E-03 0. -1.
        -11    1    3    3    0    0 -0.45699311386E+01  0.45406045089E+01  0.12544557251E+02  0.14102030946E+02  0.51100000000E-03 0.  1.
         12    1    3    3    0    0  0.43563847674E+01  0.29727036295E+01  0.25353819487E+02  0.25896548374E+02  0.00000000000E+00 0. -1.
</event>
<event>
 7    1  0.1736465E-010  0.4778727E+02  0.7816164E-02  0.1312668E+00
        -11   -1    0    0    0    0  0.00000000000E+00  0.00000000000E+00  0.45593999997E+02  0.45594000000E+02  0.51100000000E-03 0.  1.
         11   -1    0    0    0    0 -0.00000000000E+00 -0.00000000000E+00 -0.45593999997E+02  0.45594000000E+02  0.51100000000E-03 0. -1.
    9900012    2    1    2    0    0  0.28771990259E+02 -0.31155962557E+02  0.92250641981E+01  0.47787271484E+02  0.20000002003E+02 0.  0.
         12    1    1    2    0    0 -0.28771990259E+02  0.31155962557E+02 -0.92250641981E+01  0.43400728516E+02  0.00000000000E+00 0. -1.
         11    1    3    3    0    0  0.16481708630E+02 -0.14811941959E+02  0.66335142018E+01  0.23131014999E+02  0.51100000000E-03 0. -1.
        -11    1    3    3    0    0  0.84251225118E+01 -0.16505402214E+02 -0.20152438254E+01  0.18640606201E+02  0.51100000000E-03 0.  1.
         12    1    3    3    0    0  0.38651591173E+01  0.16138161614E+00  0.46067938218E+01  0.60156502844E+01  0.00000000000E+00 0. -1.
</event>
<event>
 7    1  0.1736465E-010  0.4778724E+02  0.7816164E-02  0.1312668E+00
        -11   -1    0    0    0    0  0.00000000000E+00  0.00000000000E+00  0.45593999997E+02  0.45594000000E+02  0.51100000000E-03 0.  1.
         11   -1    0    0    0    0 -0.00000000000E+00 -0.00000000000E+00 -0.45593999997E+02  0.45594000000E+02  0.51100000000E-03 0. -1.
    9900012    2    1    2    0    0 -0.17850994970E+02 -0.21855504218E+02  0.32974304606E+02  0.47787241362E+02  0.19999864666E+02 0.  0.
         12    1    1    2    0    0  0.17850994970E+02  0.21855504218E+02 -0.32974304606E+02  0.43400758638E+02  0.00000000000E+00 0. -1.
         11    1    3    3    0    0 -0.11874397121E+02 -0.48782946472E+01  0.48741681687E+01  0.13731590630E+02  0.51100000000E-03 0. -1.
        -11    1    3    3    0    0 -0.49131758202E+01 -0.12629520104E+02  0.15014473317E+02  0.20225688714E+02  0.51100000000E-03 0.  1.
        -12    1    3    3    0    0 -0.10634220292E+01 -0.43476894676E+01  0.13085663120E+02  0.13829962018E+02  0.00000000000E+00 0.  1.
</event>
<event>
 7    1  0.1736465E-010  0.4778727E+02  0.7816164E-02  0.1312668E+00
        -11   -1    0    0    0    0  0.00000000000E+00  0.00000000000E+00  0.45593999997E+02  0.45594000000E+02  0.51100000000E-03 0.  1.
         11   -1    0    0    0    0 -0.00000000000E+00 -0.00000000000E+00 -0.45593999997E+02  0.45594000000E+02  0.51100000000E-03 0. -1.
    9900012    2    1    2    0    0 -0.31399222740E+02 -0.96331646553E+01  0.28371014173E+02  0.47787268495E+02  0.19999988375E+02 0.  0.
         12    1    1    2    0    0  0.31399222740E+02  0.96331646553E+01 -0.28371014173E+02  0.43400731505E+02  0.00000000000E+00 0. -1.
         11    1    3    3    0    0 -0.10868515387E+02  0.23671870911E+01  0.14134519288E+02  0.17986462610E+02  0.51100000000E-03 0. -1.
        -11    1    3    3    0    0 -0.12794221447E+02 -0.89738273229E+01  0.14734438297E+02  0.21478485781E+02  0.51100000000E-03 0.  1.
         12    1    3    3    0    0 -0.77364859065E+01 -0.30265244235E+01 -0.49794341241E+00  0.83223201038E+01  0.00000000000E+00 0. -1.
</event>
<event>
 7    1  0.1736465E-010  0.4778728E+02  0.7816164E-02  0.1312668E+00
        -11   -1    0    0    0    0  0.00000000000E+00  0.00000000000E+00  0.45593999997E+02  0.45594000000E+02  0.51100000000E-03 0.  1.
         11   -1    0    0    0    0 -0.00000000000E+00 -0.00000000000E+00 -0.45593999997E+02  0.45594000000E+02  0.51100000000E-03 0. -1.
    9900012    2    1    2    0    0  0.17994072012E+02 -0.16099423526E+02  0.36064452146E+02  0.47787276803E+02  0.20000026254E+02 0.  0.
         12    1    1    2    0    0 -0.17994072012E+02  0.16099423526E+02 -0.36064452146E+02  0.43400723197E+02  0.00000000000E+00 0. -1.
         11    1    3    3    0    0  0.39752051937E+01 -0.42512432178E+01 -0.16495873254E+00  0.58225885029E+01  0.51100000000E-03 0. -1.
        -11    1    3    3    0    0  0.14287179281E+02 -0.74963485494E+01  0.23469844860E+02  0.28480736496E+02  0.51100000000E-03 0.  1.
         12    1    3    3    0    0 -0.26831246253E+00 -0.43518317589E+01  0.12759566019E+02  0.13483951804E+02  0.00000000000E+00 0. -1.
</event>
<event>
 7    1  0.1736465E-010  0.4778727E+02  0.7816164E-02  0.1312668E+00
        -11   -1    0    0    0    0  0.00000000000E+00  0.00000000000E+00  0.45593999997E+02  0.45594000000E+02  0.51100000000E-03 0. -1.
         11   -1    0    0    0    0 -0.00000000000E+00 -0.00000000000E+00 -0.45593999997E+02  0.45594000000E+02  0.51100000000E-03 0.  1.
    9900012    2    1    2    0    0  0.37963812555E+02  0.16979063773E+02  0.12413055593E+02  0.47787267063E+02  0.19999981847E+02 0.  0.
         12    1    1    2    0    0 -0.37963812555E+02 -0.16979063773E+02 -0.12413055593E+02  0.43400732937E+02  0.00000000000E+00 0. -1.
         11    1    3    3    0    0  0.84960541456E+01  0.66040349606E+01  0.63057594533E+01  0.12472322011E+02  0.51100000000E-03 0. -1.
        -11    1    3    3    0    0  0.77298998969E+01  0.12713641078E+01 -0.49668099063E+01  0.92756088758E+01  0.51100000000E-03 0.  1.
        -12    1    3    3    0    0  0.21737858513E+02  0.91036647046E+01  0.11074106046E+02  0.26039336176E+02  0.00000000000E+00 0.  1.
</event>
<event>
 7    1  0.1736465E-010  0.4778727E+02  0.7816164E-02  0.1312668E+00
        -11   -1    0    0    0    0  0.00000000000E+00  0.00000000000E+00  0.45593999997E+02  0.45594000000E+02  0.51100000000E-03 0. -1.
         11   -1    0    0    0    0 -0.00000000000E+00 -0.00000000000E+00 -0.45593999997E+02  0.45594000000E+02  0.51100000000E-03 0.  1.
    9900012    2    1    2    0    0  0.12178567854E+02 -0.40584767300E+02 -0.93905349074E+01  0.47787274227E+02  0.20000014509E+02 0.  0.
         12    1    1    2    0    0 -0.12178567854E+02  0.40584767300E+02  0.93905349074E+01  0.43400725773E+02  0.00000000000E+00 0. -1.
         11    1    3    3    0    0  0.68309102530E+00 -0.25007681261E+02 -0.73026104836E+00  0.25027665031E+02  0.51100000000E-03 0. -1.
        -11    1    3    3    0    0 -0.48086713224E+00  0.36026149021E+00  0.53586490036E+00  0.80509191572E+00  0.51100000000E-03 0.  1.
        -12    1    3    3    0    0  0.11976343961E+02 -0.15937347529E+02 -0.91961387595E+01  0.21954517280E+02  0.00000000000E+00 0.  1.
</event>
<event>
 7    1  0.1736465E-010  0.4778727E+02  0.7816164E-02  0.1312668E+00
        -11   -1    0    0    0    0  0.00000000000E+00  0.00000000000E+00  0.45593999997E+02  0.45594000000E+02  0.51100000000E-03 0.  1.
         11   -1    0    0    0    0 -0.00000000000E+00 -0.00000000000E+00 -0.45593999997E+02  0.45594000000E+02  0.51100000000E-03 0. -1.
    9900012    2    1    2    0    0 -0.21835282914E+02  0.35602093050E+02  0.11804019368E+02  0.47787268639E+02  0.19999989032E+02 0.  0.
         12    1    1    2    0    0  0.21835282914E+02 -0.35602093050E+02 -0.11804019368E+02  0.43400731361E+02  0.00000000000E+00 0. -1.
         11    1    3    3    0    0 -0.13086773881E+02  0.13929164875E+02  0.35286925864E+01  0.19435456166E+02  0.51100000000E-03 0. -1.
        -11    1    3    3    0    0  0.17240778970E+01 -0.10514248623E+01  0.74553449970E-01  0.20207665164E+01  0.51100000000E-03 0.  1.
        -12    1    3    3    0    0 -0.10472586929E+02  0.22724353037E+02  0.82007733321E+01  0.26331045957E+02  0.00000000000E+00 0.  1.
</event>
<event>
 7    1  0.1736465E-010  0.4778731E+02  0.7816164E-02  0.1312668E+00
        -11   -1    0    0    0    0  0.00000000000E+00  0.00000000000E+00  0.45593999997E+02  0.45594000000E+02  0.51100000000E-03 0.  1.
         11   -1    0    0    0    0 -0.00000000000E+00 -0.00000000000E+00 -0.45593999997E+02  0.45594000000E+02  0.51100000000E-03 0. -1.
    9900012    2    1    2    0    0 -0.28576001066E+02 -0.83223164174E+01  0.31587512747E+02  0.47787311653E+02  0.20000185149E+02 0.  0.
         12    1    1    2    0    0  0.28576001066E+02  0.83223164174E+01 -0.31587512747E+02  0.43400688347E+02  0.00000000000E+00 0. -1.
         11    1    3    3    0    0 -0.15997073494E+02 -0.80093157819E+01  0.12942247882E+02  0.22080699268E+02  0.51100000000E-03 0.  1.
        -11    1    3    3    0    0 -0.95515460566E+01  0.31190120075E+01  0.48211398974E+01  0.11144669495E+02  0.51100000000E-03 0. -1.
         12    1    3    3    0    0 -0.30273815153E+01 -0.34320126430E+01  0.13824124967E+02  0.14561942890E+02  0.00000000000E+00 0. -1.
</event>
<event>
 7    1  0.1736465E-010  0.4778726E+02  0.7816164E-02  0.1312668E+00
        -11   -1    0    0    0    0  0.00000000000E+00  0.00000000000E+00  0.45593999997E+02  0.45594000000E+02  0.51100000000E-03 0. -1.
         11   -1    0    0    0    0 -0.00000000000E+00 -0.00000000000E+00 -0.45593999997E+02  0.45594000000E+02  0.51100000000E-03 0.  1.
    9900012    2    1    2    0    0  0.29864990992E+02  0.30655703785E+02  0.72065573277E+01  0.47787258877E+02  0.19999944524E+02 0.  0.
         12    1    1    2    0    0 -0.29864990992E+02 -0.30655703785E+02 -0.72065573277E+01  0.43400741123E+02  0.00000000000E+00 0. -1.
         11    1    3    3    0    0  0.82234306169E+01  0.32650232921E+01 -0.52322119042E+01  0.10279164844E+02  0.51100000000E-03 0. -1.
        -11    1    3    3    0    0  0.11828866708E+02  0.10773564831E+02  0.43277127121E+01  0.16574706162E+02  0.51100000000E-03 0.  1.
        -12    1    3    3    0    0  0.98126936667E+01  0.16617115662E+02  0.81110565197E+01  0.20933387872E+02  0.00000000000E+00 0.  1.
</event>
<event>
 7    1  0.1980906E-010  0.4778725E+02  0.7816164E-02  0.1312668E+00
        -11   -1    0    0    0    0  0.00000000000E+00  0.00000000000E+00  0.45593999997E+02  0.45594000000E+02  0.51100000000E-03 0.  1.
         11   -1    0    0    0    0 -0.00000000000E+00 -0.00000000000E+00 -0.45593999997E+02  0.45594000000E+02  0.51100000000E-03 0. -1.
    9900012    2    1    2    0    0 -0.42781084697E+02 -0.88737273954E+00  0.72536945468E+01  0.47787254352E+02  0.19999923893E+02 0.  0.
         12    1    1    2    0    0  0.42781084697E+02  0.88737273954E+00 -0.72536945468E+01  0.43400745648E+02  0.00000000000E+00 0. -1.
         11    1    3    3    0    0 -0.43982716966E+01  0.48930370001E+01 -0.14713856122E+01  0.67417787625E+01  0.51100000000E-03 0. -1.
        -11    1    3    3    0    0 -0.22471226364E+02 -0.73457656546E+00  0.62603587831E+00  0.22491943851E+02  0.51100000000E-03 0.  1.
        -12    1    3    3    0    0 -0.15911586636E+02 -0.50458331741E+01  0.80990442807E+01  0.18553531738E+02  0.00000000000E+00 0.  1.
</event>
<event>
 7    1  0.1736465E-010  0.4778728E+02  0.7816164E-02  0.1312668E+00
        -11   -1    0    0    0    0  0.00000000000E+00  0.00000000000E+00  0.45593999997E+02  0.45594000000E+02  0.51100000000E-03 0.  1.
         11   -1    0    0    0    0 -0.00000000000E+00 -0.00000000000E+00 -0.45593999997E+02  0.45594000000E+02  0.51100000000E-03 0. -1.
    9900012    2    1    2    0    0 -0.32877627942E+02  0.16846306832E+02  0.22779066532E+02  0.47787281746E+02  0.20000048791E+02 0.  0.
         12    1    1    2    0    0  0.32877627942E+02 -0.16846306832E+02 -0.22779066532E+02  0.43400718254E+02  0.00000000000E+00 0. -1.
         11    1    3    3    0    0 -0.15929015346E+02  0.12801386752E+02  0.31376429184E+01  0.20674956735E+02  0.51100000000E-03 0. -1.
        -11    1    3    3    0    0 -0.11088582389E+02  0.54481250755E+01  0.10781683316E+02  0.16397665127E+02  0.51100000000E-03 0.  1.
         12    1    3    3    0    0 -0.58600302064E+01 -0.14032049952E+01  0.88597402975E+01  0.10714659883E+02  0.00000000000E+00 0. -1.
</event>
<event>
 7    1  0.1736465E-010  0.4778727E+02  0.7816164E-02  0.1312668E+00
        -11   -1    0    0    0    0  0.00000000000E+00  0.00000000000E+00  0.45593999997E+02  0.45594000000E+02  0.51100000000E-03 0. -1.
         11   -1    0    0    0    0 -0.00000000000E+00 -0.00000000000E+00 -0.45593999997E+02  0.45594000000E+02  0.51100000000E-03 0.  1.
    9900012    2    1    2    0    0 -0.15476418146E+02  0.40537413815E+02  0.90653796917E+00  0.47787271337E+02  0.20000001333E+02 0.  0.
         12    1    1    2    0    0  0.15476418146E+02 -0.40537413815E+02 -0.90653796917E+00  0.43400728663E+02  0.00000000000E+00 0. -1.
         11    1    3    3    0    0 -0.77196799161E+01  0.39880267409E+01 -0.13659120266E+01  0.87956541098E+01  0.51100000000E-03 0. -1.
        -11    1    3    3    0    0 -0.89081659769E+01  0.15811757481E+02  0.68311324889E+00  0.18161325384E+02  0.51100000000E-03 0.  1.
         12    1    3    3    0    0  0.11514277476E+01  0.20737629593E+02  0.15893367469E+01  0.20830291843E+02  0.00000000000E+00 0. -1.
</event>
<event>
 7    1  0.1736465E-010  0.4778727E+02  0.7816164E-02  0.1312668E+00
        -11   -1    0    0    0    0  0.00000000000E+00  0.00000000000E+00  0.45593999997E+02  0.45594000000E+02  0.51100000000E-03 0.  1.
         11   -1    0    0    0    0 -0.00000000000E+00 -0.00000000000E+00 -0.45593999997E+02  0.45594000000E+02  0.51100000000E-03 0. -1.
    9900012    2    1    2    0    0 -0.43090506937E+02  0.34651313482E+01 -0.38502033152E+01  0.47787274328E+02  0.20000014969E+02 0.  0.
         12    1    1    2    0    0  0.43090506937E+02 -0.34651313482E+01  0.38502033152E+01  0.43400725672E+02  0.00000000000E+00 0. -1.
         11    1    3    3    0    0 -0.34996247859E+00  0.34430342453E+01 -0.21054547384E+01  0.40509132881E+01  0.51100000000E-03 0. -1.
        -11    1    3    3    0    0 -0.20510329993E+02  0.44812522460E+01 -0.17049903752E+01  0.21063291541E+02  0.51100000000E-03 0.  1.
        -12    1    3    3    0    0 -0.22230214465E+02 -0.44591551431E+01 -0.39758201549E-01  0.22673069498E+02  0.00000000000E+00 0.  1.
</event>
<event>
 7    1  0.1736465E-010  0.4778727E+02  0.7816164E-02  0.1312668E+00
        -11   -1    0    0    0    0  0.00000000000E+00  0.00000000000E+00  0.45593999997E+02  0.45594000000E+02  0.51100000000E-03 0. -1.
         11   -1    0    0    0    0 -0.00000000000E+00 -0.00000000000E+00 -0.45593999997E+02  0.45594000000E+02  0.51100000000E-03 0.  1.
    9900012    2    1    2    0    0  0.34063111313E+02  0.20237925274E+02 -0.17713103112E+02  0.47787271969E+02  0.20000004217E+02 0.  0.
         12    1    1    2    0    0 -0.34063111313E+02 -0.20237925274E+02  0.17713103112E+02  0.43400728031E+02  0.00000000000E+00 0. -1.
         11    1    3    3    0    0  0.47292731622E+01  0.21460115944E+01  0.33572446321E+01  0.61840506294E+01  0.51100000000E-03 0. -1.
        -11    1    3    3    0    0  0.11617427345E+02  0.12746225510E+02 -0.84576186470E+01  0.19208388697E+02  0.51100000000E-03 0.  1.
         12    1    3    3    0    0  0.17716410806E+02  0.53456881694E+01 -0.12612729097E+02  0.22394832643E+02  0.00000000000E+00 0. -1.
</event>
<event>
 7    1  0.1736465E-010  0.4778727E+02  0.7816164E-02  0.1312668E+00
        -11   -1    0    0    0    0  0.00000000000E+00  0.00000000000E+00  0.45593999997E+02  0.45594000000E+02  0.51100000000E-03 0. -1.
         11   -1    0    0    0    0 -0.00000000000E+00 -0.00000000000E+00 -0.45593999997E+02  0.45594000000E+02  0.51100000000E-03 0.  1.
    9900012    2    1    2    0    0 -0.26150813180E+02 -0.32273154227E+02 -0.12577814806E+02  0.47787274902E+02  0.20000017587E+02 0.  0.
         12    1    1    2    0    0  0.26150813180E+02  0.32273154227E+02  0.12577814806E+02  0.43400725098E+02  0.00000000000E+00 0. -1.
         11    1    3    3    0    0 -0.13347724097E+02 -0.24388625360E+02 -0.85335514134E+01  0.29082439470E+02  0.51100000000E-03 0. -1.
        -11    1    3    3    0    0 -0.95516363176E+01 -0.10303160408E+02 -0.41547193023E+01  0.14650957767E+02  0.51100000000E-03 0.  1.
        -12    1    3    3    0    0 -0.32514527652E+01  0.24186315411E+01  0.11045590948E+00  0.40538776651E+01  0.00000000000E+00 0.  1.
</event>
<event>
 7    1  0.1736465E-010  0.4778727E+02  0.7816164E-02  0.1312668E+00
        -11   -1    0    0    0    0  0.00000000000E+00  0.00000000000E+00  0.45593999997E+02  0.45594000000E+02  0.51100000000E-03 0.  1.
         11   -1    0    0    0    0 -0.00000000000E+00 -0.00000000000E+00 -0.45593999997E+02  0.45594000000E+02  0.51100000000E-03 0. -1.
    9900012    2    1    2    0    0 -0.37594502040E+02  0.20043985332E+02  0.82774004340E+01  0.47787270864E+02  0.19999999175E+02 0.  0.
         12    1    1    2    0    0  0.37594502040E+02 -0.20043985332E+02 -0.82774004340E+01  0.43400729136E+02  0.00000000000E+00 0. -1.
         11    1    3    3    0    0 -0.27452914713E+02  0.18481500185E+02  0.10150060367E+02  0.34615778210E+02  0.51100000000E-03 0. -1.
        -11    1    3    3    0    0 -0.80964340399E+01  0.17771308615E+01  0.22286269384E+01  0.85835433565E+01  0.51100000000E-03 0.  1.
        -12    1    3    3    0    0 -0.20451532871E+01 -0.21464571464E+00 -0.41012868717E+01  0.45879492973E+01  0.00000000000E+00 0.  1.
</event>
<event>
 7    1  0.1736465E-010  0.4778729E+02  0.7816164E-02  0.1312668E+00
        -11   -1    0    0    0    0  0.00000000000E+00  0.00000000000E+00  0.45593999997E+02  0.45594000000E+02  0.51100000000E-03 0. -1.
         11   -1    0    0    0    0 -0.00000000000E+00 -0.00000000000E+00 -0.45593999997E+02  0.45594000000E+02  0.51100000000E-03 0.  1.
    9900012    2    1    2    0    0  0.41435965967E+02  0.12496950520E+02  0.32417551844E+01  0.47787285437E+02  0.20000065620E+02 0.  0.
         12    1    1    2    0    0 -0.41435965967E+02 -0.12496950520E+02 -0.32417551844E+01  0.43400714563E+02  0.00000000000E+00 0. -1.
         11    1    3    3    0    0  0.10060520615E+02  0.99870690806E+01  0.58739544565E+01  0.15344672205E+02  0.51100000000E-03 0. -1.
        -11    1    3    3    0    0  0.53030553272E+01  0.12466893887E+00 -0.33100919739E+01  0.62525712539E+01  0.51100000000E-03 0.  1.
         12    1    3    3    0    0  0.26072390025E+02  0.23852125005E+01  0.67789270185E+00  0.26190041977E+02  0.00000000000E+00 0. -1.
</event>
<event>
 7    1  0.1736465E-010  0.4778727E+02  0.7816164E-02  0.1312668E+00
        -11   -1    0    0    0    0  0.00000000000E+00  0.00000000000E+00  0.45593999997E+02  0.45594000000E+02  0.51100000000E-03 0.  1.
         11   -1    0    0    0    0 -0.00000000000E+00 -0.00000000000E+00 -0.45593999997E+02  0.45594000000E+02  0.51100000000E-03 0. -1.
    9900012    2    1    2    0    0  0.15883448651E+02 -0.56975640767E+01  0.39985960451E+02  0.47787271773E+02  0.20000003321E+02 0.  0.
         12    1    1    2    0    0 -0.15883448651E+02  0.56975640767E+01 -0.39985960451E+02  0.43400728227E+02  0.00000000000E+00 0. -1.
         11    1    3    3    0    0  0.43209086223E+01 -0.80609938753E+01  0.65196043285E+01  0.11231879382E+02  0.51100000000E-03 0.  1.
        -11    1    3    3    0    0  0.54980482806E+01  0.32519943537E+01  0.73887794154E+01  0.97671932347E+01  0.51100000000E-03 0. -1.
        -12    1    3    3    0    0  0.60644917482E+01 -0.88856455511E+00  0.26077576707E+02  0.26788199157E+02  0.00000000000E+00 0.  1.
</event>
<event>
 7    1  0.1736465E-010  0.4778727E+02  0.7816164E-02  0.1312668E+00
        -11   -1    0    0    0    0  0.00000000000E+00  0.00000000000E+00  0.45593999997E+02  0.45594000000E+02  0.51100000000E-03 0. -1.
         11   -1    0    0    0    0 -0.00000000000E+00 -0.00000000000E+00 -0.45593999997E+02  0.45594000000E+02  0.51100000000E-03 0.  1.
    9900012    2    1    2    0    0 -0.34401645880E+02 -0.18355883500E+02 -0.19058118724E+02  0.47787267430E+02  0.19999983519E+02 0.  0.
         12    1    1    2    0    0  0.34401645880E+02  0.18355883500E+02  0.19058118724E+02  0.43400732570E+02  0.00000000000E+00 0. -1.
         11    1    3    3    0    0 -0.14512638710E+02 -0.92209320705E+01 -0.26869497532E+01  0.17402929921E+02  0.51100000000E-03 0. -1.
        -11    1    3    3    0    0  0.18125134691E+01 -0.18741649760E+01 -0.25691759162E+01  0.36603776558E+01  0.51100000000E-03 0.  1.
        -12    1    3    3    0    0 -0.21701520639E+02 -0.72607864531E+01 -0.13801993054E+02  0.26723959853E+02  0.00000000000E+00 0.  1.
</event>
<event>
 7    1  0.1736465E-010  0.4778727E+02  0.7816164E-02  0.1312668E+00
        -11   -1    0    0    0    0  0.00000000000E+00  0.00000000000E+00  0.45593999997E+02  0.45594000000E+02  0.51100000000E-03 0. -1.
         11   -1    0    0    0    0 -0.00000000000E+00 -0.00000000000E+00 -0.45593999997E+02  0.45594000000E+02  0.51100000000E-03 0.  1.
    9900012    2    1    2    0    0 -0.79484640843E+01 -0.42612060719E+02 -0.21581372333E+01  0.47787270095E+02  0.19999995669E+02 0.  0.
         12    1    1    2    0    0  0.79484640843E+01  0.42612060719E+02  0.21581372333E+01  0.43400729905E+02  0.00000000000E+00 0. -1.
         11    1    3    3    0    0 -0.46112600384E+01 -0.23026023520E+02 -0.94834096879E+01  0.25325807744E+02  0.51100000000E-03 0.  1.
        -11    1    3    3    0    0 -0.33756658032E+01 -0.27036566323E+01  0.19478405815E+01  0.47433070733E+01  0.51100000000E-03 0. -1.
        -12    1    3    3    0    0  0.38461757300E-01 -0.16882380566E+02  0.53774318731E+01  0.17718155277E+02  0.00000000000E+00 0.  1.
</event>
<event>
 7    1  0.1736465E-010  0.4778728E+02  0.7816164E-02  0.1312668E+00
        -11   -1    0    0    0    0  0.00000000000E+00  0.00000000000E+00  0.45593999997E+02  0.45594000000E+02  0.51100000000E-03 0.  1.
         11   -1    0    0    0    0 -0.00000000000E+00 -0.00000000000E+00 -0.45593999997E+02  0.45594000000E+02  0.51100000000E-03 0. -1.
    9900012    2    1    2    0    0  0.43298959047E+02  0.21607055829E+01 -0.20382218681E+01  0.47787275910E+02  0.20000022183E+02 0.  0.
         12    1    1    2    0    0 -0.43298959047E+02 -0.21607055829E+01  0.20382218681E+01  0.43400724090E+02  0.00000000000E+00 0. -1.
         11    1    3    3    0    0  0.18286765370E+02 -0.20048303734E+01 -0.55721812238E+01  0.19221715230E+02  0.51100000000E-03 0. -1.
        -11    1    3    3    0    0  0.80389217046E+01  0.70773700213E+01 -0.10013469093E+01  0.10757142952E+02  0.51100000000E-03 0.  1.
        -12    1    3    3    0    0  0.16973271972E+02 -0.29118340650E+01  0.45353062649E+01  0.17808417728E+02  0.00000000000E+00 0.  1.
</event>
<event>
 7    1  0.1736465E-010  0.4778726E+02  0.7816164E-02  0.1312668E+00
        -11   -1    0    0    0    0  0.00000000000E+00  0.00000000000E+00  0.45593999997E+02  0.45594000000E+02  0.51100000000E-03 0. -1.
         11   -1    0    0    0    0 -0.00000000000E+00 -0.00000000000E+00 -0.45593999997E+02  0.45594000000E+02  0.51100000000E-03 0.  1.
    9900012    2    1    2    0    0  0.69426267939E+01 -0.21613077856E+02 -0.36990522007E+02  0.47787263606E+02  0.19999966084E+02 0.  0.
         12    1    1    2    0    0 -0.69426267939E+01  0.21613077856E+02  0.36990522007E+02  0.43400736394E+02  0.00000000000E+00 0. -1.
         11    1    3    3    0    0 -0.26578612490E+01 -0.62111130435E+01 -0.11437262775E+02  0.13283566227E+02  0.51100000000E-03 0. -1.
        -11    1    3    3    0    0  0.10237360307E+02 -0.17338400728E+02 -0.25464513545E+02  0.32463289054E+02  0.51100000000E-03 0.  1.
        -12    1    3    3    0    0 -0.63687226405E+00  0.19364359155E+01 -0.88745686892E-01  0.20404083249E+01  0.00000000000E+00 0.  1.
</event>
<event>
 7    1  0.1736465E-010  0.4778727E+02  0.7816164E-02  0.1312668E+00
        -11   -1    0    0    0    0  0.00000000000E+00  0.00000000000E+00  0.45593999997E+02  0.45594000000E+02  0.51100000000E-03 0.  1.
         11   -1    0    0    0    0 -0.00000000000E+00 -0.00000000000E+00 -0.45593999997E+02  0.45594000000E+02  0.51100000000E-03 0. -1.
    9900012    2    1    2    0    0  0.33708021510E+02  0.26232588061E+02 -0.76969966571E+01  0.47787272494E+02  0.20000006609E+02 0.  0.
         12    1    1    2    0    0 -0.33708021510E+02 -0.26232588061E+02  0.76969966571E+01  0.43400727506E+02  0.00000000000E+00 0. -1.
         11    1    3    3    0    0  0.13090033686E+01 -0.16669514309E+01  0.26873192170E+01  0.34225577756E+01  0.51100000000E-03 0.  1.
        -11    1    3    3    0    0  0.19059029002E+02  0.14985958659E+02 -0.31943949528E+01  0.24454645833E+02  0.51100000000E-03 0. -1.
        -12    1    3    3    0    0  0.13339989139E+02  0.12913580833E+02 -0.71899209213E+01  0.19910068885E+02  0.00000000000E+00 0.  1.
</event>
<event>
 7    1  0.1736465E-010  0.4778727E+02  0.7816164E-02  0.1312668E+00
        -11   -1    0    0    0    0  0.00000000000E+00  0.00000000000E+00  0.45593999997E+02  0.45594000000E+02  0.51100000000E-03 0.  1.
         11   -1    0    0    0    0 -0.00000000000E+00 -0.00000000000E+00 -0.45593999997E+02  0.45594000000E+02  0.51100000000E-03 0. -1.
    9900012    2    1    2    0    0  0.19080117319E+02  0.27543683132E+01  0.38884266006E+02  0.47787267696E+02  0.19999984733E+02 0.  0.
         12    1    1    2    0    0 -0.19080117319E+02 -0.27543683132E+01 -0.38884266006E+02  0.43400732304E+02  0.00000000000E+00 0. -1.
         11    1    3    3    0    0  0.60382186386E-02  0.45530859906E+01  0.54557583194E+00  0.45856604484E+01  0.51100000000E-03 0. -1.
        -11    1    3    3    0    0  0.62894080163E+01  0.17619261817E+01  0.14851792692E+02  0.16224573446E+02  0.51100000000E-03 0.  1.
         12    1    3    3    0    0  0.12784671084E+02 -0.35606438591E+01  0.23486897482E+02  0.26977033802E+02  0.00000000000E+00 0. -1.
</event>
<event>
 7    1  0.1736465E-010  0.4778727E+02  0.7816164E-02  0.1312668E+00
        -11   -1    0    0    0    0  0.00000000000E+00  0.00000000000E+00  0.45593999997E+02  0.45594000000E+02  0.51100000000E-03 0.  1.
         11   -1    0    0    0    0 -0.00000000000E+00 -0.00000000000E+00 -0.45593999997E+02  0.45594000000E+02  0.51100000000E-03 0. -1.
    9900012    2    1    2    0    0  0.34230829499E+02 -0.21786154464E+02  0.15402507801E+02  0.47787268888E+02  0.19999990169E+02 0.  0.
         12    1    1    2    0    0 -0.34230829499E+02  0.21786154464E+02 -0.15402507801E+02  0.43400731112E+02  0.00000000000E+00 0. -1.
         11    1    3    3    0    0  0.12091677446E+02 -0.22481671935E+01  0.10714586422E+02  0.16311507645E+02  0.51100000000E-03 0.  1.
        -11    1    3    3    0    0  0.51207804878E+01 -0.99046381217E+01  0.41971745701E+01  0.11913879459E+02  0.51100000000E-03 0. -1.
         12    1    3    3    0    0  0.17018371565E+02 -0.96333491483E+01  0.49074680890E+00  0.19561881785E+02  0.00000000000E+00 0. -1.
</event>
<event>
 7    1  0.1736465E-010  0.4778727E+02  0.7816164E-02  0.1312668E+00
        -11   -1    0    0    0    0  0.00000000000E+00  0.00000000000E+00  0.45593999997E+02  0.45594000000E+02  0.51100000000E-03 0.  1.
         11   -1    0    0    0    0 -0.00000000000E+00 -0.00000000000E+00 -0.45593999997E+02  0.45594000000E+02  0.51100000000E-03 0. -1.
    9900012    2    1    2    0    0  0.28252002100E+02 -0.21362480084E+02  0.25081704323E+02  0.47787273396E+02  0.20000010721E+02 0.  0.
         12    1    1    2    0    0 -0.28252002100E+02  0.21362480084E+02 -0.25081704323E+02  0.43400726604E+02  0.00000000000E+00 0. -1.
         11    1    3    3    0    0  0.37714796117E+01 -0.42942586011E+01  0.32800691968E+00  0.57247099661E+01  0.51100000000E-03 0. -1.
        -11    1    3    3    0    0  0.16645004691E+02 -0.60694600532E+01  0.22057216104E+02  0.28291611991E+02  0.51100000000E-03 0.  1.
        -12    1    3    3    0    0  0.78355177976E+01 -0.10998761430E+02  0.26964812994E+01  0.13770951439E+02  0.00000000000E+00 0.  1.
</event>
<event>
 7    1  0.1736465E-010  0.4778729E+02  0.7816164E-02  0.1312668E+00
        -11   -1    0    0    0    0  0.00000000000E+00  0.00000000000E+00  0.45593999997E+02  0.45594000000E+02  0.51100000000E-03 0.  1.
         11   -1    0    0    0    0 -0.00000000000E+00 -0.00000000000E+00 -0.45593999997E+02  0.45594000000E+02  0.51100000000E-03 0. -1.
    9900012    2    1    2    0    0 -0.24530291289E+02  0.28243473304E+01  0.35691871099E+02  0.47787288126E+02  0.20000077882E+02 0.  0.
         12    1    1    2    0    0  0.24530291289E+02 -0.28243473304E+01 -0.35691871099E+02  0.43400711874E+02  0.00000000000E+00 0. -1.
         11    1    3    3    0    0 -0.99360736470E+01 -0.24020392026E+01  0.27099893954E+01  0.10575414632E+02  0.51100000000E-03 0. -1.
        -11    1    3    3    0    0 -0.56817978532E+01  0.51064908196E+01  0.10163133829E+02  0.12714101023E+02  0.51100000000E-03 0.  1.
         12    1    3    3    0    0 -0.89124197892E+01  0.11989571347E+00  0.22818747875E+02  0.24497772471E+02  0.00000000000E+00 0. -1.
</event>
<event>
 7    1  0.1736465E-010  0.4778727E+02  0.7816164E-02  0.1312668E+00
        -11   -1    0    0    0    0  0.00000000000E+00  0.00000000000E+00  0.45593999997E+02  0.45594000000E+02  0.51100000000E-03 0. -1.
         11   -1    0    0    0    0 -0.00000000000E+00 -0.00000000000E+00 -0.45593999997E+02  0.45594000000E+02  0.51100000000E-03 0.  1.
    9900012    2    1    2    0    0 -0.15847623875E+02  0.29339988345E+02 -0.27778434949E+02  0.47787267900E+02  0.19999985664E+02 0.  0.
         12    1    1    2    0    0  0.15847623875E+02 -0.29339988345E+02  0.27778434949E+02  0.43400732100E+02  0.00000000000E+00 0. -1.
         11    1    3    3    0    0 -0.74559754669E+01  0.86298992722E+01 -0.20542095156E+02  0.23495625237E+02  0.51100000000E-03 0. -1.
        -11    1    3    3    0    0  0.58988028888E+00  0.65984345302E-02  0.70968187483E-02  0.58996010077E+00  0.51100000000E-03 0.  1.
        -12    1    3    3    0    0 -0.89815286973E+01  0.20703490638E+02 -0.72434366121E+01  0.23701682563E+02  0.00000000000E+00 0.  1.
</event>
<event>
 7    1  0.1736465E-010  0.4778727E+02  0.7816164E-02  0.1312668E+00
        -11   -1    0    0    0    0  0.00000000000E+00  0.00000000000E+00  0.45593999997E+02  0.45594000000E+02  0.51100000000E-03 0. -1.
         11   -1    0    0    0    0 -0.00000000000E+00 -0.00000000000E+00 -0.45593999997E+02  0.45594000000E+02  0.51100000000E-03 0.  1.
    9900012    2    1    2    0    0 -0.24930469623E+02 -0.27114687790E+02 -0.22954052514E+02  0.47787272628E+02  0.20000007221E+02 0.  0.
         12    1    1    2    0    0  0.24930469623E+02  0.27114687790E+02  0.22954052514E+02  0.43400727372E+02  0.00000000000E+00 0. -1.
         11    1    3    3    0    0 -0.53149930703E+01 -0.11661300524E+02 -0.71853598132E+01  0.14692327153E+02  0.51100000000E-03 0. -1.
        -11    1    3    3    0    0  0.15256053569E+01 -0.50174684542E+01 -0.47295935866E+01  0.70619768584E+01  0.51100000000E-03 0.  1.
         12    1    3    3    0    0 -0.21141081910E+02 -0.10435918812E+02 -0.11039099114E+02  0.26032968617E+02  0.00000000000E+00 0. -1.
</event>
<event>
 7    1  0.1736465E-010  0.4778728E+02  0.7816164E-02  0.1312668E+00
        -11   -1    0    0    0    0  0.00000000000E+00  0.00000000000E+00  0.45593999997E+02  0.45594000000E+02  0.51100000000E-03 0.  1.
         11   -1    0    0    0    0 -0.00000000000E+00 -0.00000000000E+00 -0.45593999997E+02  0.45594000000E+02  0.51100000000E-03 0. -1.
    9900012    2    1    2    0    0  0.41161678159E+02 -0.10460257129E+02 -0.89399067723E+01  0.47787278103E+02  0.20000032182E+02 0.  0.
         12    1    1    2    0    0 -0.41161678159E+02  0.10460257129E+02  0.89399067723E+01  0.43400721897E+02  0.00000000000E+00 0. -1.
         11    1    3    3    0    0 -0.12063289712E+00 -0.94010978987E+00  0.14992973979E+01  0.17737676458E+01  0.51100000000E-03 0. -1.
        -11    1    3    3    0    0  0.34504098701E+02 -0.20393898524E+01 -0.96590397095E+01  0.35888563450E+02  0.51100000000E-03 0.  1.
        -12    1    3    3    0    0  0.67782123554E+01 -0.74807574867E+01 -0.78016446069E+00  0.10124947007E+02  0.00000000000E+00 0.  1.
</event>
<event>
 7    1  0.1736465E-010  0.4778727E+02  0.7816164E-02  0.1312668E+00
        -11   -1    0    0    0    0  0.00000000000E+00  0.00000000000E+00  0.45593999997E+02  0.45594000000E+02  0.51100000000E-03 0. -1.
         11   -1    0    0    0    0 -0.00000000000E+00 -0.00000000000E+00 -0.45593999997E+02  0.45594000000E+02  0.51100000000E-03 0.  1.
    9900012    2    1    2    0    0 -0.95562398399E+01  0.40539301871E+02 -0.12201090492E+02  0.47787270453E+02  0.19999997301E+02 0.  0.
         12    1    1    2    0    0  0.95562398399E+01 -0.40539301871E+02  0.12201090492E+02  0.43400729547E+02  0.00000000000E+00 0. -1.
         11    1    3    3    0    0 -0.89097304975E+01  0.23846954397E+02 -0.50752854325E+01  0.25958024848E+02  0.51100000000E-03 0. -1.
        -11    1    3    3    0    0  0.36880738675E+01  0.15442829367E+02 -0.69024961113E+01  0.17312634708E+02  0.51100000000E-03 0.  1.
         12    1    3    3    0    0 -0.43345832099E+01  0.12495181077E+01 -0.22330894789E+00  0.45166108966E+01  0.00000000000E+00 0. -1.
</event>
<event>
 7    1  0.1736465E-010  0.4778727E+02  0.7816164E-02  0.1312668E+00
        -11   -1    0    0    0    0  0.00000000000E+00  0.00000000000E+00  0.45593999997E+02  0.45594000000E+02  0.51100000000E-03 0.  1.
         11   -1    0    0    0    0 -0.00000000000E+00 -0.00000000000E+00 -0.45593999997E+02  0.45594000000E+02  0.51100000000E-03 0. -1.
    9900012    2    1    2    0    0 -0.34188035082E+02  0.21389285621E+02 -0.16040584783E+02  0.47787266799E+02  0.19999980645E+02 0.  0.
         12    1    1    2    0    0  0.34188035082E+02 -0.21389285621E+02  0.16040584783E+02  0.43400733201E+02  0.00000000000E+00 0. -1.
         11    1    3    3    0    0 -0.80184378195E+01  0.28284249879E+01 -0.59176799367E+01  0.10359260064E+02  0.51100000000E-03 0. -1.
        -11    1    3    3    0    0 -0.16251953874E+02  0.20458319249E+01 -0.19279936591E+01  0.16493289326E+02  0.51100000000E-03 0.  1.
         12    1    3    3    0    0 -0.99176433886E+01  0.16515028709E+02 -0.81949111875E+01  0.20934717409E+02  0.00000000000E+00 0. -1.
</event>
<event>
 7    1  0.1736465E-010  0.4778727E+02  0.7816164E-02  0.1312668E+00
        -11   -1    0    0    0    0  0.00000000000E+00  0.00000000000E+00  0.45593999997E+02  0.45594000000E+02  0.51100000000E-03 0.  1.
         11   -1    0    0    0    0 -0.00000000000E+00 -0.00000000000E+00 -0.45593999997E+02  0.45594000000E+02  0.51100000000E-03 0. -1.
    9900012    2    1    2    0    0  0.42666643709E+02 -0.29112461171E+01  0.73963256886E+01  0.47787268750E+02  0.19999989539E+02 0.  0.
         12    1    1    2    0    0 -0.42666643709E+02  0.29112461171E+01 -0.73963256886E+01  0.43400731250E+02  0.00000000000E+00 0. -1.
         11    1    3    3    0    0  0.33223766412E+02  0.12535177812E+01  0.99915154425E+01  0.34716283535E+02  0.51100000000E-03 0. -1.
        -11    1    3    3    0    0  0.64356733244E+01  0.89043790494E+00 -0.30382448743E+01  0.71722871511E+01  0.51100000000E-03 0.  1.
         12    1    3    3    0    0  0.30072039727E+01 -0.50552018033E+01  0.44305512035E+00  0.58986980635E+01  0.00000000000E+00 0. -1.
</event>
<event>
 7    1  0.1736465E-010  0.4778727E+02  0.7816164E-02  0.1312668E+00
        -11   -1    0    0    0    0  0.00000000000E+00  0.00000000000E+00  0.45593999997E+02  0.45594000000E+02  0.51100000000E-03 0.  1.
         11   -1    0    0    0    0 -0.00000000000E+00 -0.00000000000E+00 -0.45593999997E+02  0.45594000000E+02  0.51100000000E-03 0. -1.
    9900012    2    1    2    0    0  0.21766706163E+02 -0.27749685614E+02  0.25294051916E+02  0.47787267158E+02  0.19999982281E+02 0.  0.
         12    1    1    2    0    0 -0.21766706163E+02  0.27749685614E+02 -0.25294051916E+02  0.43400732842E+02  0.00000000000E+00 0. -1.
         11    1    3    3    0    0  0.18098772919E+02 -0.18881720432E+02  0.16694066221E+02  0.31028644748E+02  0.51100000000E-03 0. -1.
        -11    1    3    3    0    0  0.29526687332E+01 -0.16500672556E+01  0.88775128663E+01  0.95000636602E+01  0.51100000000E-03 0.  1.
        -12    1    3    3    0    0  0.71526451097E+00 -0.72178979261E+01 -0.27752717096E+00  0.72585587497E+01  0.00000000000E+00 0.  1.
</event>
<event>
 7    1  0.1736465E-010  0.4778727E+02  0.7816164E-02  0.1312668E+00
        -11   -1    0    0    0    0  0.00000000000E+00  0.00000000000E+00  0.45593999997E+02  0.45594000000E+02  0.51100000000E-03 0.  1.
         11   -1    0    0    0    0 -0.00000000000E+00 -0.00000000000E+00 -0.45593999997E+02  0.45594000000E+02  0.51100000000E-03 0. -1.
    9900012    2    1    2    0    0 -0.23450425976E+02 -0.10773418854E+02  0.34894613634E+02  0.47787273129E+02  0.20000009504E+02 0.  0.
         12    1    1    2    0    0  0.23450425976E+02  0.10773418854E+02 -0.34894613634E+02  0.43400726871E+02  0.00000000000E+00 0. -1.
         11    1    3    3    0    0  0.18753356435E+01 -0.23297910440E+01  0.31064881206E+01  0.43122011536E+01  0.51100000000E-03 0. -1.
        -11    1    3    3    0    0 -0.16733078915E+02 -0.69598472813E+01  0.11687698741E+02  0.21564732928E+02  0.51100000000E-03 0.  1.
         12    1    3    3    0    0 -0.85926827046E+01 -0.14837805285E+01  0.20100426773E+02  0.21910339047E+02  0.00000000000E+00 0. -1.
</event>
<event>
 7    1  0.1736465E-010  0.4778727E+02  0.7816164E-02  0.1312668E+00
        -11   -1    0    0    0    0  0.00000000000E+00  0.00000000000E+00  0.45593999997E+02  0.45594000000E+02  0.51100000000E-03 0.  1.
         11   -1    0    0    0    0 -0.00000000000E+00 -0.00000000000E+00 -0.45593999997E+02  0.45594000000E+02  0.51100000000E-03 0. -1.
    9900012    2    1    2    0    0 -0.21875926748E+01  0.54409294601E+01  0.43002719911E+02  0.47787271955E+02  0.20000004150E+02 0.  0.
         12    1    1    2    0    0  0.21875926748E+01 -0.54409294601E+01 -0.43002719911E+02  0.43400728045E+02  0.00000000000E+00 0. -1.
         11    1    3    3    0    0 -0.77147540760E+01 -0.26148302712E+01  0.10092490954E+02  0.12969700911E+02  0.51100000000E-03 0. -1.
        -11    1    3    3    0    0  0.29401652431E+01  0.42612998535E-01  0.80782845261E+01  0.85968057248E+01  0.51100000000E-03 0.  1.
         12    1    3    3    0    0  0.25869961581E+01  0.80131467328E+01  0.24831944431E+02  0.26220765319E+02  0.00000000000E+00 0. -1.
</event>
<event>
 7    1  0.1736465E-010  0.4778727E+02  0.7816164E-02  0.1312668E+00
        -11   -1    0    0    0    0  0.00000000000E+00  0.00000000000E+00  0.45593999997E+02  0.45594000000E+02  0.51100000000E-03 0.  1.
         11   -1    0    0    0    0 -0.00000000000E+00 -0.00000000000E+00 -0.45593999997E+02  0.45594000000E+02  0.51100000000E-03 0. -1.
    9900012    2    1    2    0    0  0.38725199533E+02  0.11844285799E+02  0.15610731930E+02  0.47787272629E+02  0.20000007223E+02 0.  0.
         12    1    1    2    0    0 -0.38725199533E+02 -0.11844285799E+02 -0.15610731930E+02  0.43400727371E+02  0.00000000000E+00 0. -1.
         11    1    3    3    0    0  0.34041465132E+01 -0.22454677268E+01  0.33101155009E+01  0.52523522051E+01  0.51100000000E-03 0. -1.
        -11    1    3    3    0    0  0.21949432137E+02  0.15389688599E+02  0.11208350147E+02  0.29055932262E+02  0.51100000000E-03 0.  1.
         12    1    3    3    0    0  0.13371620883E+02 -0.12999350734E+01  0.10922662818E+01  0.13478988161E+02  0.00000000000E+00 0. -1.
</event>
<event>
 7    1  0.1736465E-010  0.4778727E+02  0.7816164E-02  0.1312668E+00
        -11   -1    0    0    0    0  0.00000000000E+00  0.00000000000E+00  0.45593999997E+02  0.45594000000E+02  0.51100000000E-03 0.  1.
         11   -1    0    0    0    0 -0.00000000000E+00 -0.00000000000E+00 -0.45593999997E+02  0.45594000000E+02  0.51100000000E-03 0. -1.
    9900012    2    1    2    0    0  0.73504845890E+01 -0.33193102178E+00  0.42772460332E+02  0.47787272302E+02  0.20000005733E+02 0.  0.
         12    1    1    2    0    0 -0.73504845890E+01  0.33193102178E+00 -0.42772460332E+02  0.43400727698E+02  0.00000000000E+00 0. -1.
         11    1    3    3    0    0  0.24631581348E+01 -0.12341479337E+01 -0.45259505091E+00  0.27919727185E+01  0.51100000000E-03 0. -1.
        -11    1    3    3    0    0  0.77982942699E+01 -0.17224888106E+01  0.21848083755E+02  0.23261967356E+02  0.51100000000E-03 0.  1.
        -12    1    3    3    0    0 -0.29109678157E+01  0.26247057225E+01  0.21376971627E+02  0.21733332228E+02  0.00000000000E+00 0.  1.
</event>
<event>
 7    1  0.1736465E-010  0.4778727E+02  0.7816164E-02  0.1312668E+00
        -11   -1    0    0    0    0  0.00000000000E+00  0.00000000000E+00  0.45593999997E+02  0.45594000000E+02  0.51100000000E-03 0. -1.
         11   -1    0    0    0    0 -0.00000000000E+00 -0.00000000000E+00 -0.45593999997E+02  0.45594000000E+02  0.51100000000E-03 0.  1.
    9900012    2    1    2    0    0 -0.77952374526E+01  0.12924755076E+02 -0.40691626190E+02  0.47787268869E+02  0.19999990080E+02 0.  0.
         12    1    1    2    0    0  0.77952374526E+01 -0.12924755076E+02  0.40691626190E+02  0.43400731131E+02  0.00000000000E+00 0. -1.
         11    1    3    3    0    0 -0.39827560153E+01 -0.25021870720E+01 -0.96533974070E+01  0.10738313060E+02  0.51100000000E-03 0. -1.
        -11    1    3    3    0    0 -0.26360287035E+01  0.16121382042E+02 -0.31599424986E+02  0.35572057376E+02  0.51100000000E-03 0.  1.
         12    1    3    3    0    0 -0.11764527338E+01 -0.69443989380E+00  0.56119620290E+00  0.14768984322E+01  0.00000000000E+00 0. -1.
</event>
<event>
 7    1  0.1736465E-010  0.4778726E+02  0.7816164E-02  0.1312668E+00
        -11   -1    0    0    0    0  0.00000000000E+00  0.00000000000E+00  0.45593999997E+02  0.45594000000E+02  0.51100000000E-03 0. -1.
         11   -1    0    0    0    0 -0.00000000000E+00 -0.00000000000E+00 -0.45593999997E+02  0.45594000000E+02  0.51100000000E-03 0.  1.
    9900012    2    1    2    0    0 -0.36019584352E+01 -0.38190375939E+01 -0.43082070793E+02  0.47787262950E+02  0.19999963092E+02 0.  0.
         12    1    1    2    0    0  0.36019584352E+01  0.38190375939E+01  0.43082070793E+02  0.43400737050E+02  0.00000000000E+00 0. -1.
         11    1    3    3    0    0 -0.32378187612E+01 -0.69887486046E+01 -0.16648113365E+02  0.18343548082E+02  0.51100000000E-03 0. -1.
        -11    1    3    3    0    0 -0.29157374512E+01 -0.32615376826E+01 -0.38635594492E+01  0.58366295769E+01  0.51100000000E-03 0.  1.
        -12    1    3    3    0    0  0.25515977772E+01  0.64312486933E+01 -0.22570397979E+02  0.23607085290E+02  0.00000000000E+00 0.  1.
</event>
<event>
 7    1  0.1736465E-010  0.4778727E+02  0.7816164E-02  0.1312668E+00
        -11   -1    0    0    0    0  0.00000000000E+00  0.00000000000E+00  0.45593999997E+02  0.45594000000E+02  0.51100000000E-03 0. -1.
         11   -1    0    0    0    0 -0.00000000000E+00 -0.00000000000E+00 -0.45593999997E+02  0.45594000000E+02  0.51100000000E-03 0.  1.
    9900012    2    1    2    0    0  0.11576921893E+02  0.41334335012E+02 -0.64086521234E+01  0.47787271971E+02  0.20000004224E+02 0.  0.
         12    1    1    2    0    0 -0.11576921893E+02 -0.41334335012E+02  0.64086521234E+01  0.43400728029E+02  0.00000000000E+00 0. -1.
         11    1    3    3    0    0  0.61569543958E+01  0.88514993293E+00 -0.60828621882E+00  0.62499272173E+01  0.51100000000E-03 0.  1.
        -11    1    3    3    0    0 -0.74489366289E+00  0.11760795752E+02 -0.18774308348E+01  0.11932976581E+02  0.51100000000E-03 0. -1.
        -12    1    3    3    0    0  0.61648611596E+01  0.28688389328E+02 -0.39229350698E+01  0.29604368172E+02  0.00000000000E+00 0.  1.
</event>
<event>
 7    1  0.1736465E-010  0.4778729E+02  0.7816164E-02  0.1312668E+00
        -11   -1    0    0    0    0  0.00000000000E+00  0.00000000000E+00  0.45593999997E+02  0.45594000000E+02  0.51100000000E-03 0. -1.
         11   -1    0    0    0    0 -0.00000000000E+00 -0.00000000000E+00 -0.45593999997E+02  0.45594000000E+02  0.51100000000E-03 0.  1.
    9900012    2    1    2    0    0  0.95291738731E+01  0.33093107562E+02 -0.26413302818E+02  0.47787291612E+02  0.20000093777E+02 0.  0.
         12    1    1    2    0    0 -0.95291738731E+01 -0.33093107562E+02  0.26413302818E+02  0.43400708388E+02  0.00000000000E+00 0. -1.
         11    1    3    3    0    0  0.77601760680E+00  0.43548561246E+01 -0.92965025314E+01  0.10295238451E+02  0.51100000000E-03 0. -1.
        -11    1    3    3    0    0  0.51168127411E+00  0.76320446302E+01  0.19332685010E+01  0.78897053381E+01  0.51100000000E-03 0.  1.
        -12    1    3    3    0    0  0.82414749922E+01  0.21106206807E+02 -0.19050068788E+02  0.29602347823E+02  0.00000000000E+00 0.  1.
</event>
<event>
 7    1  0.1736465E-010  0.4778727E+02  0.7816164E-02  0.1312668E+00
        -11   -1    0    0    0    0  0.00000000000E+00  0.00000000000E+00  0.45593999997E+02  0.45594000000E+02  0.51100000000E-03 0.  1.
         11   -1    0    0    0    0 -0.00000000000E+00 -0.00000000000E+00 -0.45593999997E+02  0.45594000000E+02  0.51100000000E-03 0. -1.
    9900012    2    1    2    0    0  0.59914576805E+01 -0.32772135269E+02  0.27815699039E+02  0.47787268114E+02  0.19999986637E+02 0.  0.
         12    1    1    2    0    0 -0.59914576805E+01  0.32772135269E+02 -0.27815699039E+02  0.43400731886E+02  0.00000000000E+00 0. -1.
         11    1    3    3    0    0  0.17457020235E+01 -0.29005132343E+01  0.94402557769E+01  0.10028902331E+02  0.51100000000E-03 0. -1.
        -11    1    3    3    0    0  0.56679151743E+01 -0.77122618951E+01  0.11185915750E+01  0.96361555267E+01  0.51100000000E-03 0.  1.
        -12    1    3    3    0    0 -0.14221595174E+01 -0.22159360140E+02  0.17256851687E+02  0.28122210255E+02  0.00000000000E+00 0.  1.
</event>
<event>
 7    1  0.1736465E-010  0.4778727E+02  0.7816164E-02  0.1312668E+00
        -11   -1    0    0    0    0  0.00000000000E+00  0.00000000000E+00  0.45593999997E+02  0.45594000000E+02  0.51100000000E-03 0.  1.
         11   -1    0    0    0    0 -0.00000000000E+00 -0.00000000000E+00 -0.45593999997E+02  0.45594000000E+02  0.51100000000E-03 0. -1.
    9900012    2    1    2    0    0 -0.25134685412E+02 -0.17338684383E+02  0.30842189137E+02  0.47787273997E+02  0.20000013460E+02 0.  0.
         12    1    1    2    0    0  0.25134685412E+02  0.17338684383E+02 -0.30842189137E+02  0.43400726003E+02  0.00000000000E+00 0. -1.
         11    1    3    3    0    0 -0.40658615652E+01 -0.65452872894E+01  0.15725483554E+02  0.17511791720E+02  0.51100000000E-03 0. -1.
        -11    1    3    3    0    0 -0.16840952495E+02 -0.11882709031E+02  0.15646926234E+02  0.25877456515E+02  0.51100000000E-03 0.  1.
        -12    1    3    3    0    0 -0.42278713513E+01  0.10893119376E+01 -0.53022065119E+00  0.43980257616E+01  0.00000000000E+00 0.  1.
</event>
<event>
 7    1  0.1736465E-010  0.4778727E+02  0.7816164E-02  0.1312668E+00
        -11   -1    0    0    0    0  0.00000000000E+00  0.00000000000E+00  0.45593999997E+02  0.45594000000E+02  0.51100000000E-03 0.  1.
         11   -1    0    0    0    0 -0.00000000000E+00 -0.00000000000E+00 -0.45593999997E+02  0.45594000000E+02  0.51100000000E-03 0. -1.
    9900012    2    1    2    0    0  0.70874236354E+01 -0.32505858820E+02  0.27870434194E+02  0.47787268052E+02  0.19999986357E+02 0.  0.
         12    1    1    2    0    0 -0.70874236354E+01  0.32505858820E+02 -0.27870434194E+02  0.43400731948E+02  0.00000000000E+00 0. -1.
         11    1    3    3    0    0 -0.57164442173E+01 -0.16142360155E+02  0.12888934309E+02  0.21433108822E+02  0.51100000000E-03 0. -1.
        -11    1    3    3    0    0  0.50309905795E+01 -0.65721217754E+01  0.23999062651E+01  0.86176099462E+01  0.51100000000E-03 0.  1.
        -12    1    3    3    0    0  0.77728772732E+01 -0.97913768896E+01  0.12581593620E+02  0.17736549284E+02  0.00000000000E+00 0.  1.
</event>
<event>
 7    1  0.1736465E-010  0.4778726E+02  0.7816164E-02  0.1312668E+00
        -11   -1    0    0    0    0  0.00000000000E+00  0.00000000000E+00  0.45593999997E+02  0.45594000000E+02  0.51100000000E-03 0.  1.
         11   -1    0    0    0    0 -0.00000000000E+00 -0.00000000000E+00 -0.45593999997E+02  0.45594000000E+02  0.51100000000E-03 0. -1.
    9900012    2    1    2    0    0  0.33649130802E+02 -0.13024839663E+02  0.24118734664E+02  0.47787264824E+02  0.19999971639E+02 0.  0.
         12    1    1    2    0    0 -0.33649130802E+02  0.13024839663E+02 -0.24118734664E+02  0.43400735176E+02  0.00000000000E+00 0. -1.
         11    1    3    3    0    0  0.63283850604E+01 -0.50598473140E+01  0.10548860756E+02  0.13301465176E+02  0.51100000000E-03 0. -1.
        -11    1    3    3    0    0  0.26375211824E+02 -0.61974720385E+01  0.15898103152E+02  0.31413534384E+02  0.51100000000E-03 0.  1.
         12    1    3    3    0    0  0.94553391758E+00 -0.17675203110E+01 -0.23282292436E+01  0.30722652636E+01  0.00000000000E+00 0. -1.
</event>
<event>
 7    1  0.1736465E-010  0.4778728E+02  0.7816164E-02  0.1312668E+00
        -11   -1    0    0    0    0  0.00000000000E+00  0.00000000000E+00  0.45593999997E+02  0.45594000000E+02  0.51100000000E-03 0. -1.
         11   -1    0    0    0    0 -0.00000000000E+00 -0.00000000000E+00 -0.45593999997E+02  0.45594000000E+02  0.51100000000E-03 0.  1.
    9900012    2    1    2    0    0  0.18221245857E+02  0.25577564652E+01 -0.39307332567E+02  0.47787282122E+02  0.20000050509E+02 0.  0.
         12    1    1    2    0    0 -0.18221245857E+02 -0.25577564652E+01  0.39307332567E+02  0.43400717878E+02  0.00000000000E+00 0. -1.
         11    1    3    3    0    0  0.41254498330E+00  0.28976168242E+01 -0.16554868061E+02  0.16811604129E+02  0.51100000000E-03 0. -1.
        -11    1    3    3    0    0  0.10966619306E+02 -0.29109025363E+01 -0.20318454110E+02  0.23271864349E+02  0.51100000000E-03 0.  1.
         12    1    3    3    0    0  0.68420815677E+01  0.25710421774E+01 -0.24340103961E+01  0.77038136442E+01  0.00000000000E+00 0. -1.
</event>
<event>
 7    1  0.1736465E-010  0.4778727E+02  0.7816164E-02  0.1312668E+00
        -11   -1    0    0    0    0  0.00000000000E+00  0.00000000000E+00  0.45593999997E+02  0.45594000000E+02  0.51100000000E-03 0.  1.
         11   -1    0    0    0    0 -0.00000000000E+00 -0.00000000000E+00 -0.45593999997E+02  0.45594000000E+02  0.51100000000E-03 0. -1.
    9900012    2    1    2    0    0  0.31747932643E+02  0.27724878053E+01  0.29461934970E+02  0.47787268118E+02  0.19999986655E+02 0.  0.
         12    1    1    2    0    0 -0.31747932643E+02 -0.27724878053E+01 -0.29461934970E+02  0.43400731882E+02  0.00000000000E+00 0. -1.
         11    1    3    3    0    0  0.10624965697E+02 -0.42908753729E+01  0.99137652857E+01  0.15152037814E+02  0.51100000000E-03 0. -1.
        -11    1    3    3    0    0  0.13131954139E+02 -0.19969571702E+01  0.14136063900E+02  0.19397534902E+02  0.51100000000E-03 0.  1.
        -12    1    3    3    0    0  0.79910128073E+01  0.90603203484E+01  0.54121057843E+01  0.13237695401E+02  0.00000000000E+00 0.  1.
</event>
<event>
 7    1  0.1736465E-010  0.4778727E+02  0.7816164E-02  0.1312668E+00
        -11   -1    0    0    0    0  0.00000000000E+00  0.00000000000E+00  0.45593999997E+02  0.45594000000E+02  0.51100000000E-03 0.  1.
         11   -1    0    0    0    0 -0.00000000000E+00 -0.00000000000E+00 -0.45593999997E+02  0.45594000000E+02  0.51100000000E-03 0. -1.
    9900012    2    1    2    0    0  0.19614940355E+02  0.30213647766E+02  0.24207700490E+02  0.47787272363E+02  0.20000006012E+02 0.  0.
         12    1    1    2    0    0 -0.19614940355E+02 -0.30213647766E+02 -0.24207700490E+02  0.43400727637E+02  0.00000000000E+00 0. -1.
         11    1    3    3    0    0  0.17706601771E+01 -0.85801029244E+00  0.47551175056E+01  0.51461210516E+01  0.51100000000E-03 0. -1.
        -11    1    3    3    0    0  0.14603266356E+02  0.19834264312E+02  0.18693937336E+02  0.30921137147E+02  0.51100000000E-03 0.  1.
         12    1    3    3    0    0  0.32410138213E+01  0.11237393746E+02  0.75864564805E+00  0.11720014165E+02  0.00000000000E+00 0. -1.
</event>
<event>
 7    1  0.1736465E-010  0.4778727E+02  0.7816164E-02  0.1312668E+00
        -11   -1    0    0    0    0  0.00000000000E+00  0.00000000000E+00  0.45593999997E+02  0.45594000000E+02  0.51100000000E-03 0.  1.
         11   -1    0    0    0    0 -0.00000000000E+00 -0.00000000000E+00 -0.45593999997E+02  0.45594000000E+02  0.51100000000E-03 0. -1.
    9900012    2    1    2    0    0 -0.16940290937E+02 -0.19008984567E+02  0.35146952164E+02  0.47787271922E+02  0.20000004001E+02 0.  0.
         12    1    1    2    0    0  0.16940290937E+02  0.19008984567E+02 -0.35146952164E+02  0.43400728078E+02  0.00000000000E+00 0. -1.
         11    1    3    3    0    0 -0.16016860256E+02 -0.15193546124E+02  0.26739253930E+02  0.34675226853E+02  0.51100000000E-03 0. -1.
        -11    1    3    3    0    0  0.11871798399E+01 -0.57897070502E+01  0.83392089054E+01  0.10221179439E+02  0.51100000000E-03 0.  1.
         12    1    3    3    0    0 -0.21106105207E+01  0.19742686069E+01  0.68489328090E-01  0.28908656299E+01  0.00000000000E+00 0. -1.
</event>
<event>
 7    1  0.1736465E-010  0.4778727E+02  0.7816164E-02  0.1312668E+00
        -11   -1    0    0    0    0  0.00000000000E+00  0.00000000000E+00  0.45593999997E+02  0.45594000000E+02  0.51100000000E-03 0.  1.
         11   -1    0    0    0    0 -0.00000000000E+00 -0.00000000000E+00 -0.45593999997E+02  0.45594000000E+02  0.51100000000E-03 0. -1.
    9900012    2    1    2    0    0 -0.41491946962E+02  0.61652154498E+01  0.11136961813E+02  0.47787268870E+02  0.19999990085E+02 0.  0.
         12    1    1    2    0    0  0.41491946962E+02 -0.61652154498E+01 -0.11136961813E+02  0.43400731130E+02  0.00000000000E+00 0. -1.
         11    1    3    3    0    0 -0.24091101082E+02 -0.25491207475E+01  0.10533867257E+01  0.24248480195E+02  0.51100000000E-03 0. -1.
        -11    1    3    3    0    0 -0.10650985214E+02  0.11553295325E+01  0.75085777167E+01  0.13082698955E+02  0.51100000000E-03 0.  1.
        -12    1    3    3    0    0 -0.67498606656E+01  0.75590066649E+01  0.25749973705E+01  0.10456089720E+02  0.00000000000E+00 0.  1.
</event>
<event>
 7    1  0.1736465E-010  0.4778727E+02  0.7816164E-02  0.1312668E+00
        -11   -1    0    0    0    0  0.00000000000E+00  0.00000000000E+00  0.45593999997E+02  0.45594000000E+02  0.51100000000E-03 0.  1.
         11   -1    0    0    0    0 -0.00000000000E+00 -0.00000000000E+00 -0.45593999997E+02  0.45594000000E+02  0.51100000000E-03 0. -1.
    9900012    2    1    2    0    0 -0.24851341777E+02 -0.19859225441E+02  0.29523639579E+02  0.47787270545E+02  0.19999997722E+02 0.  0.
         12    1    1    2    0    0  0.24851341777E+02  0.19859225441E+02 -0.29523639579E+02  0.43400729455E+02  0.00000000000E+00 0. -1.
         11    1    3    3    0    0 -0.13508806349E+02 -0.31228669154E+01  0.98522489727E+01  0.17009025746E+02  0.51100000000E-03 0.  1.
        -11    1    3    3    0    0 -0.26557255852E+01  0.30028305978E+00 -0.77473903822E+00  0.27826730203E+01  0.51100000000E-03 0. -1.
        -12    1    3    3    0    0 -0.86868098427E+01 -0.17036641585E+02  0.20446129644E+02  0.27995571778E+02  0.00000000000E+00 0.  1.
</event>
<event>
 7    1  0.1736465E-010  0.4778727E+02  0.7816164E-02  0.1312668E+00
        -11   -1    0    0    0    0  0.00000000000E+00  0.00000000000E+00  0.45593999997E+02  0.45594000000E+02  0.51100000000E-03 0. -1.
         11   -1    0    0    0    0 -0.00000000000E+00 -0.00000000000E+00 -0.45593999997E+02  0.45594000000E+02  0.51100000000E-03 0.  1.
    9900012    2    1    2    0    0 -0.22613572883E+02 -0.27781374273E+02 -0.24503977749E+02  0.47787270046E+02  0.19999995448E+02 0.  0.
         12    1    1    2    0    0  0.22613572883E+02  0.27781374273E+02  0.24503977749E+02  0.43400729954E+02  0.00000000000E+00 0. -1.
         11    1    3    3    0    0 -0.60348741179E+01 -0.18888288889E+02 -0.13997290465E+02  0.24271615179E+02  0.51100000000E-03 0. -1.
        -11    1    3    3    0    0 -0.89793451386E+01 -0.71591569436E+01 -0.14635941636E+01  0.11576885393E+02  0.51100000000E-03 0.  1.
        -12    1    3    3    0    0 -0.75993536262E+01 -0.17339284396E+01 -0.90430931204E+01  0.11938769474E+02  0.00000000000E+00 0.  1.
</event>
<event>
 7    1  0.1736465E-010  0.4778727E+02  0.7816164E-02  0.1312668E+00
        -11   -1    0    0    0    0  0.00000000000E+00  0.00000000000E+00  0.45593999997E+02  0.45594000000E+02  0.51100000000E-03 0.  1.
         11   -1    0    0    0    0 -0.00000000000E+00 -0.00000000000E+00 -0.45593999997E+02  0.45594000000E+02  0.51100000000E-03 0. -1.
    9900012    2    1    2    0    0 -0.19175580758E+02  0.17696845090E+02  0.34680573295E+02  0.47787269734E+02  0.19999994025E+02 0.  0.
         12    1    1    2    0    0  0.19175580758E+02 -0.17696845090E+02 -0.34680573295E+02  0.43400730266E+02  0.00000000000E+00 0. -1.
         11    1    3    3    0    0 -0.42180773276E+01  0.82025915244E+01  0.17476178319E+02  0.19760857596E+02  0.51100000000E-03 0.  1.
        -11    1    3    3    0    0 -0.16327092384E+02  0.59208495019E+01  0.16824958852E+02  0.24180770153E+02  0.51100000000E-03 0. -1.
         12    1    3    3    0    0  0.13695889530E+01  0.35734040640E+01  0.37943612356E+00  0.38456419850E+01  0.00000000000E+00 0. -1.
</event>
<event>
 7    1  0.1736465E-010  0.4778727E+02  0.7816164E-02  0.1312668E+00
        -11   -1    0    0    0    0  0.00000000000E+00  0.00000000000E+00  0.45593999997E+02  0.45594000000E+02  0.51100000000E-03 0.  1.
         11   -1    0    0    0    0 -0.00000000000E+00 -0.00000000000E+00 -0.45593999997E+02  0.45594000000E+02  0.51100000000E-03 0. -1.
    9900012    2    1    2    0    0  0.56828278782E+01  0.37148127299E+02  0.21710496179E+02  0.47787267992E+02  0.19999986081E+02 0.  0.
         12    1    1    2    0    0 -0.56828278782E+01 -0.37148127299E+02 -0.21710496179E+02  0.43400732008E+02  0.00000000000E+00 0. -1.
         11    1    3    3    0    0  0.56620192168E+01  0.71308757291E+01 -0.81862558021E+00  0.91421003263E+01  0.51100000000E-03 0. -1.
        -11    1    3    3    0    0 -0.28554583432E+01  0.15886083375E+02  0.74393378778E+01  0.17772592260E+02  0.51100000000E-03 0.  1.
        -12    1    3    3    0    0  0.28762670046E+01  0.14131168195E+02  0.15089783882E+02  0.20872575405E+02  0.00000000000E+00 0.  1.
</event>
<event>
 7    1  0.1736465E-010  0.4778727E+02  0.7816164E-02  0.1312668E+00
        -11   -1    0    0    0    0  0.00000000000E+00  0.00000000000E+00  0.45593999997E+02  0.45594000000E+02  0.51100000000E-03 0.  1.
         11   -1    0    0    0    0 -0.00000000000E+00 -0.00000000000E+00 -0.45593999997E+02  0.45594000000E+02  0.51100000000E-03 0. -1.
    9900012    2    1    2    0    0  0.18618476319E+01  0.17482940811E+02  0.39680012296E+02  0.47787273373E+02  0.20000010616E+02 0.  0.
         12    1    1    2    0    0 -0.18618476319E+01 -0.17482940811E+02 -0.39680012296E+02  0.43400726627E+02  0.00000000000E+00 0. -1.
         11    1    3    3    0    0  0.58270208998E+01  0.17392432309E+02  0.38769868155E+02  0.42890016918E+02  0.51100000000E-03 0.  1.
        -11    1    3    3    0    0 -0.22633798922E+01  0.10523040933E+01 -0.42234982531E+00  0.25315236671E+01  0.51100000000E-03 0. -1.
        -12    1    3    3    0    0 -0.17017933757E+01 -0.96179559207E+00  0.13324939657E+01  0.23657327878E+01  0.00000000000E+00 0.  1.
</event>
<event>
 7    1  0.1736465E-010  0.4778727E+02  0.7816164E-02  0.1312668E+00
        -11   -1    0    0    0    0  0.00000000000E+00  0.00000000000E+00  0.45593999997E+02  0.45594000000E+02  0.51100000000E-03 0.  1.
         11   -1    0    0    0    0 -0.00000000000E+00 -0.00000000000E+00 -0.45593999997E+02  0.45594000000E+02  0.51100000000E-03 0. -1.
    9900012    2    1    2    0    0 -0.25331076979E+02  0.25148683531E+02  0.24688129134E+02  0.47787268849E+02  0.19999989991E+02 0.  0.
         12    1    1    2    0    0  0.25331076979E+02 -0.25148683531E+02 -0.24688129134E+02  0.43400731151E+02  0.00000000000E+00 0. -1.
         11    1    3    3    0    0 -0.66117926576E+00  0.35294223847E+00 -0.16924983993E+01  0.18510206206E+01  0.51100000000E-03 0. -1.
        -11    1    3    3    0    0 -0.95388966565E+01  0.11452086492E+02  0.19662209442E+02  0.24672724107E+02  0.51100000000E-03 0.  1.
         12    1    3    3    0    0 -0.15131001057E+02  0.13343654800E+02  0.67184180917E+01  0.21263524122E+02  0.00000000000E+00 0. -1.
</event>
<event>
 7    1  0.1736465E-010  0.4778725E+02  0.7816164E-02  0.1312668E+00
        -11   -1    0    0    0    0  0.00000000000E+00  0.00000000000E+00  0.45593999997E+02  0.45594000000E+02  0.51100000000E-03 0.  1.
         11   -1    0    0    0    0 -0.00000000000E+00 -0.00000000000E+00 -0.45593999997E+02  0.45594000000E+02  0.51100000000E-03 0. -1.
    9900012    2    1    2    0    0  0.71168240024E+01  0.90641537911E+01  0.41842770399E+02  0.47787245370E+02  0.19999882939E+02 0.  0.
         12    1    1    2    0    0 -0.71168240024E+01 -0.90641537911E+01 -0.41842770399E+02  0.43400754630E+02  0.00000000000E+00 0. -1.
         11    1    3    3    0    0 -0.20751640155E+01  0.18477141911E+01  0.11382162377E+02  0.11716397657E+02  0.51100000000E-03 0. -1.
        -11    1    3    3    0    0  0.11510231385E+02 -0.23397748799E+00  0.17771854523E+02  0.21174961286E+02  0.51100000000E-03 0.  1.
         12    1    3    3    0    0 -0.23182433671E+01  0.74504170880E+01  0.12688753498E+02  0.14895886427E+02  0.00000000000E+00 0. -1.
</event>
<event>
 7    1  0.1736465E-010  0.4778727E+02  0.7816164E-02  0.1312668E+00
        -11   -1    0    0    0    0  0.00000000000E+00  0.00000000000E+00  0.45593999997E+02  0.45594000000E+02  0.51100000000E-03 0.  1.
         11   -1    0    0    0    0 -0.00000000000E+00 -0.00000000000E+00 -0.45593999997E+02  0.45594000000E+02  0.51100000000E-03 0. -1.
    9900012    2    1    2    0    0  0.19094045481E+02  0.31585034464E+02  0.22834759769E+02  0.47787271566E+02  0.20000002378E+02 0.  0.
         12    1    1    2    0    0 -0.19094045481E+02 -0.31585034464E+02 -0.22834759769E+02  0.43400728434E+02  0.00000000000E+00 0. -1.
         11    1    3    3    0    0  0.24983645307E+01 -0.87643745307E+00  0.24898561574E+01  0.36344672076E+01  0.51100000000E-03 0. -1.
        -11    1    3    3    0    0  0.95945310036E+01  0.18283642161E+02  0.33126156155E+01  0.20912197836E+02  0.51100000000E-03 0.  1.
        -12    1    3    3    0    0  0.70011499467E+01  0.14177829756E+02  0.17032287996E+02  0.23240606523E+02  0.00000000000E+00 0.  1.
</event>
<event>
 7    1  0.1736465E-010  0.4778728E+02  0.7816164E-02  0.1312668E+00
        -11   -1    0    0    0    0  0.00000000000E+00  0.00000000000E+00  0.45593999997E+02  0.45594000000E+02  0.51100000000E-03 0.  1.
         11   -1    0    0    0    0 -0.00000000000E+00 -0.00000000000E+00 -0.45593999997E+02  0.45594000000E+02  0.51100000000E-03 0. -1.
    9900012    2    1    2    0    0  0.28735457463E+02  0.25400553653E+02  0.20315216463E+02  0.47787278100E+02  0.20000032168E+02 0.  0.
         12    1    1    2    0    0 -0.28735457463E+02 -0.25400553653E+02 -0.20315216463E+02  0.43400721900E+02  0.00000000000E+00 0. -1.
         11    1    3    3    0    0  0.78264189714E+01  0.14356775832E+02  0.17121594621E+02  0.23675279277E+02  0.51100000000E-03 0. -1.
        -11    1    3    3    0    0  0.37876448751E+01  0.21730110619E+01 -0.74796403479E+00  0.44303138979E+01  0.51100000000E-03 0.  1.
         12    1    3    3    0    0  0.17121393616E+02  0.88707667592E+01  0.39415858775E+01  0.19681684925E+02  0.00000000000E+00 0. -1.
</event>
<event>
 7    1  0.2151073E-010  0.4778728E+02  0.7816164E-02  0.1312668E+00
        -11   -1    0    0    0    0  0.00000000000E+00  0.00000000000E+00  0.45593999997E+02  0.45594000000E+02  0.51100000000E-03 0.  1.
         11   -1    0    0    0    0 -0.00000000000E+00 -0.00000000000E+00 -0.45593999997E+02  0.45594000000E+02  0.51100000000E-03 0. -1.
    9900012    2    1    2    0    0 -0.23487487338E+02 -0.34426902797E+02  0.12113989065E+02  0.47787280781E+02  0.20000044393E+02 0.  0.
         12    1    1    2    0    0  0.23487487338E+02  0.34426902797E+02 -0.12113989065E+02  0.43400719219E+02  0.00000000000E+00 0. -1.
         11    1    3    3    0    0 -0.37976580559E+01 -0.34600810494E+01  0.76302939735E+01  0.91986821861E+01  0.51100000000E-03 0. -1.
        -11    1    3    3    0    0 -0.36063872420E+01 -0.15809073288E+02  0.23641332125E+01  0.16386639475E+02  0.51100000000E-03 0.  1.
        -12    1    3    3    0    0 -0.16083442040E+02 -0.15157748460E+02  0.21195618788E+01  0.22201959121E+02  0.00000000000E+00 0.  1.
</event>
<event>
 7    1  0.1736465E-010  0.4778727E+02  0.7816164E-02  0.1312668E+00
        -11   -1    0    0    0    0  0.00000000000E+00  0.00000000000E+00  0.45593999997E+02  0.45594000000E+02  0.51100000000E-03 0.  1.
         11   -1    0    0    0    0 -0.00000000000E+00 -0.00000000000E+00 -0.45593999997E+02  0.45594000000E+02  0.51100000000E-03 0. -1.
    9900012    2    1    2    0    0 -0.34364352712E+02  0.25139879549E+02  0.84084127047E+01  0.47787266305E+02  0.19999978391E+02 0.  0.
         12    1    1    2    0    0  0.34364352712E+02 -0.25139879549E+02 -0.84084127047E+01  0.43400733695E+02  0.00000000000E+00 0. -1.
         11    1    3    3    0    0 -0.11008680075E+02  0.89235026126E+01  0.19090741963E+01  0.14299108378E+02  0.51100000000E-03 0. -1.
        -11    1    3    3    0    0 -0.20754804400E+01  0.40011073109E+01  0.76996213156E+01  0.89219194927E+01  0.51100000000E-03 0.  1.
        -12    1    3    3    0    0 -0.21280192197E+02  0.12215269625E+02 -0.12002828072E+01  0.24566238434E+02  0.00000000000E+00 0.  1.
</event>
<event>
 7    1  0.1736465E-010  0.4778727E+02  0.7816164E-02  0.1312668E+00
        -11   -1    0    0    0    0  0.00000000000E+00  0.00000000000E+00  0.45593999997E+02  0.45594000000E+02  0.51100000000E-03 0.  1.
         11   -1    0    0    0    0 -0.00000000000E+00 -0.00000000000E+00 -0.45593999997E+02  0.45594000000E+02  0.51100000000E-03 0. -1.
    9900012    2    1    2    0    0  0.41926073211E+01 -0.17270306666E+02  0.39595227358E+02  0.47787268692E+02  0.19999989276E+02 0.  0.
         12    1    1    2    0    0 -0.41926073211E+01  0.17270306666E+02 -0.39595227358E+02  0.43400731308E+02  0.00000000000E+00 0. -1.
         11    1    3    3    0    0  0.16638664579E+01  0.56868953579E+00 -0.38583539638E+00  0.18002023753E+01  0.51100000000E-03 0. -1.
        -11    1    3    3    0    0  0.76235408256E+00 -0.19525904689E+02  0.30711235747E+02  0.36400853548E+02  0.51100000000E-03 0.  1.
         12    1    3    3    0    0  0.17663867806E+01  0.16869084865E+01  0.92698270076E+01  0.95862127689E+01  0.00000000000E+00 0. -1.
</event>
<event>
 7    1  0.1736465E-010  0.4778727E+02  0.7816164E-02  0.1312668E+00
        -11   -1    0    0    0    0  0.00000000000E+00  0.00000000000E+00  0.45593999997E+02  0.45594000000E+02  0.51100000000E-03 0.  1.
         11   -1    0    0    0    0 -0.00000000000E+00 -0.00000000000E+00 -0.45593999997E+02  0.45594000000E+02  0.51100000000E-03 0. -1.
    9900012    2    1    2    0    0 -0.11090601982E+02  0.24218930364E+02  0.34264634444E+02  0.47787271735E+02  0.20000003150E+02 0.  0.
         12    1    1    2    0    0  0.11090601982E+02 -0.24218930364E+02 -0.34264634444E+02  0.43400728265E+02  0.00000000000E+00 0. -1.
         11    1    3    3    0    0  0.29347528387E+01  0.31213585788E+01  0.29238681457E+01  0.51869700978E+01  0.51100000000E-03 0. -1.
        -11    1    3    3    0    0 -0.84339619662E+01  0.47924337542E+01  0.19216717873E+02  0.21526295125E+02  0.51100000000E-03 0.  1.
        -12    1    3    3    0    0 -0.55913928547E+01  0.16305138031E+02  0.12124048426E+02  0.21074006513E+02  0.00000000000E+00 0.  1.
</event>
<event>
 7    1  0.1736465E-010  0.4778727E+02  0.7816164E-02  0.1312668E+00
        -11   -1    0    0    0    0  0.00000000000E+00  0.00000000000E+00  0.45593999997E+02  0.45594000000E+02  0.51100000000E-03 0. -1.
         11   -1    0    0    0    0 -0.00000000000E+00 -0.00000000000E+00 -0.45593999997E+02  0.45594000000E+02  0.51100000000E-03 0.  1.
    9900012    2    1    2    0    0  0.36197263510E+02 -0.20892101772E+02 -0.11700492960E+02  0.47787270311E+02  0.19999996655E+02 0.  0.
         12    1    1    2    0    0 -0.36197263510E+02  0.20892101772E+02  0.11700492960E+02  0.43400729689E+02  0.00000000000E+00 0. -1.
         11    1    3    3    0    0  0.24699939521E+02 -0.83864703623E+01 -0.80658940102E+01  0.27303452967E+02  0.51100000000E-03 0. -1.
        -11    1    3    3    0    0  0.12579868623E+02 -0.13493015771E+02 -0.41889704230E+01  0.18917241940E+02  0.51100000000E-03 0.  1.
         12    1    3    3    0    0 -0.10825446340E+01  0.98738436193E+00  0.55437147353E+00  0.15665754030E+01  0.00000000000E+00 0. -1.
</event>
<event>
 7    1  0.1736465E-010  0.4778727E+02  0.7816164E-02  0.1312668E+00
        -11   -1    0    0    0    0  0.00000000000E+00  0.00000000000E+00  0.45593999997E+02  0.45594000000E+02  0.51100000000E-03 0. -1.
         11   -1    0    0    0    0 -0.00000000000E+00 -0.00000000000E+00 -0.45593999997E+02  0.45594000000E+02  0.51100000000E-03 0.  1.
    9900012    2    1    2    0    0 -0.51322458987E+01  0.27053586031E+02 -0.33546787920E+02  0.47787269075E+02  0.19999991021E+02 0.  0.
         12    1    1    2    0    0  0.51322458987E+01 -0.27053586031E+02  0.33546787920E+02  0.43400730925E+02  0.00000000000E+00 0. -1.
         11    1    3    3    0    0 -0.10559983330E+02  0.11110799520E+02 -0.13685367765E+02  0.20548781108E+02  0.51100000000E-03 0. -1.
        -11    1    3    3    0    0  0.39680813061E+01  0.18319995141E+01 -0.58202502190E+01  0.72785441089E+01  0.51100000000E-03 0.  1.
        -12    1    3    3    0    0  0.14596561247E+01  0.14110786997E+02 -0.14041169936E+02  0.19959943859E+02  0.00000000000E+00 0.  1.
</event>
<event>
 7    1  0.1736465E-010  0.4778727E+02  0.7816164E-02  0.1312668E+00
        -11   -1    0    0    0    0  0.00000000000E+00  0.00000000000E+00  0.45593999997E+02  0.45594000000E+02  0.51100000000E-03 0. -1.
         11   -1    0    0    0    0 -0.00000000000E+00 -0.00000000000E+00 -0.45593999997E+02  0.45594000000E+02  0.51100000000E-03 0.  1.
    9900012    2    1    2    0    0  0.50063854703E+01 -0.42753157808E+02 -0.55431845976E+01  0.47787270819E+02  0.19999998970E+02 0.  0.
         12    1    1    2    0    0 -0.50063854703E+01  0.42753157808E+02  0.55431845976E+01  0.43400729181E+02  0.00000000000E+00 0. -1.
         11    1    3    3    0    0  0.37743202714E+01 -0.25317881160E+02  0.85649125420E+00  0.25611992845E+02  0.51100000000E-03 0. -1.
        -11    1    3    3    0    0  0.29559424344E+01 -0.17186990086E+02 -0.85381735600E+01  0.19417276635E+02  0.51100000000E-03 0.  1.
        -12    1    3    3    0    0 -0.17238772354E+01 -0.24828656106E+00  0.21384977082E+01  0.27580013393E+01  0.00000000000E+00 0.  1.
</event>
<event>
 7    1  0.1736465E-010  0.4778728E+02  0.7816164E-02  0.1312668E+00
        -11   -1    0    0    0    0  0.00000000000E+00  0.00000000000E+00  0.45593999997E+02  0.45594000000E+02  0.51100000000E-03 0.  1.
         11   -1    0    0    0    0 -0.00000000000E+00 -0.00000000000E+00 -0.45593999997E+02  0.45594000000E+02  0.51100000000E-03 0. -1.
    9900012    2    1    2    0    0 -0.36212772613E+02 -0.76742457612E+01  0.22657530911E+02  0.47787278171E+02  0.20000032491E+02 0.  0.
         12    1    1    2    0    0  0.36212772613E+02  0.76742457612E+01 -0.22657530911E+02  0.43400721829E+02  0.00000000000E+00 0. -1.
         11    1    3    3    0    0 -0.32007287339E+01  0.55143508233E+01  0.31746150605E+01  0.71225634763E+01  0.51100000000E-03 0. -1.
        -11    1    3    3    0    0 -0.13522265100E+02 -0.48375846572E+01  0.61889292879E+01  0.15638309523E+02  0.51100000000E-03 0.  1.
         12    1    3    3    0    0 -0.19489778779E+02 -0.83510119273E+01  0.13293986562E+02  0.25026405171E+02  0.00000000000E+00 0. -1.
</event>
<event>
 7    1  0.2052854E-010  0.4778728E+02  0.7816164E-02  0.1312668E+00
        -11   -1    0    0    0    0  0.00000000000E+00  0.00000000000E+00  0.45593999997E+02  0.45594000000E+02  0.51100000000E-03 0.  1.
         11   -1    0    0    0    0 -0.00000000000E+00 -0.00000000000E+00 -0.45593999997E+02  0.45594000000E+02  0.51100000000E-03 0. -1.
    9900012    2    1    2    0    0  0.22171219038E+02 -0.36975881369E+02  0.49843493654E+01  0.47787280015E+02  0.20000040902E+02 0.  0.
         12    1    1    2    0    0 -0.22171219038E+02  0.36975881369E+02 -0.49843493654E+01  0.43400719985E+02  0.00000000000E+00 0. -1.
         11    1    3    3    0    0  0.13398311021E+01  0.82131425780E+00 -0.61559342645E-01  0.15727346585E+01  0.51100000000E-03 0. -1.
        -11    1    3    3    0    0  0.23039641370E+02 -0.31479393116E+02  0.59501040003E+01  0.39461132818E+02  0.51100000000E-03 0.  1.
        -12    1    3    3    0    0 -0.22082534347E+01 -0.63178025105E+01 -0.90419529228E+00  0.67534125389E+01  0.00000000000E+00 0.  1.
</event>
<event>
 7    1  0.1736465E-010  0.4778728E+02  0.7816164E-02  0.1312668E+00
        -11   -1    0    0    0    0  0.00000000000E+00  0.00000000000E+00  0.45593999997E+02  0.45594000000E+02  0.51100000000E-03 0.  1.
         11   -1    0    0    0    0 -0.00000000000E+00 -0.00000000000E+00 -0.45593999997E+02  0.45594000000E+02  0.51100000000E-03 0. -1.
    9900012    2    1    2    0    0  0.21032698980E+02 -0.21819488300E+02  0.31066998484E+02  0.47787275457E+02  0.20000020120E+02 0.  0.
         12    1    1    2    0    0 -0.21032698980E+02  0.21819488300E+02 -0.31066998484E+02  0.43400724543E+02  0.00000000000E+00 0. -1.
         11    1    3    3    0    0  0.16822425867E+02 -0.10613011050E+02  0.24161050099E+02  0.31295149109E+02  0.51100000000E-03 0. -1.
        -11    1    3    3    0    0  0.30948659448E+01 -0.11263655340E+02  0.85702304359E+01  0.14487821673E+02  0.51100000000E-03 0.  1.
         12    1    3    3    0    0  0.11154071684E+01  0.57178089738E-01 -0.16642820516E+01  0.20043046756E+01  0.00000000000E+00 0. -1.
</event>
<event>
 7    1  0.1736465E-010  0.4778727E+02  0.7816164E-02  0.1312668E+00
        -11   -1    0    0    0    0  0.00000000000E+00  0.00000000000E+00  0.45593999997E+02  0.45594000000E+02  0.51100000000E-03 0.  1.
         11   -1    0    0    0    0 -0.00000000000E+00 -0.00000000000E+00 -0.45593999997E+02  0.45594000000E+02  0.51100000000E-03 0. -1.
    9900012    2    1    2    0    0 -0.19367592105E+01  0.35781596290E+02  0.24485710176E+02  0.47787266457E+02  0.19999979084E+02 0.  0.
         12    1    1    2    0    0  0.19367592105E+01 -0.35781596290E+02 -0.24485710176E+02  0.43400733543E+02  0.00000000000E+00 0. -1.
         11    1    3    3    0    0  0.53735922536E+01  0.24648395376E+02  0.22372164886E+02  0.33718431907E+02  0.51100000000E-03 0.  1.
        -11    1    3    3    0    0 -0.21289850817E+01  0.11862813526E+01 -0.64089606566E+00  0.25200374905E+01  0.51100000000E-03 0. -1.
        -12    1    3    3    0    0 -0.51813663824E+01  0.99469195608E+01  0.27544413550E+01  0.11548797059E+02  0.00000000000E+00 0.  1.
</event>
<event>
 7    1  0.1736465E-010  0.4778728E+02  0.7816164E-02  0.1312668E+00
        -11   -1    0    0    0    0  0.00000000000E+00  0.00000000000E+00  0.45593999997E+02  0.45594000000E+02  0.51100000000E-03 0.  1.
         11   -1    0    0    0    0 -0.00000000000E+00 -0.00000000000E+00 -0.45593999997E+02  0.45594000000E+02  0.51100000000E-03 0. -1.
    9900012    2    1    2    0    0  0.12127592917E+01 -0.93425136653E+01  0.42365897762E+02  0.47787278348E+02  0.20000033301E+02 0.  0.
         12    1    1    2    0    0 -0.12127592917E+01  0.93425136653E+01 -0.42365897762E+02  0.43400721652E+02  0.00000000000E+00 0. -1.
         11    1    3    3    0    0 -0.98068894610E+00 -0.43483387560E+01  0.51818842759E+01  0.68353292281E+01  0.51100000000E-03 0. -1.
        -11    1    3    3    0    0  0.13503517811E+01  0.44373423638E+01  0.25472167898E+02  0.25891017649E+02  0.51100000000E-03 0.  1.
        -12    1    3    3    0    0  0.84309645671E+00 -0.94315172731E+01  0.11711845588E+02  0.15060931472E+02  0.00000000000E+00 0.  1.
</event>
<event>
 7    1  0.2252348E-010  0.4778728E+02  0.7816164E-02  0.1312668E+00
        -11   -1    0    0    0    0  0.00000000000E+00  0.00000000000E+00  0.45593999997E+02  0.45594000000E+02  0.51100000000E-03 0. -1.
         11   -1    0    0    0    0 -0.00000000000E+00 -0.00000000000E+00 -0.45593999997E+02  0.45594000000E+02  0.51100000000E-03 0.  1.
    9900012    2    1    2    0    0 -0.34183359375E+02  0.23476629484E+02  0.12805011947E+02  0.47787279717E+02  0.20000039542E+02 0.  0.
         12    1    1    2    0    0  0.34183359375E+02 -0.23476629484E+02 -0.12805011947E+02  0.43400720283E+02  0.00000000000E+00 0. -1.
         11    1    3    3    0    0  0.32823787616E+00 -0.35446331001E+00  0.38499959994E+01  0.38801873405E+01  0.51100000000E-03 0. -1.
        -11    1    3    3    0    0 -0.14260755952E+02  0.88929434193E+01 -0.10212443540E+01  0.16837355590E+02  0.51100000000E-03 0.  1.
        -12    1    3    3    0    0 -0.20250841300E+02  0.14938149375E+02  0.99762603012E+01  0.27069736786E+02  0.00000000000E+00 0.  1.
</event>
<event>
 7    1  0.1736465E-010  0.4778727E+02  0.7816164E-02  0.1312668E+00
        -11   -1    0    0    0    0  0.00000000000E+00  0.00000000000E+00  0.45593999997E+02  0.45594000000E+02  0.51100000000E-03 0.  1.
         11   -1    0    0    0    0 -0.00000000000E+00 -0.00000000000E+00 -0.45593999997E+02  0.45594000000E+02  0.51100000000E-03 0. -1.
    9900012    2    1    2    0    0  0.36884155467E+02  0.10457302798E+02  0.20342734833E+02  0.47787274582E+02  0.20000016129E+02 0.  0.
         12    1    1    2    0    0 -0.36884155467E+02 -0.10457302798E+02 -0.20342734833E+02  0.43400725418E+02  0.00000000000E+00 0. -1.
         11    1    3    3    0    0  0.90635805955E+00  0.35963183037E+00 -0.18791551227E+01  0.21170838958E+01  0.51100000000E-03 0. -1.
        -11    1    3    3    0    0  0.32543544449E+02  0.12851158359E+02  0.21853519053E+02  0.41253010215E+02  0.51100000000E-03 0.  1.
         12    1    3    3    0    0  0.34342529582E+01 -0.27534873916E+01  0.36837090292E+00  0.44171804715E+01  0.00000000000E+00 0. -1.
</event>
<event>
 7    1  0.1859521E-010  0.4778727E+02  0.7816164E-02  0.1312668E+00
        -11   -1    0    0    0    0  0.00000000000E+00  0.00000000000E+00  0.45593999997E+02  0.45594000000E+02  0.51100000000E-03 0.  1.
         11   -1    0    0    0    0 -0.00000000000E+00 -0.00000000000E+00 -0.45593999997E+02  0.45594000000E+02  0.51100000000E-03 0. -1.
    9900012    2    1    2    0    0  0.30329205403E+02 -0.24119427525E+02  0.19545221662E+02  0.47787272191E+02  0.20000005228E+02 0.  0.
         12    1    1    2    0    0 -0.30329205403E+02  0.24119427525E+02 -0.19545221662E+02  0.43400727809E+02  0.00000000000E+00 0. -1.
         11    1    3    3    0    0  0.62189753011E+01 -0.88829570171E-02  0.34739288517E+01  0.71234763024E+01  0.51100000000E-03 0. -1.
        -11    1    3    3    0    0  0.22960063617E+02 -0.24610533709E+02  0.18147356546E+02  0.38238324239E+02  0.51100000000E-03 0.  1.
        -12    1    3    3    0    0  0.11501664855E+01  0.49998914149E+00 -0.20760637362E+01  0.24254716496E+01  0.00000000000E+00 0.  1.
</event>
<event>
 7    1  0.1736465E-010  0.4778726E+02  0.7816164E-02  0.1312668E+00
        -11   -1    0    0    0    0  0.00000000000E+00  0.00000000000E+00  0.45593999997E+02  0.45594000000E+02  0.51100000000E-03 0.  1.
         11   -1    0    0    0    0 -0.00000000000E+00 -0.00000000000E+00 -0.45593999997E+02  0.45594000000E+02  0.51100000000E-03 0. -1.
    9900012    2    1    2    0    0  0.99174372765E+01 -0.50823657909E+00  0.42249387671E+02  0.47787255477E+02  0.19999929024E+02 0.  0.
         12    1    1    2    0    0 -0.99174372765E+01  0.50823657909E+00 -0.42249387671E+02  0.43400744523E+02  0.00000000000E+00 0. -1.
         11    1    3    3    0    0 -0.20784503285E+01 -0.32572324777E+01  0.13659936817E+01  0.40982262238E+01  0.51100000000E-03 0. -1.
        -11    1    3    3    0    0 -0.15472879517E+01  0.73065282805E+00  0.45485975280E+01  0.48598038328E+01  0.51100000000E-03 0.  1.
        -12    1    3    3    0    0  0.13543175557E+02  0.20183430706E+01  0.36334796461E+02  0.38829225421E+02  0.00000000000E+00 0.  1.
</event>
<event>
 7    1  0.1736465E-010  0.4778727E+02  0.7816164E-02  0.1312668E+00
        -11   -1    0    0    0    0  0.00000000000E+00  0.00000000000E+00  0.45593999997E+02  0.45594000000E+02  0.51100000000E-03 0.  1.
         11   -1    0    0    0    0 -0.00000000000E+00 -0.00000000000E+00 -0.45593999997E+02  0.45594000000E+02  0.51100000000E-03 0. -1.
    9900012    2    1    2    0    0 -0.12483933028E+02  0.41290685321E+02  0.47805824322E+01  0.47787271359E+02  0.20000001435E+02 0.  0.
         12    1    1    2    0    0  0.12483933028E+02 -0.41290685321E+02 -0.47805824322E+01  0.43400728641E+02  0.00000000000E+00 0. -1.
         11    1    3    3    0    0 -0.11613561877E+01 -0.98325535169E+00 -0.17594542330E+01  0.23262026439E+01  0.51100000000E-03 0. -1.
        -11    1    3    3    0    0 -0.11627184294E+02  0.24288677785E+02  0.51793680448E+01  0.27421836860E+02  0.51100000000E-03 0.  1.
        -12    1    3    3    0    0  0.30460745342E+00  0.17985262888E+02  0.13606686204E+01  0.18039231856E+02  0.00000000000E+00 0.  1.
</event>
<event>
 7    1  0.1736465E-010  0.4778727E+02  0.7816164E-02  0.1312668E+00
        -11   -1    0    0    0    0  0.00000000000E+00  0.00000000000E+00  0.45593999997E+02  0.45594000000E+02  0.51100000000E-03 0.  1.
         11   -1    0    0    0    0 -0.00000000000E+00 -0.00000000000E+00 -0.45593999997E+02  0.45594000000E+02  0.51100000000E-03 0. -1.
    9900012    2    1    2    0    0 -0.18876298297E+02 -0.26081482670E+02  0.29104373516E+02  0.47787274967E+02  0.20000017883E+02 0.  0.
         12    1    1    2    0    0  0.18876298297E+02  0.26081482670E+02 -0.29104373516E+02  0.43400725033E+02  0.00000000000E+00 0. -1.
         11    1    3    3    0    0 -0.34123999056E+01  0.12558898834E+01  0.28779512307E+01  0.46372767938E+01  0.51100000000E-03 0. -1.
        -11    1    3    3    0    0 -0.11622201132E+02 -0.18678616960E+02  0.25457719670E+02  0.33646125806E+02  0.51100000000E-03 0.  1.
         12    1    3    3    0    0 -0.38416972589E+01 -0.86587555935E+01  0.76870261538E+00  0.95038723670E+01  0.00000000000E+00 0. -1.
</event>
<event>
 7    1  0.1736465E-010  0.4778727E+02  0.7816164E-02  0.1312668E+00
        -11   -1    0    0    0    0  0.00000000000E+00  0.00000000000E+00  0.45593999997E+02  0.45594000000E+02  0.51100000000E-03 0.  1.
         11   -1    0    0    0    0 -0.00000000000E+00 -0.00000000000E+00 -0.45593999997E+02  0.45594000000E+02  0.51100000000E-03 0. -1.
    9900012    2    1    2    0    0 -0.25978963353E+02 -0.42278701873E+01  0.34508574008E+02  0.47787273009E+02  0.20000008958E+02 0.  0.
         12    1    1    2    0    0  0.25978963353E+02  0.42278701873E+01 -0.34508574008E+02  0.43400726991E+02  0.00000000000E+00 0. -1.
         11    1    3    3    0    0 -0.74880104283E+01  0.53876445870E+01  0.18998826106E+02  0.21119952842E+02  0.51100000000E-03 0. -1.
        -11    1    3    3    0    0 -0.68191261224E+01 -0.13785261007E+01  0.26452601008E+01  0.74429978198E+01  0.51100000000E-03 0.  1.
         12    1    3    3    0    0 -0.11671826803E+02 -0.82369886736E+01  0.12864487801E+02  0.19224322347E+02  0.00000000000E+00 0. -1.
</event>
<event>
 7    1  0.1736465E-010  0.4778727E+02  0.7816164E-02  0.1312668E+00
        -11   -1    0    0    0    0  0.00000000000E+00  0.00000000000E+00  0.45593999997E+02  0.45594000000E+02  0.51100000000E-03 0. -1.
         11   -1    0    0    0    0 -0.00000000000E+00 -0.00000000000E+00 -0.45593999997E+02  0.45594000000E+02  0.51100000000E-03 0.  1.
    9900012    2    1    2    0    0 -0.30636799520E+02 -0.30401872483E+02  0.45536480052E+01  0.47787273676E+02  0.20000012000E+02 0.  0.
         12    1    1    2    0    0  0.30636799520E+02  0.30401872483E+02 -0.45536480052E+01  0.43400726324E+02  0.00000000000E+00 0. -1.
         11    1    3    3    0    0 -0.88146781592E+00 -0.62371710523E+00 -0.21462978988E+01  0.24026242880E+01  0.51100000000E-03 0. -1.
        -11    1    3    3    0    0 -0.15916592324E+02 -0.12266144563E+02  0.10611625258E+02  0.22724497894E+02  0.51100000000E-03 0.  1.
        -12    1    3    3    0    0 -0.13838739379E+02 -0.17512010815E+02 -0.39116793535E+01  0.22660151494E+02  0.00000000000E+00 0.  1.
</event>
<event>
 7    1  0.1736465E-010  0.4778727E+02  0.7816164E-02  0.1312668E+00
        -11   -1    0    0    0    0  0.00000000000E+00  0.00000000000E+00  0.45593999997E+02  0.45594000000E+02  0.51100000000E-03 0.  1.
         11   -1    0    0    0    0 -0.00000000000E+00 -0.00000000000E+00 -0.45593999997E+02  0.45594000000E+02  0.51100000000E-03 0. -1.
    9900012    2    1    2    0    0  0.15212635363E+02  0.19511973327E+02  0.35657844436E+02  0.47787271347E+02  0.20000001379E+02 0.  0.
         12    1    1    2    0    0 -0.15212635363E+02 -0.19511973327E+02 -0.35657844436E+02  0.43400728653E+02  0.00000000000E+00 0. -1.
         11    1    3    3    0    0  0.54148632943E+01 -0.20558033555E+01  0.15247565746E+02  0.16310589608E+02  0.51100000000E-03 0. -1.
        -11    1    3    3    0    0  0.29245411419E+01  0.10327824548E+02  0.10215536085E+02  0.14818032209E+02  0.51100000000E-03 0.  1.
         12    1    3    3    0    0  0.68732309271E+01  0.11239952135E+02  0.10194742605E+02  0.16658649530E+02  0.00000000000E+00 0. -1.
</event>
<event>
 7    1  0.1736465E-010  0.4778726E+02  0.7816164E-02  0.1312668E+00
        -11   -1    0    0    0    0  0.00000000000E+00  0.00000000000E+00  0.45593999997E+02  0.45594000000E+02  0.51100000000E-03 0. -1.
         11   -1    0    0    0    0 -0.00000000000E+00 -0.00000000000E+00 -0.45593999997E+02  0.45594000000E+02  0.51100000000E-03 0.  1.
    9900012    2    1    2    0    0 -0.34818787741E+02  0.17091749611E+02 -0.19471722030E+02  0.47787264484E+02  0.19999970089E+02 0.  0.
         12    1    1    2    0    0  0.34818787741E+02 -0.17091749611E+02  0.19471722030E+02  0.43400735516E+02  0.00000000000E+00 0. -1.
         11    1    3    3    0    0  0.13441870547E+01  0.19635788459E+01  0.69306135366E+00  0.24784702990E+01  0.51100000000E-03 0. -1.
        -11    1    3    3    0    0 -0.21071065620E+02  0.60233540220E+01 -0.60689902077E+01  0.22739904187E+02  0.51100000000E-03 0.  1.
        -12    1    3    3    0    0 -0.15091909176E+02  0.91048167429E+01 -0.14095793176E+02  0.22568889998E+02  0.00000000000E+00 0.  1.
</event>
<event>
 7    1  0.1736465E-010  0.4778730E+02  0.7816164E-02  0.1312668E+00
        -11   -1    0    0    0    0  0.00000000000E+00  0.00000000000E+00  0.45593999997E+02  0.45594000000E+02  0.51100000000E-03 0. -1.
         11   -1    0    0    0    0 -0.00000000000E+00 -0.00000000000E+00 -0.45593999997E+02  0.45594000000E+02  0.51100000000E-03 0.  1.
    9900012    2    1    2    0    0  0.23189312641E+02  0.27311592704E+02 -0.24493941732E+02  0.47787303020E+02  0.20000145790E+02 0.  0.
         12    1    1    2    0    0 -0.23189312641E+02 -0.27311592704E+02  0.24493941732E+02  0.43400696980E+02  0.00000000000E+00 0. -1.
         11    1    3    3    0    0  0.58187807000E+01 -0.14675937136E+01 -0.76763146172E+00  0.60499006988E+01  0.51100000000E-03 0. -1.
        -11    1    3    3    0    0  0.14612469396E+01  0.79423043997E+01 -0.65209286613E+01  0.10379689430E+02  0.51100000000E-03 0.  1.
         12    1    3    3    0    0  0.15909285001E+02  0.20836882018E+02 -0.17205381609E+02  0.31357712891E+02  0.00000000000E+00 0. -1.
</event>
<event>
 7    1  0.1736465E-010  0.4778727E+02  0.7816164E-02  0.1312668E+00
        -11   -1    0    0    0    0  0.00000000000E+00  0.00000000000E+00  0.45593999997E+02  0.45594000000E+02  0.51100000000E-03 0. -1.
         11   -1    0    0    0    0 -0.00000000000E+00 -0.00000000000E+00 -0.45593999997E+02  0.45594000000E+02  0.51100000000E-03 0.  1.
    9900012    2    1    2    0    0 -0.81182900246E+01  0.36811614044E+02 -0.21508645898E+02  0.47787269478E+02  0.19999992859E+02 0.  0.
         12    1    1    2    0    0  0.81182900246E+01 -0.36811614044E+02  0.21508645898E+02  0.43400730522E+02  0.00000000000E+00 0. -1.
         11    1    3    3    0    0 -0.11667796700E+00  0.32136722560E+02 -0.19867816098E+02  0.37782438611E+02  0.51100000000E-03 0.  1.
        -11    1    3    3    0    0 -0.18868276905E+01  0.13696055823E+01  0.10424667054E+01  0.25539528731E+01  0.51100000000E-03 0. -1.
        -12    1    3    3    0    0 -0.61147843671E+01  0.33052859023E+01 -0.26832965052E+01  0.74508779943E+01  0.00000000000E+00 0.  1.
</event>
<event>
 7    1  0.1736465E-010  0.4778728E+02  0.7816164E-02  0.1312668E+00
        -11   -1    0    0    0    0  0.00000000000E+00  0.00000000000E+00  0.45593999997E+02  0.45594000000E+02  0.51100000000E-03 0. -1.
         11   -1    0    0    0    0 -0.00000000000E+00 -0.00000000000E+00 -0.45593999997E+02  0.45594000000E+02  0.51100000000E-03 0.  1.
    9900012    2    1    2    0    0  0.24511042370E+02  0.33884549652E+01 -0.35655996619E+02  0.47787275121E+02  0.20000018588E+02 0.  0.
         12    1    1    2    0    0 -0.24511042370E+02 -0.33884549652E+01  0.35655996619E+02  0.43400724879E+02  0.00000000000E+00 0. -1.
         11    1    3    3    0    0  0.74601840799E+01 -0.23656263299E+01 -0.62978909346E+01  0.10045594304E+02  0.51100000000E-03 0. -1.
        -11    1    3    3    0    0  0.11152901043E+02  0.90266645630E+01 -0.27037260333E+02  0.30608517138E+02  0.51100000000E-03 0.  1.
        -12    1    3    3    0    0  0.58979572468E+01 -0.32725832678E+01 -0.23208453519E+01  0.71331636794E+01  0.00000000000E+00 0.  1.
</event>
<event>
 7    1  0.1736465E-010  0.4778727E+02  0.7816164E-02  0.1312668E+00
        -11   -1    0    0    0    0  0.00000000000E+00  0.00000000000E+00  0.45593999997E+02  0.45594000000E+02  0.51100000000E-03 0.  1.
         11   -1    0    0    0    0 -0.00000000000E+00 -0.00000000000E+00 -0.45593999997E+02  0.45594000000E+02  0.51100000000E-03 0. -1.
    9900012    2    1    2    0    0  0.21605254157E+02  0.35213348884E+02 -0.13298730100E+02  0.47787272252E+02  0.20000005504E+02 0.  0.
         12    1    1    2    0    0 -0.21605254157E+02 -0.35213348884E+02  0.13298730100E+02  0.43400727748E+02  0.00000000000E+00 0. -1.
         11    1    3    3    0    0  0.19083891087E+02  0.13889688328E+02 -0.81066039980E+01  0.24956669840E+02  0.51100000000E-03 0. -1.
        -11    1    3    3    0    0  0.36336580253E+01  0.11632778638E+02 -0.10472417316E+01  0.12231995953E+02  0.51100000000E-03 0.  1.
        -12    1    3    3    0    0 -0.11122949554E+01  0.96908819179E+01 -0.41448843703E+01  0.10598606458E+02  0.00000000000E+00 0.  1.
</event>
<event>
 7    1  0.1736465E-010  0.4778727E+02  0.7816164E-02  0.1312668E+00
        -11   -1    0    0    0    0  0.00000000000E+00  0.00000000000E+00  0.45593999997E+02  0.45594000000E+02  0.51100000000E-03 0.  1.
         11   -1    0    0    0    0 -0.00000000000E+00 -0.00000000000E+00 -0.45593999997E+02  0.45594000000E+02  0.51100000000E-03 0. -1.
    9900012    2    1    2    0    0  0.35935641508E+01 -0.39803247192E+02  0.16923688499E+02  0.47787269330E+02  0.19999992182E+02 0.  0.
         12    1    1    2    0    0 -0.35935641508E+01  0.39803247192E+02 -0.16923688499E+02  0.43400730670E+02  0.00000000000E+00 0. -1.
         11    1    3    3    0    0  0.42582596677E+01 -0.21373990243E+01  0.24517684506E+01  0.53583970349E+01  0.51100000000E-03 0. -1.
        -11    1    3    3    0    0 -0.25377695490E+01 -0.10813202643E+02 -0.13764530383E+01  0.11191972521E+02  0.51100000000E-03 0.  1.
        -12    1    3    3    0    0  0.18730740320E+01 -0.26852645524E+02  0.15848373086E+02  0.31236899774E+02  0.00000000000E+00 0.  1.
</event>
<event>
 7    1  0.1736465E-010  0.4778727E+02  0.7816164E-02  0.1312668E+00
        -11   -1    0    0    0    0  0.00000000000E+00  0.00000000000E+00  0.45593999997E+02  0.45594000000E+02  0.51100000000E-03 0.  1.
         11   -1    0    0    0    0 -0.00000000000E+00 -0.00000000000E+00 -0.45593999997E+02  0.45594000000E+02  0.51100000000E-03 0. -1.
    9900012    2    1    2    0    0  0.41993585986E+02  0.37349753750E+01  0.10305926398E+02  0.47787269316E+02  0.19999992118E+02 0.  0.
         12    1    1    2    0    0 -0.41993585986E+02 -0.37349753750E+01 -0.10305926398E+02  0.43400730684E+02  0.00000000000E+00 0. -1.
         11    1    3    3    0    0  0.12560082667E+02 -0.10383409505E+01 -0.23996907826E+01  0.12829354803E+02  0.51100000000E-03 0. -1.
        -11    1    3    3    0    0  0.19481898203E+02 -0.30231070954E+00  0.21742327394E+01  0.19605178847E+02  0.51100000000E-03 0.  1.
        -12    1    3    3    0    0  0.99516051158E+01  0.50756270351E+01  0.10531384442E+02  0.15352735666E+02  0.00000000000E+00 0.  1.
</event>
<event>
 7    1  0.1736465E-010  0.4778726E+02  0.7816164E-02  0.1312668E+00
        -11   -1    0    0    0    0  0.00000000000E+00  0.00000000000E+00  0.45593999997E+02  0.45594000000E+02  0.51100000000E-03 0.  1.
         11   -1    0    0    0    0 -0.00000000000E+00 -0.00000000000E+00 -0.45593999997E+02  0.45594000000E+02  0.51100000000E-03 0. -1.
    9900012    2    1    2    0    0 -0.22596095114E+01 -0.21825365545E+01  0.43286886950E+02  0.47787264030E+02  0.19999968018E+02 0.  0.
         12    1    1    2    0    0  0.22596095114E+01  0.21825365545E+01 -0.43286886950E+02  0.43400735970E+02  0.00000000000E+00 0. -1.
         11    1    3    3    0    0 -0.64587175603E+01  0.46216317345E+01  0.31284645967E+02  0.32276982294E+02  0.51100000000E-03 0. -1.
        -11    1    3    3    0    0  0.16444509066E+01 -0.36200283255E+01  0.10383598034E+02  0.11118809840E+02  0.51100000000E-03 0.  1.
         12    1    3    3    0    0  0.25546571424E+01 -0.31841399636E+01  0.16186429483E+01  0.43914718964E+01  0.00000000000E+00 0. -1.
</event>
<event>
 7    1  0.1736465E-010  0.4778727E+02  0.7816164E-02  0.1312668E+00
        -11   -1    0    0    0    0  0.00000000000E+00  0.00000000000E+00  0.45593999997E+02  0.45594000000E+02  0.51100000000E-03 0. -1.
         11   -1    0    0    0    0 -0.00000000000E+00 -0.00000000000E+00 -0.45593999997E+02  0.45594000000E+02  0.51100000000E-03 0.  1.
    9900012    2    1    2    0    0  0.33753444435E+02  0.96239963882E+01 -0.25528548713E+02  0.47787272850E+02  0.20000008234E+02 0.  0.
         12    1    1    2    0    0 -0.33753444435E+02 -0.96239963882E+01  0.25528548713E+02  0.43400727150E+02  0.00000000000E+00 0. -1.
         11    1    3    3    0    0  0.13536757980E+02  0.90044599251E+01 -0.46115111988E+01  0.16899412740E+02  0.51100000000E-03 0. -1.
        -11    1    3    3    0    0  0.90557931274E+01  0.45516674924E+01 -0.13649584603E+02  0.17001065444E+02  0.51100000000E-03 0.  1.
         12    1    3    3    0    0  0.11160893328E+02 -0.39321310293E+01 -0.72674529111E+01  0.13886794667E+02  0.00000000000E+00 0. -1.
</event>
<event>
 7    1  0.1736465E-010  0.4778727E+02  0.7816164E-02  0.1312668E+00
        -11   -1    0    0    0    0  0.00000000000E+00  0.00000000000E+00  0.45593999997E+02  0.45594000000E+02  0.51100000000E-03 0.  1.
         11   -1    0    0    0    0 -0.00000000000E+00 -0.00000000000E+00 -0.45593999997E+02  0.45594000000E+02  0.51100000000E-03 0. -1.
    9900012    2    1    2    0    0 -0.17718080413E+02 -0.29087584409E+02 -0.26899910716E+02  0.47787272623E+02  0.20000007199E+02 0.  0.
         12    1    1    2    0    0  0.17718080413E+02  0.29087584409E+02  0.26899910716E+02  0.43400727377E+02  0.00000000000E+00 0. -1.
         11    1    3    3    0    0 -0.74886642600E+00 -0.13463831243E+01  0.88862308143E+00  0.17785386370E+01  0.51100000000E-03 0.  1.
        -11    1    3    3    0    0 -0.12297229595E+02 -0.16601133612E+02 -0.67242227116E+01  0.21726358743E+02  0.51100000000E-03 0. -1.
         12    1    3    3    0    0 -0.46719843920E+01 -0.11140067673E+02 -0.21064311086E+02  0.24282375243E+02  0.00000000000E+00 0. -1.
</event>
<event>
 7    1  0.1736465E-010  0.4778727E+02  0.7816164E-02  0.1312668E+00
        -11   -1    0    0    0    0  0.00000000000E+00  0.00000000000E+00  0.45593999997E+02  0.45594000000E+02  0.51100000000E-03 0. -1.
         11   -1    0    0    0    0 -0.00000000000E+00 -0.00000000000E+00 -0.45593999997E+02  0.45594000000E+02  0.51100000000E-03 0.  1.
    9900012    2    1    2    0    0  0.73714599187E+01 -0.37302053124E+02  0.20924664725E+02  0.47787272098E+02  0.20000004803E+02 0.  0.
         12    1    1    2    0    0 -0.73714599187E+01  0.37302053124E+02 -0.20924664725E+02  0.43400727902E+02  0.00000000000E+00 0. -1.
         11    1    3    3    0    0 -0.86430180738E+00 -0.75653953900E+01  0.77693167852E+01  0.10878626227E+02  0.51100000000E-03 0. -1.
        -11    1    3    3    0    0  0.27047602462E+01 -0.21469048381E+01 -0.29020160295E+01  0.45107234087E+01  0.51100000000E-03 0.  1.
        -12    1    3    3    0    0  0.55310014799E+01 -0.27589752895E+02  0.16057363970E+02  0.32397922462E+02  0.00000000000E+00 0.  1.
</event>
<event>
 7    1  0.1736465E-010  0.4778727E+02  0.7816164E-02  0.1312668E+00
        -11   -1    0    0    0    0  0.00000000000E+00  0.00000000000E+00  0.45593999997E+02  0.45594000000E+02  0.51100000000E-03 0.  1.
         11   -1    0    0    0    0 -0.00000000000E+00 -0.00000000000E+00 -0.45593999997E+02  0.45594000000E+02  0.51100000000E-03 0. -1.
    9900012    2    1    2    0    0  0.17391607497E+02  0.19610391649E+02  0.34591728910E+02  0.47787272115E+02  0.20000004882E+02 0.  0.
         12    1    1    2    0    0 -0.17391607497E+02 -0.19610391649E+02 -0.34591728910E+02  0.43400727885E+02  0.00000000000E+00 0. -1.
         11    1    3    3    0    0  0.11971058575E+02  0.21241182833E+01  0.85811030733E+01  0.14881312177E+02  0.51100000000E-03 0. -1.
        -11    1    3    3    0    0  0.58419821619E+01  0.10159322978E+02  0.10450974873E+02  0.15702339794E+02  0.51100000000E-03 0.  1.
         12    1    3    3    0    0 -0.42143324017E+00  0.73269503871E+01  0.15559650964E+02  0.17203620144E+02  0.00000000000E+00 0. -1.
</event>
<event>
 7    1  0.2200303E-010  0.4778727E+02  0.7816164E-02  0.1312668E+00
        -11   -1    0    0    0    0  0.00000000000E+00  0.00000000000E+00  0.45593999997E+02  0.45594000000E+02  0.51100000000E-03 0. -1.
         11   -1    0    0    0    0 -0.00000000000E+00 -0.00000000000E+00 -0.45593999997E+02  0.45594000000E+02  0.51100000000E-03 0.  1.
    9900012    2    1    2    0    0  0.33878462920E+01 -0.31687957890E+02 -0.29462165803E+02  0.47787269689E+02  0.19999993821E+02 0.  0.
         12    1    1    2    0    0 -0.33878462920E+01  0.31687957890E+02  0.29462165803E+02  0.43400730311E+02  0.00000000000E+00 0. -1.
         11    1    3    3    0    0 -0.12248961110E+01 -0.14971373240E+02 -0.38018088773E+01  0.15495035921E+02  0.51100000000E-03 0. -1.
        -11    1    3    3    0    0  0.11504543364E+01 -0.51700521079E+00 -0.79213498959E+01  0.80211360793E+01  0.51100000000E-03 0.  1.
        -12    1    3    3    0    0  0.34622880667E+01 -0.16199579439E+02 -0.17739007029E+02  0.24271097689E+02  0.00000000000E+00 0.  1.
</event>
<event>
 7    1  0.1736465E-010  0.4778727E+02  0.7816164E-02  0.1312668E+00
        -11   -1    0    0    0    0  0.00000000000E+00  0.00000000000E+00  0.45593999997E+02  0.45594000000E+02  0.51100000000E-03 0.  1.
         11   -1    0    0    0    0 -0.00000000000E+00 -0.00000000000E+00 -0.45593999997E+02  0.45594000000E+02  0.51100000000E-03 0. -1.
    9900012    2    1    2    0    0  0.24802543787E+02  0.27270332079E+02  0.22908210809E+02  0.47787270600E+02  0.19999997972E+02 0.  0.
         12    1    1    2    0    0 -0.24802543787E+02 -0.27270332079E+02 -0.22908210809E+02  0.43400729400E+02  0.00000000000E+00 0. -1.
         11    1    3    3    0    0 -0.16335363240E+01  0.88548760447E+00  0.31918366126E+01  0.36932845060E+01  0.51100000000E-03 0. -1.
        -11    1    3    3    0    0  0.70520451352E+01  0.42137319262E+01  0.10300858906E+02  0.13175529279E+02  0.51100000000E-03 0.  1.
        -12    1    3    3    0    0  0.19384034976E+02  0.22171112548E+02  0.94155152908E+01  0.30918456814E+02  0.00000000000E+00 0.  1.
</event>
<event>
 7    1  0.1736465E-010  0.4778727E+02  0.7816164E-02  0.1312668E+00
        -11   -1    0    0    0    0  0.00000000000E+00  0.00000000000E+00  0.45593999997E+02  0.45594000000E+02  0.51100000000E-03 0.  1.
         11   -1    0    0    0    0 -0.00000000000E+00 -0.00000000000E+00 -0.45593999997E+02  0.45594000000E+02  0.51100000000E-03 0. -1.
    9900012    2    1    2    0    0  0.72965984642E+01  0.28451055010E+02  0.31951845809E+02  0.47787270388E+02  0.19999997005E+02 0.  0.
         12    1    1    2    0    0 -0.72965984642E+01 -0.28451055010E+02 -0.31951845809E+02  0.43400729612E+02  0.00000000000E+00 0. -1.
         11    1    3    3    0    0  0.11833843737E+02  0.10716920290E+02  0.97292851195E+01  0.18696289131E+02  0.51100000000E-03 0. -1.
        -11    1    3    3    0    0 -0.16501509781E+01  0.20910400225E+01  0.48674152125E+01  0.55486194444E+01  0.51100000000E-03 0.  1.
         12    1    3    3    0    0 -0.28870942944E+01  0.15643094697E+02  0.17355145477E+02  0.23542361812E+02  0.00000000000E+00 0. -1.
</event>
<event>
 7    1  0.1736465E-010  0.4778729E+02  0.7816164E-02  0.1312668E+00
        -11   -1    0    0    0    0  0.00000000000E+00  0.00000000000E+00  0.45593999997E+02  0.45594000000E+02  0.51100000000E-03 0.  1.
         11   -1    0    0    0    0 -0.00000000000E+00 -0.00000000000E+00 -0.45593999997E+02  0.45594000000E+02  0.51100000000E-03 0. -1.
    9900012    2    1    2    0    0  0.38154870422E+02  0.24924934339E+01  0.20533271241E+02  0.47787287008E+02  0.20000072782E+02 0.  0.
         12    1    1    2    0    0 -0.38154870422E+02 -0.24924934339E+01 -0.20533271241E+02  0.43400712992E+02  0.00000000000E+00 0. -1.
         11    1    3    3    0    0  0.15597309804E+02 -0.24643222849E+01  0.30703849437E+01  0.16086522974E+02  0.51100000000E-03 0. -1.
        -11    1    3    3    0    0  0.19246303001E+02  0.39519729474E+00  0.17569979650E+02  0.26063011056E+02  0.51100000000E-03 0.  1.
        -12    1    3    3    0    0  0.33112576164E+01  0.45616184240E+01 -0.10709335288E+00  0.56377529775E+01  0.00000000000E+00 0.  1.
</event>
<event>
 7    1  0.1736465E-010  0.4778727E+02  0.7816164E-02  0.1312668E+00
        -11   -1    0    0    0    0  0.00000000000E+00  0.00000000000E+00  0.45593999997E+02  0.45594000000E+02  0.51100000000E-03 0.  1.
         11   -1    0    0    0    0 -0.00000000000E+00 -0.00000000000E+00 -0.45593999997E+02  0.45594000000E+02  0.51100000000E-03 0. -1.
    9900012    2    1    2    0    0  0.40957828335E+02 -0.10049499635E+02  0.10251212366E+02  0.47787268442E+02  0.19999988133E+02 0.  0.
         12    1    1    2    0    0 -0.40957828335E+02  0.10049499635E+02 -0.10251212366E+02  0.43400731558E+02  0.00000000000E+00 0. -1.
         11    1    3    3    0    0  0.19841559662E+02 -0.14650600735E+02  0.41115110437E+01  0.25004641870E+02  0.51100000000E-03 0. -1.
        -11    1    3    3    0    0  0.10567985527E+02  0.41532730218E+00  0.25387294901E+01  0.10876578624E+02  0.51100000000E-03 0.  1.
         12    1    3    3    0    0  0.10548283145E+02  0.41857737979E+01  0.36009718319E+01  0.11906047948E+02  0.00000000000E+00 0. -1.
</event>
<event>
 7    1  0.1736465E-010  0.4778723E+02  0.7816164E-02  0.1312668E+00
        -11   -1    0    0    0    0  0.00000000000E+00  0.00000000000E+00  0.45593999997E+02  0.45594000000E+02  0.51100000000E-03 0.  1.
         11   -1    0    0    0    0 -0.00000000000E+00 -0.00000000000E+00 -0.45593999997E+02  0.45594000000E+02  0.51100000000E-03 0. -1.
    9900012    2    1    2    0    0 -0.65533747575E+01  0.21284310179E+02  0.37251290377E+02  0.47787225637E+02  0.19999792970E+02 0.  0.
         12    1    1    2    0    0  0.65533747575E+01 -0.21284310179E+02 -0.37251290377E+02  0.43400774363E+02  0.00000000000E+00 0. -1.
         11    1    3    3    0    0 -0.42186237356E+01  0.65042139519E+00  0.23067095030E+01  0.48518803784E+01  0.51100000000E-03 0. -1.
        -11    1    3    3    0    0 -0.76554885987E+01  0.86021754540E+01  0.13162632135E+02  0.17488819663E+02  0.51100000000E-03 0.  1.
        -12    1    3    3    0    0  0.53207375768E+01  0.12031713330E+02  0.21781948740E+02  0.25446525596E+02  0.00000000000E+00 0.  1.
</event>
<event>
 7    1  0.1736465E-010  0.4778725E+02  0.7816164E-02  0.1312668E+00
        -11   -1    0    0    0    0  0.00000000000E+00  0.00000000000E+00  0.45593999997E+02  0.45594000000E+02  0.51100000000E-03 0. -1.
         11   -1    0    0    0    0 -0.00000000000E+00 -0.00000000000E+00 -0.45593999997E+02  0.45594000000E+02  0.51100000000E-03 0.  1.
    9900012    2    1    2    0    0  0.35301675533E+01  0.35345638818E+02 -0.24936896201E+02  0.47787250484E+02  0.19999906257E+02 0.  0.
         12    1    1    2    0    0 -0.35301675533E+01 -0.35345638818E+02  0.24936896201E+02  0.43400749516E+02  0.00000000000E+00 0. -1.
         11    1    3    3    0    0 -0.18318186759E+01  0.12461607730E+01  0.21297754097E+01  0.30731774909E+01  0.51100000000E-03 0. -1.
        -11    1    3    3    0    0  0.46026311018E+01  0.13295252971E+02 -0.66739214816E+01  0.15572064501E+02  0.51100000000E-03 0.  1.
        -12    1    3    3    0    0  0.75935512747E+00  0.20804225074E+02 -0.20392750129E+02  0.29142008492E+02  0.00000000000E+00 0.  1.
</event>
<event>
 7    1  0.1736465E-010  0.4778727E+02  0.7816164E-02  0.1312668E+00
        -11   -1    0    0    0    0  0.00000000000E+00  0.00000000000E+00  0.45593999997E+02  0.45594000000E+02  0.51100000000E-03 0.  1.
         11   -1    0    0    0    0 -0.00000000000E+00 -0.00000000000E+00 -0.45593999997E+02  0.45594000000E+02  0.51100000000E-03 0. -1.
    9900012    2    1    2    0    0  0.25134544191E+02 -0.22472918896E+02  0.27328482482E+02  0.47787270165E+02  0.19999995992E+02 0.  0.
         12    1    1    2    0    0 -0.25134544191E+02  0.22472918896E+02 -0.27328482482E+02  0.43400729835E+02  0.00000000000E+00 0. -1.
         11    1    3    3    0    0  0.52019346119E+01 -0.46989190093E+01  0.16724055416E+02  0.18133780449E+02  0.51100000000E-03 0. -1.
        -11    1    3    3    0    0  0.52672074670E+00 -0.11493787713E+01  0.25746749408E+01  0.28683545138E+01  0.51100000000E-03 0.  1.
        -12    1    3    3    0    0  0.19405888832E+02 -0.16624621116E+02  0.80297521256E+01  0.26785135202E+02  0.00000000000E+00 0.  1.
</event>
<event>
 7    1  0.1736465E-010  0.4778727E+02  0.7816164E-02  0.1312668E+00
        -11   -1    0    0    0    0  0.00000000000E+00  0.00000000000E+00  0.45593999997E+02  0.45594000000E+02  0.51100000000E-03 0. -1.
         11   -1    0    0    0    0 -0.00000000000E+00 -0.00000000000E+00 -0.45593999997E+02  0.45594000000E+02  0.51100000000E-03 0.  1.
    9900012    2    1    2    0    0  0.28499766827E+02 -0.32423909138E+02  0.44807219987E+01  0.47787268870E+02  0.19999990087E+02 0.  0.
         12    1    1    2    0    0 -0.28499766827E+02  0.32423909138E+02 -0.44807219987E+01  0.43400731130E+02  0.00000000000E+00 0. -1.
         11    1    3    3    0    0  0.11610994922E+02 -0.22863672160E+02  0.86759070193E+01  0.27070908197E+02  0.51100000000E-03 0. -1.
        -11    1    3    3    0    0  0.11597611303E+02 -0.85738165238E+01 -0.10006112696E+01  0.14457390528E+02  0.51100000000E-03 0.  1.
         12    1    3    3    0    0  0.52911606020E+01 -0.98642045361E+00 -0.31945737511E+01  0.62589701452E+01  0.00000000000E+00 0. -1.
</event>
<event>
 7    1  0.1736465E-010  0.4778727E+02  0.7816164E-02  0.1312668E+00
        -11   -1    0    0    0    0  0.00000000000E+00  0.00000000000E+00  0.45593999997E+02  0.45594000000E+02  0.51100000000E-03 0.  1.
         11   -1    0    0    0    0 -0.00000000000E+00 -0.00000000000E+00 -0.45593999997E+02  0.45594000000E+02  0.51100000000E-03 0. -1.
    9900012    2    1    2    0    0  0.32922059717E+02 -0.23562850081E+02  0.15638209800E+02  0.47787268144E+02  0.19999986774E+02 0.  0.
         12    1    1    2    0    0 -0.32922059717E+02  0.23562850081E+02 -0.15638209800E+02  0.43400731856E+02  0.00000000000E+00 0. -1.
         11    1    3    3    0    0  0.29490920347E+01 -0.72747745894E+01  0.12174946432E+01  0.79436630481E+01  0.51100000000E-03 0. -1.
        -11    1    3    3    0    0  0.18519947672E+02 -0.49255085503E+01  0.15886204444E+01  0.19229477669E+02  0.51100000000E-03 0.  1.
        -12    1    3    3    0    0  0.11453020010E+02 -0.11362566941E+02  0.12832094712E+02  0.20614127426E+02  0.00000000000E+00 0.  1.
</event>
<event>
 7    1  0.2162850E-010  0.4778727E+02  0.7816164E-02  0.1312668E+00
        -11   -1    0    0    0    0  0.00000000000E+00  0.00000000000E+00  0.45593999997E+02  0.45594000000E+02  0.51100000000E-03 0. -1.
         11   -1    0    0    0    0 -0.00000000000E+00 -0.00000000000E+00 -0.45593999997E+02  0.45594000000E+02  0.51100000000E-03 0.  1.
    9900012    2    1    2    0    0  0.22034039528E+02 -0.80490334850E+01 -0.36514897593E+02  0.47787267470E+02  0.19999983703E+02 0.  0.
         12    1    1    2    0    0 -0.22034039528E+02  0.80490334850E+01  0.36514897593E+02  0.43400732530E+02  0.00000000000E+00 0. -1.
         11    1    3    3    0    0  0.20219439315E+00  0.53948614939E+00  0.10908369141E+01  0.12336341890E+01  0.51100000000E-03 0. -1.
        -11    1    3    3    0    0  0.92752656407E+01 -0.15592408057E+01 -0.27241906217E+02  0.28819841068E+02  0.51100000000E-03 0.  1.
        -12    1    3    3    0    0  0.12556579494E+02 -0.70292788286E+01 -0.10363828290E+02  0.17733792213E+02  0.00000000000E+00 0.  1.
</event>
<event>
 7    1  0.1736465E-010  0.4778727E+02  0.7816164E-02  0.1312668E+00
        -11   -1    0    0    0    0  0.00000000000E+00  0.00000000000E+00  0.45593999997E+02  0.45594000000E+02  0.51100000000E-03 0. -1.
         11   -1    0    0    0    0 -0.00000000000E+00 -0.00000000000E+00 -0.45593999997E+02  0.45594000000E+02  0.51100000000E-03 0.  1.
    9900012    2    1    2    0    0  0.36815281056E+02  0.22793263282E+02  0.29539017581E+01  0.47787270676E+02  0.19999998319E+02 0.  0.
         12    1    1    2    0    0 -0.36815281056E+02 -0.22793263282E+02 -0.29539017581E+01  0.43400729324E+02  0.00000000000E+00 0. -1.
         11    1    3    3    0    0  0.11212051627E+02  0.39923502092E+00 -0.44828325748E+01  0.12081609100E+02  0.51100000000E-03 0. -1.
        -11    1    3    3    0    0  0.13625797502E+02  0.71836747804E+01  0.49898158658E+01  0.16191534935E+02  0.51100000000E-03 0.  1.
         12    1    3    3    0    0  0.11977431928E+02  0.15210353480E+02  0.24469184671E+01  0.19514126641E+02  0.00000000000E+00 0. -1.
</event>
<event>
 7    1  0.1736465E-010  0.4778727E+02  0.7816164E-02  0.1312668E+00
        -11   -1    0    0    0    0  0.00000000000E+00  0.00000000000E+00  0.45593999997E+02  0.45594000000E+02  0.51100000000E-03 0. -1.
         11   -1    0    0    0    0 -0.00000000000E+00 -0.00000000000E+00 -0.45593999997E+02  0.45594000000E+02  0.51100000000E-03 0.  1.
    9900012    2    1    2    0    0  0.22278173913E+02  0.36589020403E+02 -0.69677654064E+01  0.47787271876E+02  0.20000003793E+02 0.  0.
         12    1    1    2    0    0 -0.22278173913E+02 -0.36589020403E+02  0.69677654064E+01  0.43400728124E+02  0.00000000000E+00 0. -1.
         11    1    3    3    0    0  0.72773231019E+01  0.48785584396E+01  0.24339648789E+01  0.90930714982E+01  0.51100000000E-03 0. -1.
        -11    1    3    3    0    0  0.13598802955E+02  0.13398273338E+02 -0.60418512601E+01  0.20023614488E+02  0.51100000000E-03 0.  1.
        -12    1    3    3    0    0  0.14020478557E+01  0.18312188625E+02 -0.33598790253E+01  0.18670585890E+02  0.00000000000E+00 0.  1.
</event>
<event>
 7    1  0.2067603E-010  0.4778727E+02  0.7816164E-02  0.1312668E+00
        -11   -1    0    0    0    0  0.00000000000E+00  0.00000000000E+00  0.45593999997E+02  0.45594000000E+02  0.51100000000E-03 0.  1.
         11   -1    0    0    0    0 -0.00000000000E+00 -0.00000000000E+00 -0.45593999997E+02  0.45594000000E+02  0.51100000000E-03 0. -1.
    9900012    2    1    2    0    0 -0.18521687874E+02 -0.26222011309E+02  0.29205760853E+02  0.47787271138E+02  0.20000000425E+02 0.  0.
         12    1    1    2    0    0  0.18521687874E+02  0.26222011309E+02 -0.29205760853E+02  0.43400728862E+02  0.00000000000E+00 0. -1.
         11    1    3    3    0    0 -0.36250787795E+01 -0.30431427607E+01 -0.14508430730E+01  0.49504403747E+01  0.51100000000E-03 0. -1.
        -11    1    3    3    0    0 -0.12377693517E+02 -0.87096913912E+01  0.17285659235E+02  0.22975204817E+02  0.51100000000E-03 0.  1.
        -12    1    3    3    0    0 -0.25189155770E+01 -0.14469177157E+02  0.13370944691E+02  0.19861625946E+02  0.00000000000E+00 0.  1.
</event>
<event>
 7    1  0.1736465E-010  0.4778724E+02  0.7816164E-02  0.1312668E+00
        -11   -1    0    0    0    0  0.00000000000E+00  0.00000000000E+00  0.45593999997E+02  0.45594000000E+02  0.51100000000E-03 0. -1.
         11   -1    0    0    0    0 -0.00000000000E+00 -0.00000000000E+00 -0.45593999997E+02  0.45594000000E+02  0.51100000000E-03 0.  1.
    9900012    2    1    2    0    0 -0.89882483569E+01 -0.42049908156E+02 -0.58857611558E+01  0.47787244605E+02  0.19999879454E+02 0.  0.
         12    1    1    2    0    0  0.89882483569E+01  0.42049908156E+02  0.58857611558E+01  0.43400755395E+02  0.00000000000E+00 0. -1.
         11    1    3    3    0    0 -0.87599511660E+01 -0.10042583352E+02 -0.45842001498E+01  0.14092732740E+02  0.51100000000E-03 0. -1.
        -11    1    3    3    0    0 -0.35841900660E+01 -0.65916363880E+01  0.22029743310E+01  0.78197944260E+01  0.51100000000E-03 0.  1.
        -12    1    3    3    0    0  0.33558928751E+01 -0.25415688415E+02 -0.35045353370E+01  0.25874717439E+02  0.00000000000E+00 0.  1.
</event>
<event>
 7    1  0.1736465E-010  0.4778727E+02  0.7816164E-02  0.1312668E+00
        -11   -1    0    0    0    0  0.00000000000E+00  0.00000000000E+00  0.45593999997E+02  0.45594000000E+02  0.51100000000E-03 0. -1.
         11   -1    0    0    0    0 -0.00000000000E+00 -0.00000000000E+00 -0.45593999997E+02  0.45594000000E+02  0.51100000000E-03 0.  1.
    9900012    2    1    2    0    0 -0.41644289256E+02 -0.79767098110E+01 -0.92600524819E+01  0.47787270755E+02  0.19999998679E+02 0.  0.
         12    1    1    2    0    0  0.41644289256E+02  0.79767098110E+01  0.92600524819E+01  0.43400729245E+02  0.00000000000E+00 0. -1.
         11    1    3    3    0    0 -0.20162664141E+01 -0.12020622117E+01 -0.37159953738E+01  0.43953277116E+01  0.51100000000E-03 0. -1.
        -11    1    3    3    0    0 -0.31761112982E+02  0.11491963658E+01 -0.53185739041E+01  0.32223844879E+02  0.51100000000E-03 0.  1.
         12    1    3    3    0    0 -0.78669098603E+01 -0.79238439651E+01 -0.22548320403E+00  0.11168098164E+02  0.00000000000E+00 0. -1.
</event>
<event>
 7    1  0.1736465E-010  0.4778726E+02  0.7816164E-02  0.1312668E+00
        -11   -1    0    0    0    0  0.00000000000E+00  0.00000000000E+00  0.45593999997E+02  0.45594000000E+02  0.51100000000E-03 0. -1.
         11   -1    0    0    0    0 -0.00000000000E+00 -0.00000000000E+00 -0.45593999997E+02  0.45594000000E+02  0.51100000000E-03 0.  1.
    9900012    2    1    2    0    0  0.58399015292E+01 -0.30757048458E+02  0.30058670172E+02  0.47787261155E+02  0.19999954912E+02 0.  0.
         12    1    1    2    0    0 -0.58399015292E+01  0.30757048458E+02 -0.30058670172E+02  0.43400738845E+02  0.00000000000E+00 0. -1.
         11    1    3    3    0    0  0.47418924806E+01 -0.77332936301E+01  0.18495244231E+02  0.20600083351E+02  0.51100000000E-03 0. -1.
        -11    1    3    3    0    0 -0.22949816306E+01 -0.10837085980E+02  0.90166232138E+01  0.14283167284E+02  0.51100000000E-03 0.  1.
        -12    1    3    3    0    0  0.33929906792E+01 -0.12186668849E+02  0.25468027276E+01  0.12904010520E+02  0.00000000000E+00 0.  1.
</event>
<event>
 7    1  0.1736465E-010  0.4778727E+02  0.7816164E-02  0.1312668E+00
        -11   -1    0    0    0    0  0.00000000000E+00  0.00000000000E+00  0.45593999997E+02  0.45594000000E+02  0.51100000000E-03 0.  1.
         11   -1    0    0    0    0 -0.00000000000E+00 -0.00000000000E+00 -0.45593999997E+02  0.45594000000E+02  0.51100000000E-03 0. -1.
    9900012    2    1    2    0    0 -0.41082985330E+01  0.53232282157E+01  0.42876662778E+02  0.47787273203E+02  0.20000009843E+02 0.  0.
         12    1    1    2    0    0  0.41082985330E+01 -0.53232282157E+01 -0.42876662778E+02  0.43400726797E+02  0.00000000000E+00 0. -1.
         11    1    3    3    0    0 -0.55473963336E+01  0.12114117298E+01  0.16938975066E+01  0.59254040778E+01  0.51100000000E-03 0. -1.
        -11    1    3    3    0    0  0.17272151325E+01 -0.12357296251E+01  0.10060831280E+02  0.10282539868E+02  0.51100000000E-03 0.  1.
        -12    1    3    3    0    0 -0.28811733200E+00  0.53475461110E+01  0.31121933991E+02  0.31579329258E+02  0.00000000000E+00 0.  1.
</event>
<event>
 7    1  0.1736465E-010  0.4778727E+02  0.7816164E-02  0.1312668E+00
        -11   -1    0    0    0    0  0.00000000000E+00  0.00000000000E+00  0.45593999997E+02  0.45594000000E+02  0.51100000000E-03 0. -1.
         11   -1    0    0    0    0 -0.00000000000E+00 -0.00000000000E+00 -0.45593999997E+02  0.45594000000E+02  0.51100000000E-03 0.  1.
    9900012    2    1    2    0    0 -0.32992089401E+01  0.37751617644E+02  0.21155464363E+02  0.47787273200E+02  0.20000009827E+02 0.  0.
         12    1    1    2    0    0  0.32992089401E+01 -0.37751617644E+02 -0.21155464363E+02  0.43400726800E+02  0.00000000000E+00 0. -1.
         11    1    3    3    0    0  0.50181518079E+01  0.15405061652E+01  0.32311259425E+01  0.61640231935E+01  0.51100000000E-03 0. -1.
        -11    1    3    3    0    0 -0.36211625621E+01  0.11681917622E+02  0.86589907167E+01  0.14985264032E+02  0.51100000000E-03 0.  1.
         12    1    3    3    0    0 -0.46961981859E+01  0.24529193857E+02  0.92653477037E+01  0.26637985974E+02  0.00000000000E+00 0. -1.
</event>
<event>
 7    1  0.1736465E-010  0.4778727E+02  0.7816164E-02  0.1312668E+00
        -11   -1    0    0    0    0  0.00000000000E+00  0.00000000000E+00  0.45593999997E+02  0.45594000000E+02  0.51100000000E-03 0.  1.
         11   -1    0    0    0    0 -0.00000000000E+00 -0.00000000000E+00 -0.45593999997E+02  0.45594000000E+02  0.51100000000E-03 0. -1.
    9900012    2    1    2    0    0  0.38784961785E+02  0.18974190196E+00  0.19475995239E+02  0.47787266674E+02  0.19999980075E+02 0.  0.
         12    1    1    2    0    0 -0.38784961785E+02 -0.18974190196E+00 -0.19475995239E+02  0.43400733326E+02  0.00000000000E+00 0. -1.
         11    1    3    3    0    0  0.37116897716E+02 -0.94646214803E+00  0.16431531189E+02  0.40602402689E+02  0.51100000000E-03 0. -1.
        -11    1    3    3    0    0  0.24306777962E+01  0.26767713404E+01 -0.82401858459E-01  0.36166406630E+01  0.51100000000E-03 0.  1.
         12    1    3    3    0    0 -0.76261372667E+00 -0.15405672904E+01  0.31268659082E+01  0.35682233226E+01  0.00000000000E+00 0. -1.
</event>
<event>
 7    1  0.1736465E-010  0.4778727E+02  0.7816164E-02  0.1312668E+00
        -11   -1    0    0    0    0  0.00000000000E+00  0.00000000000E+00  0.45593999997E+02  0.45594000000E+02  0.51100000000E-03 0. -1.
         11   -1    0    0    0    0 -0.00000000000E+00 -0.00000000000E+00 -0.45593999997E+02  0.45594000000E+02  0.51100000000E-03 0.  1.
    9900012    2    1    2    0    0  0.14558274768E+02 -0.27405970829E+02 -0.30341277471E+02  0.47787265906E+02  0.19999976573E+02 0.  0.
         12    1    1    2    0    0 -0.14558274768E+02  0.27405970829E+02  0.30341277471E+02  0.43400734094E+02  0.00000000000E+00 0. -1.
         11    1    3    3    0    0 -0.18830251784E+01 -0.17259898819E+01  0.54910615403E+00  0.26127270666E+01  0.51100000000E-03 0. -1.
        -11    1    3    3    0    0  0.97654364722E+01 -0.18220475757E+02 -0.12285624563E+02  0.24047579036E+02  0.51100000000E-03 0.  1.
         12    1    3    3    0    0  0.66758634740E+01 -0.74595051892E+01 -0.18604759062E+02  0.21126959804E+02  0.00000000000E+00 0. -1.
</event>
<event>
 7    1  0.1736465E-010  0.4778727E+02  0.7816164E-02  0.1312668E+00
        -11   -1    0    0    0    0  0.00000000000E+00  0.00000000000E+00  0.45593999997E+02  0.45594000000E+02  0.51100000000E-03 0.  1.
         11   -1    0    0    0    0 -0.00000000000E+00 -0.00000000000E+00 -0.45593999997E+02  0.45594000000E+02  0.51100000000E-03 0. -1.
    9900012    2    1    2    0    0  0.15290097394E+02  0.24906769214E+02  0.32085658475E+02  0.47787266011E+02  0.19999977050E+02 0.  0.
         12    1    1    2    0    0 -0.15290097394E+02 -0.24906769214E+02 -0.32085658475E+02  0.43400733989E+02  0.00000000000E+00 0. -1.
         11    1    3    3    0    0  0.95910112525E+01  0.59992171278E+01  0.10559411432E+02  0.15475117869E+02  0.51100000000E-03 0. -1.
        -11    1    3    3    0    0  0.88866744161E+01  0.80403833549E+01  0.69506024368E+01  0.13853938832E+02  0.51100000000E-03 0.  1.
         12    1    3    3    0    0 -0.31875882750E+01  0.10867168732E+02  0.14575644606E+02  0.18458209310E+02  0.00000000000E+00 0. -1.
</event>
<event>
 7    1  0.1736465E-010  0.4778726E+02  0.7816164E-02  0.1312668E+00
        -11   -1    0    0    0    0  0.00000000000E+00  0.00000000000E+00  0.45593999997E+02  0.45594000000E+02  0.51100000000E-03 0.  1.
         11   -1    0    0    0    0 -0.00000000000E+00 -0.00000000000E+00 -0.45593999997E+02  0.45594000000E+02  0.51100000000E-03 0. -1.
    9900012    2    1    2    0    0  0.10073983804E+02 -0.38618398335E+02  0.17051633866E+02  0.47787262021E+02  0.19999958857E+02 0.  0.
         12    1    1    2    0    0 -0.10073983804E+02  0.38618398335E+02 -0.17051633866E+02  0.43400737979E+02  0.00000000000E+00 0. -1.
         11    1    3    3    0    0  0.90400047412E+01 -0.12116396136E+02  0.11020659665E+02  0.18707850779E+02  0.51100000000E-03 0. -1.
        -11    1    3    3    0    0 -0.19162664422E+01 -0.12273416187E+02  0.74404988291E+01  0.14479980838E+02  0.51100000000E-03 0.  1.
         12    1    3    3    0    0  0.29502455051E+01 -0.14228586012E+02 -0.14095246285E+01  0.14599430404E+02  0.00000000000E+00 0. -1.
</event>
<event>
 7    1  0.1736465E-010  0.4778728E+02  0.7816164E-02  0.1312668E+00
        -11   -1    0    0    0    0  0.00000000000E+00  0.00000000000E+00  0.45593999997E+02  0.45594000000E+02  0.51100000000E-03 0.  1.
         11   -1    0    0    0    0 -0.00000000000E+00 -0.00000000000E+00 -0.45593999997E+02  0.45594000000E+02  0.51100000000E-03 0. -1.
    9900012    2    1    2    0    0 -0.17556714819E+02 -0.39095606118E+02  0.68496679389E+01  0.47787278763E+02  0.20000035193E+02 0.  0.
         12    1    1    2    0    0  0.17556714819E+02  0.39095606118E+02 -0.68496679389E+01  0.43400721237E+02  0.00000000000E+00 0. -1.
         11    1    3    3    0    0 -0.34338618264E+01 -0.54731915491E+01  0.81320448130E+01  0.10386403895E+02  0.51100000000E-03 0. -1.
        -11    1    3    3    0    0 -0.24377797727E+01 -0.68663854516E+01  0.30235614240E+01  0.78887225415E+01  0.51100000000E-03 0.  1.
        -12    1    3    3    0    0 -0.11685073220E+02 -0.26756029118E+02 -0.43059382981E+01  0.29512152326E+02  0.00000000000E+00 0.  1.
</event>
<event>
 7    1  0.1736465E-010  0.4778727E+02  0.7816164E-02  0.1312668E+00
        -11   -1    0    0    0    0  0.00000000000E+00  0.00000000000E+00  0.45593999997E+02  0.45594000000E+02  0.51100000000E-03 0.  1.
         11   -1    0    0    0    0 -0.00000000000E+00 -0.00000000000E+00 -0.45593999997E+02  0.45594000000E+02  0.51100000000E-03 0. -1.
    9900012    2    1    2    0    0 -0.26385261867E+02  0.32958435761E+02  0.10058988383E+02  0.47787265227E+02  0.19999973474E+02 0.  0.
         12    1    1    2    0    0  0.26385261867E+02 -0.32958435761E+02 -0.10058988383E+02  0.43400734773E+02  0.00000000000E+00 0. -1.
         11    1    3    3    0    0 -0.74230274892E+01  0.13606710609E+02  0.99606970572E+01  0.18424423921E+02  0.51100000000E-03 0. -1.
        -11    1    3    3    0    0 -0.15265016278E+02  0.19811213637E+02  0.21627520867E+01  0.25103434119E+02  0.51100000000E-03 0.  1.
        -12    1    3    3    0    0 -0.36972180996E+01 -0.45948848490E+00 -0.20644607612E+01  0.42594071863E+01  0.00000000000E+00 0.  1.
</event>
<event>
 7    1  0.1736465E-010  0.4778727E+02  0.7816164E-02  0.1312668E+00
        -11   -1    0    0    0    0  0.00000000000E+00  0.00000000000E+00  0.45593999997E+02  0.45594000000E+02  0.51100000000E-03 0.  1.
         11   -1    0    0    0    0 -0.00000000000E+00 -0.00000000000E+00 -0.45593999997E+02  0.45594000000E+02  0.51100000000E-03 0. -1.
    9900012    2    1    2    0    0  0.69699621852E+01 -0.18365421242E+02  0.38700830455E+02  0.47787270188E+02  0.19999996097E+02 0.  0.
         12    1    1    2    0    0 -0.69699621852E+01  0.18365421242E+02 -0.38700830455E+02  0.43400729812E+02  0.00000000000E+00 0. -1.
         11    1    3    3    0    0  0.53701663954E+01 -0.82416463610E+01  0.82229183387E+01  0.12821068915E+02  0.51100000000E-03 0. -1.
        -11    1    3    3    0    0  0.51194651482E+01 -0.72643395950E+01  0.28785065394E+02  0.30125728923E+02  0.51100000000E-03 0.  1.
        -12    1    3    3    0    0 -0.35196693585E+01 -0.28594352863E+01  0.16928467226E+01  0.48404723505E+01  0.00000000000E+00 0.  1.
</event>
<event>
 7    1  0.1736465E-010  0.4778728E+02  0.7816164E-02  0.1312668E+00
        -11   -1    0    0    0    0  0.00000000000E+00  0.00000000000E+00  0.45593999997E+02  0.45594000000E+02  0.51100000000E-03 0. -1.
         11   -1    0    0    0    0 -0.00000000000E+00 -0.00000000000E+00 -0.45593999997E+02  0.45594000000E+02  0.51100000000E-03 0.  1.
    9900012    2    1    2    0    0 -0.29084656441E+00  0.74392511450E+00 -0.43393371033E+02  0.47787278048E+02  0.20000031932E+02 0.  0.
         12    1    1    2    0    0  0.29084656441E+00 -0.74392511450E+00  0.43393371033E+02  0.43400721952E+02  0.00000000000E+00 0. -1.
         11    1    3    3    0    0  0.11767485519E+01  0.54244539511E+01 -0.10707241410E+02  0.12060450103E+02  0.51100000000E-03 0. -1.
        -11    1    3    3    0    0  0.35829956470E+01  0.32879730720E+01 -0.13440779919E+02  0.14293466683E+02  0.51100000000E-03 0.  1.
         12    1    3    3    0    0 -0.50505907633E+01 -0.79685019086E+01 -0.19245349705E+02  0.21433361262E+02  0.00000000000E+00 0. -1.
</event>
<event>
 7    1  0.1736465E-010  0.4778725E+02  0.7816164E-02  0.1312668E+00
        -11   -1    0    0    0    0  0.00000000000E+00  0.00000000000E+00  0.45593999997E+02  0.45594000000E+02  0.51100000000E-03 0. -1.
         11   -1    0    0    0    0 -0.00000000000E+00 -0.00000000000E+00 -0.45593999997E+02  0.45594000000E+02  0.51100000000E-03 0.  1.
    9900012    2    1    2    0    0  0.18848773078E+02  0.84913619711E+01 -0.38160791613E+02  0.47787245500E+02  0.19999883531E+02 0.  0.
         12    1    1    2    0    0 -0.18848773078E+02 -0.84913619711E+01  0.38160791613E+02  0.43400754500E+02  0.00000000000E+00 0. -1.
         11    1    3    3    0    0 -0.49753103421E+00 -0.19070512976E+01 -0.53713278745E+01  0.57214985081E+01  0.51100000000E-03 0. -1.
        -11    1    3    3    0    0  0.20008102340E+02  0.46861427082E+01 -0.26666835785E+02  0.33666069325E+02  0.51100000000E-03 0.  1.
        -12    1    3    3    0    0 -0.66179822801E+00  0.57122705606E+01 -0.61226279533E+01  0.83996776668E+01  0.00000000000E+00 0.  1.
</event>
<event>
 7    1  0.1736465E-010  0.4778727E+02  0.7816164E-02  0.1312668E+00
        -11   -1    0    0    0    0  0.00000000000E+00  0.00000000000E+00  0.45593999997E+02  0.45594000000E+02  0.51100000000E-03 0.  1.
         11   -1    0    0    0    0 -0.00000000000E+00 -0.00000000000E+00 -0.45593999997E+02  0.45594000000E+02  0.51100000000E-03 0. -1.
    9900012    2    1    2    0    0  0.30302011104E+02 -0.21106227340E+02  0.22802163171E+02  0.47787270113E+02  0.19999995753E+02 0.  0.
         12    1    1    2    0    0 -0.30302011104E+02  0.21106227340E+02 -0.22802163171E+02  0.43400729887E+02  0.00000000000E+00 0. -1.
         11    1    3    3    0    0  0.85966238341E+01  0.24321919686E+00  0.99538364440E+01  0.13154465293E+02  0.51100000000E-03 0. -1.
        -11    1    3    3    0    0  0.15794065649E+02 -0.84669127194E+01  0.60623083724E+01  0.18918052326E+02  0.51100000000E-03 0.  1.
        -12    1    3    3    0    0  0.59113216205E+01 -0.12882533817E+02  0.67860183546E+01  0.15714752494E+02  0.00000000000E+00 0.  1.
</event>
<event>
 7    1  0.1736465E-010  0.4778726E+02  0.7816164E-02  0.1312668E+00
        -11   -1    0    0    0    0  0.00000000000E+00  0.00000000000E+00  0.45593999997E+02  0.45594000000E+02  0.51100000000E-03 0.  1.
         11   -1    0    0    0    0 -0.00000000000E+00 -0.00000000000E+00 -0.45593999997E+02  0.45594000000E+02  0.51100000000E-03 0. -1.
    9900012    2    1    2    0    0 -0.18476049939E+02 -0.11277369855E+02  0.37617557574E+02  0.47787261181E+02  0.19999955027E+02 0.  0.
         12    1    1    2    0    0  0.18476049939E+02  0.11277369855E+02 -0.37617557574E+02  0.43400738819E+02  0.00000000000E+00 0. -1.
         11    1    3    3    0    0 -0.30986060328E+01 -0.55562648209E+01  0.14410938212E+02  0.15752732415E+02  0.51100000000E-03 0.  1.
        -11    1    3    3    0    0 -0.92613772741E+01  0.41776068210E+01  0.82681807147E+01  0.13099172507E+02  0.51100000000E-03 0. -1.
         12    1    3    3    0    0 -0.61160666322E+01 -0.98987118555E+01  0.14938438648E+02  0.18935356259E+02  0.00000000000E+00 0. -1.
</event>
<event>
 7    1  0.1736465E-010  0.4778727E+02  0.7816164E-02  0.1312668E+00
        -11   -1    0    0    0    0  0.00000000000E+00  0.00000000000E+00  0.45593999997E+02  0.45594000000E+02  0.51100000000E-03 0.  1.
         11   -1    0    0    0    0 -0.00000000000E+00 -0.00000000000E+00 -0.45593999997E+02  0.45594000000E+02  0.51100000000E-03 0. -1.
    9900012    2    1    2    0    0  0.17258863698E+01 -0.32521987379E+02  0.28687369299E+02  0.47787268392E+02  0.19999987906E+02 0.  0.
         12    1    1    2    0    0 -0.17258863698E+01  0.32521987379E+02 -0.28687369299E+02  0.43400731608E+02  0.00000000000E+00 0. -1.
         11    1    3    3    0    0  0.17391291981E+01 -0.57020908658E+00  0.51413668681E+01  0.54574135177E+01  0.51100000000E-03 0. -1.
        -11    1    3    3    0    0  0.29374487850E+01 -0.31751322966E+02  0.23014871088E+02  0.39325048086E+02  0.51100000000E-03 0.  1.
        -12    1    3    3    0    0 -0.29506916133E+01 -0.20045532617E+00  0.53113134229E+00  0.30048067887E+01  0.00000000000E+00 0.  1.
</event>
<event>
 7    1  0.1736465E-010  0.4778727E+02  0.7816164E-02  0.1312668E+00
        -11   -1    0    0    0    0  0.00000000000E+00  0.00000000000E+00  0.45593999997E+02  0.45594000000E+02  0.51100000000E-03 0. -1.
         11   -1    0    0    0    0 -0.00000000000E+00 -0.00000000000E+00 -0.45593999997E+02  0.45594000000E+02  0.51100000000E-03 0.  1.
    9900012    2    1    2    0    0  0.30111717439E+01 -0.17395243936E+02 -0.39647969591E+02  0.47787272362E+02  0.20000006007E+02 0.  0.
         12    1    1    2    0    0 -0.30111717439E+01  0.17395243936E+02  0.39647969591E+02  0.43400727638E+02  0.00000000000E+00 0. -1.
         11    1    3    3    0    0  0.73962578803E+01 -0.28398284297E+01 -0.11150165870E+02  0.13678284079E+02  0.51100000000E-03 0. -1.
        -11    1    3    3    0    0  0.18948833730E+00  0.17176527137E+01 -0.16923242595E+01  0.24187183249E+01  0.51100000000E-03 0.  1.
        -12    1    3    3    0    0 -0.45745744737E+01 -0.16273068220E+02 -0.26805479461E+02  0.31690269958E+02  0.00000000000E+00 0.  1.
</event>
<event>
 7    1  0.1736465E-010  0.4778727E+02  0.7816164E-02  0.1312668E+00
        -11   -1    0    0    0    0  0.00000000000E+00  0.00000000000E+00  0.45593999997E+02  0.45594000000E+02  0.51100000000E-03 0.  1.
         11   -1    0    0    0    0 -0.00000000000E+00 -0.00000000000E+00 -0.45593999997E+02  0.45594000000E+02  0.51100000000E-03 0. -1.
    9900012    2    1    2    0    0  0.26850627138E+02  0.83716049458E+01  0.33054246261E+02  0.47787272553E+02  0.20000006879E+02 0.  0.
         12    1    1    2    0    0 -0.26850627138E+02 -0.83716049458E+01 -0.33054246261E+02  0.43400727447E+02  0.00000000000E+00 0. -1.
         11    1    3    3    0    0  0.10437335669E+02  0.80733989249E+01  0.50293498500E+01  0.14121335144E+02  0.51100000000E-03 0. -1.
        -11    1    3    3    0    0  0.26976321977E+01 -0.34378095065E+01  0.54113905570E+01  0.69554943533E+01  0.51100000000E-03 0.  1.
        -12    1    3    3    0    0  0.13715659271E+02  0.37360155274E+01  0.22613505854E+02  0.26710443056E+02  0.00000000000E+00 0.  1.
</event>
<event>
 7    1  0.1736465E-010  0.4778727E+02  0.7816164E-02  0.1312668E+00
        -11   -1    0    0    0    0  0.00000000000E+00  0.00000000000E+00  0.45593999997E+02  0.45594000000E+02  0.51100000000E-03 0. -1.
         11   -1    0    0    0    0 -0.00000000000E+00 -0.00000000000E+00 -0.45593999997E+02  0.45594000000E+02  0.51100000000E-03 0.  1.
    9900012    2    1    2    0    0 -0.25527442012E+01 -0.43305261033E+02 -0.13270971021E+01  0.47787270481E+02  0.19999997429E+02 0.  0.
         12    1    1    2    0    0  0.25527442012E+01  0.43305261033E+02  0.13270971021E+01  0.43400729519E+02  0.00000000000E+00 0. -1.
         11    1    3    3    0    0 -0.13761828814E+01 -0.14828163115E+02 -0.72981108809E+01  0.16584050271E+02  0.51100000000E-03 0. -1.
        -11    1    3    3    0    0 -0.12779472199E+01  0.41410769232E+00 -0.75256165532E+00  0.15397998519E+01  0.51100000000E-03 0.  1.
        -12    1    3    3    0    0  0.10138590019E+00 -0.28891205610E+02  0.67235754341E+01  0.29663420358E+02  0.00000000000E+00 0.  1.
</event>
<event>
 7    1  0.1736465E-010  0.4778727E+02  0.7816164E-02  0.1312668E+00
        -11   -1    0    0    0    0  0.00000000000E+00  0.00000000000E+00  0.45593999997E+02  0.45594000000E+02  0.51100000000E-03 0. -1.
         11   -1    0    0    0    0 -0.00000000000E+00 -0.00000000000E+00 -0.45593999997E+02  0.45594000000E+02  0.51100000000E-03 0.  1.
    9900012    2    1    2    0    0  0.30907547239E+02  0.30038141595E+02 -0.51045737477E+01  0.47787273047E+02  0.20000009133E+02 0.  0.
         12    1    1    2    0    0 -0.30907547239E+02 -0.30038141595E+02  0.51045737477E+01  0.43400726953E+02  0.00000000000E+00 0. -1.
         11    1    3    3    0    0  0.64162516407E+00  0.10851939700E+01  0.30425034042E+01  0.32933502743E+01  0.51100000000E-03 0. -1.
        -11    1    3    3    0    0  0.24005383127E+02  0.20669851815E+02 -0.11315464700E+02  0.33638384842E+02  0.51100000000E-03 0.  1.
         12    1    3    3    0    0  0.62605389485E+01  0.82830958101E+01  0.31683875479E+01  0.10855537931E+02  0.00000000000E+00 0. -1.
</event>
<event>
 7    1  0.1736465E-010  0.4778727E+02  0.7816164E-02  0.1312668E+00
        -11   -1    0    0    0    0  0.00000000000E+00  0.00000000000E+00  0.45593999997E+02  0.45594000000E+02  0.51100000000E-03 0. -1.
         11   -1    0    0    0    0 -0.00000000000E+00 -0.00000000000E+00 -0.45593999997E+02  0.45594000000E+02  0.51100000000E-03 0.  1.
    9900012    2    1    2    0    0 -0.36430537777E+02 -0.10921268218E+02 -0.20908499952E+02  0.47787267835E+02  0.19999985368E+02 0.  0.
         12    1    1    2    0    0  0.36430537777E+02  0.10921268218E+02  0.20908499952E+02  0.43400732165E+02  0.00000000000E+00 0. -1.
         11    1    3    3    0    0 -0.63846985168E+01  0.20772109275E+01  0.11254744705E+01  0.68077803602E+01  0.51100000000E-03 0. -1.
        -11    1    3    3    0    0 -0.41739018209E+01 -0.64659450939E+01 -0.66973182955E+01  0.10202155409E+02  0.51100000000E-03 0.  1.
         12    1    3    3    0    0 -0.25871937439E+02 -0.65325340520E+01 -0.15336656127E+02  0.30777332067E+02  0.00000000000E+00 0. -1.
</event>
<event>
 7    1  0.1736465E-010  0.4778726E+02  0.7816164E-02  0.1312668E+00
        -11   -1    0    0    0    0  0.00000000000E+00  0.00000000000E+00  0.45593999997E+02  0.45594000000E+02  0.51100000000E-03 0.  1.
         11   -1    0    0    0    0 -0.00000000000E+00 -0.00000000000E+00 -0.45593999997E+02  0.45594000000E+02  0.51100000000E-03 0. -1.
    9900012    2    1    2    0    0 -0.49309328768E+01  0.16478404593E+02  0.39846857494E+02  0.47787263035E+02  0.19999963480E+02 0.  0.
         12    1    1    2    0    0  0.49309328768E+01 -0.16478404593E+02 -0.39846857494E+02  0.43400736965E+02  0.00000000000E+00 0. -1.
         11    1    3    3    0    0 -0.97991527750E+00 -0.31718239840E+01  0.31172480294E+01  0.45538924971E+01  0.51100000000E-03 0. -1.
        -11    1    3    3    0    0  0.36719456494E+00  0.16795398128E+02  0.32353059897E+02  0.36454639144E+02  0.51100000000E-03 0.  1.
         12    1    3    3    0    0 -0.43182121643E+01  0.28548304493E+01  0.43765495673E+01  0.67787313935E+01  0.00000000000E+00 0. -1.
</event>
<event>
 7    1  0.1736465E-010  0.4778727E+02  0.7816164E-02  0.1312668E+00
        -11   -1    0    0    0    0  0.00000000000E+00  0.00000000000E+00  0.45593999997E+02  0.45594000000E+02  0.51100000000E-03 0. -1.
         11   -1    0    0    0    0 -0.00000000000E+00 -0.00000000000E+00 -0.45593999997E+02  0.45594000000E+02  0.51100000000E-03 0.  1.
    9900012    2    1    2    0    0 -0.21465862277E+02 -0.37443833349E+02 -0.45606380834E+01  0.47787270526E+02  0.19999997637E+02 0.  0.
         12    1    1    2    0    0  0.21465862277E+02  0.37443833349E+02  0.45606380834E+01  0.43400729474E+02  0.00000000000E+00 0. -1.
         11    1    3    3    0    0 -0.17471777894E+02 -0.33483935166E+02 -0.84957908819E+01  0.38711954225E+02  0.51100000000E-03 0.  1.
        -11    1    3    3    0    0 -0.17511887663E+01 -0.52597122683E+01  0.31017501383E+01  0.63523294485E+01  0.51100000000E-03 0. -1.
        -12    1    3    3    0    0 -0.22428956169E+01  0.12998140853E+01  0.83340266023E+00  0.27229868525E+01  0.00000000000E+00 0.  1.
</event>
<event>
 7    1  0.1736465E-010  0.4778727E+02  0.7816164E-02  0.1312668E+00
        -11   -1    0    0    0    0  0.00000000000E+00  0.00000000000E+00  0.45593999997E+02  0.45594000000E+02  0.51100000000E-03 0. -1.
         11   -1    0    0    0    0 -0.00000000000E+00 -0.00000000000E+00 -0.45593999997E+02  0.45594000000E+02  0.51100000000E-03 0.  1.
    9900012    2    1    2    0    0 -0.34845012621E+02 -0.69092657843E-01 -0.25873611978E+02  0.47787268726E+02  0.19999989430E+02 0.  0.
         12    1    1    2    0    0  0.34845012621E+02  0.69092657843E-01  0.25873611978E+02  0.43400731274E+02  0.00000000000E+00 0. -1.
         11    1    3    3    0    0 -0.18607840776E+01 -0.25791306550E+01  0.93773814529E+00  0.33156877732E+01  0.51100000000E-03 0. -1.
        -11    1    3    3    0    0 -0.27987983473E+02 -0.28139741263E+01 -0.22222217561E+02  0.35847909603E+02  0.51100000000E-03 0.  1.
         12    1    3    3    0    0 -0.49962450699E+01  0.53240121234E+01 -0.45891325618E+01  0.86236713503E+01  0.00000000000E+00 0. -1.
</event>
<event>
 7    1  0.1736465E-010  0.4778727E+02  0.7816164E-02  0.1312668E+00
        -11   -1    0    0    0    0  0.00000000000E+00  0.00000000000E+00  0.45593999997E+02  0.45594000000E+02  0.51100000000E-03 0. -1.
         11   -1    0    0    0    0 -0.00000000000E+00 -0.00000000000E+00 -0.45593999997E+02  0.45594000000E+02  0.51100000000E-03 0.  1.
    9900012    2    1    2    0    0 -0.10918738604E+02  0.33519443428E+02 -0.25315035552E+02  0.47787274598E+02  0.20000016203E+02 0.  0.
         12    1    1    2    0    0  0.10918738604E+02 -0.33519443428E+02  0.25315035552E+02  0.43400725402E+02  0.00000000000E+00 0. -1.
         11    1    3    3    0    0  0.11177170638E+01  0.66122665780E+00 -0.78568185112E+01  0.79634232279E+01  0.51100000000E-03 0. -1.
        -11    1    3    3    0    0 -0.56572102118E+01  0.15562183031E+02 -0.12461381070E+02  0.20723696256E+02  0.51100000000E-03 0.  1.
         12    1    3    3    0    0 -0.63792454557E+01  0.17296033739E+02 -0.49968359710E+01  0.19100155115E+02  0.00000000000E+00 0. -1.
</event>
<event>
 7    1  0.1736465E-010  0.4778727E+02  0.7816164E-02  0.1312668E+00
        -11   -1    0    0    0    0  0.00000000000E+00  0.00000000000E+00  0.45593999997E+02  0.45594000000E+02  0.51100000000E-03 0.  1.
         11   -1    0    0    0    0 -0.00000000000E+00 -0.00000000000E+00 -0.45593999997E+02  0.45594000000E+02  0.51100000000E-03 0. -1.
    9900012    2    1    2    0    0  0.21248775266E+02  0.28864137014E+02  0.24473959027E+02  0.47787268136E+02  0.19999986738E+02 0.  0.
         12    1    1    2    0    0 -0.21248775266E+02 -0.28864137014E+02 -0.24473959027E+02  0.43400731864E+02  0.00000000000E+00 0. -1.
         11    1    3    3    0    0  0.46927074876E+00  0.82122974302E+01  0.57064679231E+01  0.10011284660E+02  0.51100000000E-03 0. -1.
        -11    1    3    3    0    0  0.70650415041E+01 -0.50555706319E-01  0.81010866302E+01  0.10749184722E+02  0.51100000000E-03 0.  1.
         12    1    3    3    0    0  0.13714463013E+02  0.20702395291E+02  0.10666404474E+02  0.27026798754E+02  0.00000000000E+00 0. -1.
</event>
<event>
 7    1  0.1736465E-010  0.4778727E+02  0.7816164E-02  0.1312668E+00
        -11   -1    0    0    0    0  0.00000000000E+00  0.00000000000E+00  0.45593999997E+02  0.45594000000E+02  0.51100000000E-03 0.  1.
         11   -1    0    0    0    0 -0.00000000000E+00 -0.00000000000E+00 -0.45593999997E+02  0.45594000000E+02  0.51100000000E-03 0. -1.
    9900012    2    1    2    0    0  0.11424443435E+02 -0.23872363470E+02  0.34397905998E+02  0.47787267489E+02  0.19999983789E+02 0.  0.
         12    1    1    2    0    0 -0.11424443435E+02  0.23872363470E+02 -0.34397905998E+02  0.43400732511E+02  0.00000000000E+00 0. -1.
         11    1    3    3    0    0  0.36484532809E+01 -0.29237514829E+01  0.19496104010E+02  0.20048880415E+02  0.51100000000E-03 0. -1.
        -11    1    3    3    0    0  0.61280898493E+01 -0.10818454065E+02  0.11471236910E+02  0.16916906043E+02  0.51100000000E-03 0.  1.
        -12    1    3    3    0    0  0.16479003049E+01 -0.10130157922E+02  0.34305650780E+01  0.10821481031E+02  0.00000000000E+00 0.  1.
</event>
<event>
 7    1  0.1736465E-010  0.4778727E+02  0.7816164E-02  0.1312668E+00
        -11   -1    0    0    0    0  0.00000000000E+00  0.00000000000E+00  0.45593999997E+02  0.45594000000E+02  0.51100000000E-03 0.  1.
         11   -1    0    0    0    0 -0.00000000000E+00 -0.00000000000E+00 -0.45593999997E+02  0.45594000000E+02  0.51100000000E-03 0. -1.
    9900012    2    1    2    0    0  0.27397061740E+02  0.23641649387E+02  0.23960314721E+02  0.47787271213E+02  0.20000000770E+02 0.  0.
         12    1    1    2    0    0 -0.27397061740E+02 -0.23641649387E+02 -0.23960314721E+02  0.43400728787E+02  0.00000000000E+00 0. -1.
         11    1    3    3    0    0  0.20193567116E+02  0.17989223990E+02  0.17160184741E+02  0.32029116023E+02  0.51100000000E-03 0. -1.
        -11    1    3    3    0    0  0.31962505484E+01  0.21072852606E+01  0.91469089621E+01  0.99157759434E+01  0.51100000000E-03 0.  1.
         12    1    3    3    0    0  0.40072440753E+01  0.35451401363E+01 -0.23467789828E+01  0.58423792464E+01  0.00000000000E+00 0. -1.
</event>
<event>
 7    1  0.1736465E-010  0.4778728E+02  0.7816164E-02  0.1312668E+00
        -11   -1    0    0    0    0  0.00000000000E+00  0.00000000000E+00  0.45593999997E+02  0.45594000000E+02  0.51100000000E-03 0.  1.
         11   -1    0    0    0    0 -0.00000000000E+00 -0.00000000000E+00 -0.45593999997E+02  0.45594000000E+02  0.51100000000E-03 0. -1.
    9900012    2    1    2    0    0 -0.27193173117E+02 -0.33321020511E+02 -0.58192099599E+01  0.47787282534E+02  0.20000052384E+02 0.  0.
         12    1    1    2    0    0  0.27193173117E+02  0.33321020511E+02  0.58192099599E+01  0.43400717466E+02  0.00000000000E+00 0. -1.
         11    1    3    3    0    0 -0.14398870157E+02 -0.15129701794E+02 -0.95757352493E+01  0.22976728313E+02  0.51100000000E-03 0. -1.
        -11    1    3    3    0    0 -0.98133093771E+00 -0.10124437210E+02  0.79722259548E+00  0.10203078132E+02  0.51100000000E-03 0.  1.
        -12    1    3    3    0    0 -0.11812972023E+02 -0.80668815069E+01  0.29593026940E+01  0.14607476089E+02  0.00000000000E+00 0.  1.
</event>
<event>
 7    1  0.1736465E-010  0.4778727E+02  0.7816164E-02  0.1312668E+00
        -11   -1    0    0    0    0  0.00000000000E+00  0.00000000000E+00  0.45593999997E+02  0.45594000000E+02  0.51100000000E-03 0.  1.
         11   -1    0    0    0    0 -0.00000000000E+00 -0.00000000000E+00 -0.45593999997E+02  0.45594000000E+02  0.51100000000E-03 0. -1.
    9900012    2    1    2    0    0 -0.21138299799E+02  0.39818075012E+01  0.37695368900E+02  0.47787270215E+02  0.19999996216E+02 0.  0.
         12    1    1    2    0    0  0.21138299799E+02 -0.39818075012E+01 -0.37695368900E+02  0.43400729785E+02  0.00000000000E+00 0. -1.
         11    1    3    3    0    0 -0.23835504167E+01  0.21929182216E+01 -0.70505528025E+00  0.33147105643E+01  0.51100000000E-03 0. -1.
        -11    1    3    3    0    0 -0.17362108984E+02  0.55429047951E+01  0.28953907995E+02  0.34212503714E+02  0.51100000000E-03 0.  1.
         12    1    3    3    0    0 -0.13926403984E+01 -0.37540155154E+01  0.94465161853E+01  0.10260055936E+02  0.00000000000E+00 0. -1.
</event>
<event>
 7    1  0.1736465E-010  0.4778726E+02  0.7816164E-02  0.1312668E+00
        -11   -1    0    0    0    0  0.00000000000E+00  0.00000000000E+00  0.45593999997E+02  0.45594000000E+02  0.51100000000E-03 0.  1.
         11   -1    0    0    0    0 -0.00000000000E+00 -0.00000000000E+00 -0.45593999997E+02  0.45594000000E+02  0.51100000000E-03 0. -1.
    9900012    2    1    2    0    0  0.10659847516E+02 -0.35300361799E+02  0.22888339979E+02  0.47787262688E+02  0.19999961901E+02 0.  0.
         12    1    1    2    0    0 -0.10659847516E+02  0.35300361799E+02 -0.22888339979E+02  0.43400737312E+02  0.00000000000E+00 0. -1.
         11    1    3    3    0    0 -0.13816937117E+01 -0.41731430932E+01  0.70440169172E+01  0.83031545439E+01  0.51100000000E-03 0. -1.
        -11    1    3    3    0    0  0.54224518468E+00  0.13232479270E+01 -0.29661464060E+00  0.14604778063E+01  0.51100000000E-03 0.  1.
        -12    1    3    3    0    0  0.11499296043E+02 -0.32450466633E+02  0.16140937703E+02  0.38023630338E+02  0.00000000000E+00 0.  1.
</event>
<event>
 7    1  0.1736465E-010  0.4778727E+02  0.7816164E-02  0.1312668E+00
        -11   -1    0    0    0    0  0.00000000000E+00  0.00000000000E+00  0.45593999997E+02  0.45594000000E+02  0.51100000000E-03 0.  1.
         11   -1    0    0    0    0 -0.00000000000E+00 -0.00000000000E+00 -0.45593999997E+02  0.45594000000E+02  0.51100000000E-03 0. -1.
    9900012    2    1    2    0    0  0.35474848906E+02  0.15039770336E+02  0.19974075982E+02  0.47787270651E+02  0.19999998208E+02 0.  0.
         12    1    1    2    0    0 -0.35474848906E+02 -0.15039770336E+02 -0.19974075982E+02  0.43400729349E+02  0.00000000000E+00 0. -1.
         11    1    3    3    0    0  0.43626698473E+01  0.88220263699E+01  0.29746185481E+00  0.98462947997E+01  0.51100000000E-03 0. -1.
        -11    1    3    3    0    0  0.12079225004E+02  0.35809321868E+01  0.11502451922E+02  0.17059811034E+02  0.51100000000E-03 0.  1.
         12    1    3    3    0    0  0.19032954055E+02  0.26368117792E+01  0.81741622051E+01  0.20881164818E+02  0.00000000000E+00 0. -1.
</event>
<event>
 7    1  0.1736465E-010  0.4778726E+02  0.7816164E-02  0.1312668E+00
        -11   -1    0    0    0    0  0.00000000000E+00  0.00000000000E+00  0.45593999997E+02  0.45594000000E+02  0.51100000000E-03 0. -1.
         11   -1    0    0    0    0 -0.00000000000E+00 -0.00000000000E+00 -0.45593999997E+02  0.45594000000E+02  0.51100000000E-03 0.  1.
    9900012    2    1    2    0    0  0.24271479748E+02  0.30959269156E+02 -0.18331468619E+02  0.47787264781E+02  0.19999971440E+02 0.  0.
         12    1    1    2    0    0 -0.24271479748E+02 -0.30959269156E+02  0.18331468619E+02  0.43400735219E+02  0.00000000000E+00 0. -1.
         11    1    3    3    0    0  0.51376275206E+01  0.18480769046E+01 -0.62142494683E+01  0.82720917247E+01  0.51100000000E-03 0. -1.
        -11    1    3    3    0    0  0.42524717488E+00 -0.85385212710E-01 -0.38402199852E+01  0.38646365405E+01  0.51100000000E-03 0.  1.
        -12    1    3    3    0    0  0.18708605053E+02  0.29196577464E+02 -0.82769991658E+01  0.35650536515E+02  0.00000000000E+00 0.  1.
</event>
<event>
 7    1  0.1736465E-010  0.4778733E+02  0.7816164E-02  0.1312667E+00
        -11   -1    0    0    0    0  0.00000000000E+00  0.00000000000E+00  0.45593999997E+02  0.45594000000E+02  0.51100000000E-03 0. -1.
         11   -1    0    0    0    0 -0.00000000000E+00 -0.00000000000E+00 -0.45593999997E+02  0.45594000000E+02  0.51100000000E-03 0.  1.
    9900012    2    1    2    0    0 -0.39234765715E+02 -0.64066673086E+01  0.17412799372E+02  0.47787334007E+02  0.20000287067E+02 0.  0.
         12    1    1    2    0    0  0.39234765715E+02  0.64066673086E+01 -0.17412799372E+02  0.43400665993E+02  0.00000000000E+00 0. -1.
         11    1    3    3    0    0 -0.11086589072E+01 -0.33283522498E+00 -0.32151894203E+01  0.34172133572E+01  0.51100000000E-03 0. -1.
        -11    1    3    3    0    0 -0.17709945251E+02 -0.41453558842E+01  0.58974970413E+01  0.19120842236E+02  0.51100000000E-03 0.  1.
         12    1    3    3    0    0 -0.20416161556E+02 -0.19284761994E+01  0.14730491751E+02  0.25249278413E+02  0.00000000000E+00 0. -1.
</event>
<event>
 7    1  0.1736465E-010  0.4778728E+02  0.7816164E-02  0.1312668E+00
        -11   -1    0    0    0    0  0.00000000000E+00  0.00000000000E+00  0.45593999997E+02  0.45594000000E+02  0.51100000000E-03 0. -1.
         11   -1    0    0    0    0 -0.00000000000E+00 -0.00000000000E+00 -0.45593999997E+02  0.45594000000E+02  0.51100000000E-03 0.  1.
    9900012    2    1    2    0    0 -0.10783529557E+02 -0.41212276317E+02 -0.82997991150E+01  0.47787275418E+02  0.20000019940E+02 0.  0.
         12    1    1    2    0    0  0.10783529557E+02  0.41212276317E+02  0.82997991150E+01  0.43400724582E+02  0.00000000000E+00 0. -1.
         11    1    3    3    0    0 -0.59406582641E+01 -0.65668155794E+01 -0.44901127850E+01  0.99285245907E+01  0.51100000000E-03 0. -1.
        -11    1    3    3    0    0  0.47891991396E+01 -0.79074296339E+01 -0.10973544735E+01  0.93095681380E+01  0.51100000000E-03 0.  1.
        -12    1    3    3    0    0 -0.96320704329E+01 -0.26738031103E+02 -0.27123318565E+01  0.28549182689E+02  0.00000000000E+00 0.  1.
</event>
<event>
 7    1  0.1736465E-010  0.4778727E+02  0.7816164E-02  0.1312668E+00
        -11   -1    0    0    0    0  0.00000000000E+00  0.00000000000E+00  0.45593999997E+02  0.45594000000E+02  0.51100000000E-03 0.  1.
         11   -1    0    0    0    0 -0.00000000000E+00 -0.00000000000E+00 -0.45593999997E+02  0.45594000000E+02  0.51100000000E-03 0. -1.
    9900012    2    1    2    0    0  0.94359901130E+01  0.13443675486E+02  0.40172789228E+02  0.47787270579E+02  0.19999997876E+02 0.  0.
         12    1    1    2    0    0 -0.94359901130E+01 -0.13443675486E+02 -0.40172789228E+02  0.43400729421E+02  0.00000000000E+00 0. -1.
         11    1    3    3    0    0  0.17142700239E+01  0.14491334942E+01 -0.10938360687E+01  0.24970356836E+01  0.51100000000E-03 0. -1.
        -11    1    3    3    0    0  0.10927935607E+02  0.10143077282E+02  0.31669080524E+02  0.35003320626E+02  0.51100000000E-03 0.  1.
         12    1    3    3    0    0 -0.32062155174E+01  0.18514647096E+01  0.95975447725E+01  0.10286914269E+02  0.00000000000E+00 0. -1.
</event>
<event>
 7    1  0.1736465E-010  0.4778727E+02  0.7816164E-02  0.1312668E+00
        -11   -1    0    0    0    0  0.00000000000E+00  0.00000000000E+00  0.45593999997E+02  0.45594000000E+02  0.51100000000E-03 0. -1.
         11   -1    0    0    0    0 -0.00000000000E+00 -0.00000000000E+00 -0.45593999997E+02  0.45594000000E+02  0.51100000000E-03 0.  1.
    9900012    2    1    2    0    0 -0.37750449741E+02  0.19056955012E+02 -0.97651988931E+01  0.47787273054E+02  0.20000009163E+02 0.  0.
         12    1    1    2    0    0  0.37750449741E+02 -0.19056955012E+02  0.97651988931E+01  0.43400726946E+02  0.00000000000E+00 0. -1.
         11    1    3    3    0    0 -0.90125638250E+01  0.10613491662E+02 -0.30556833148E+01  0.14255164423E+02  0.51100000000E-03 0. -1.
        -11    1    3    3    0    0 -0.23251536834E+02  0.11587013738E+02 -0.77807835637E+01  0.27118876187E+02  0.51100000000E-03 0.  1.
        -12    1    3    3    0    0 -0.54863490823E+01 -0.31435503870E+01  0.10712679854E+01  0.64132324444E+01  0.00000000000E+00 0.  1.
</event>
<event>
 7    1  0.1736465E-010  0.4778727E+02  0.7816164E-02  0.1312668E+00
        -11   -1    0    0    0    0  0.00000000000E+00  0.00000000000E+00  0.45593999997E+02  0.45594000000E+02  0.51100000000E-03 0. -1.
         11   -1    0    0    0    0 -0.00000000000E+00 -0.00000000000E+00 -0.45593999997E+02  0.45594000000E+02  0.51100000000E-03 0.  1.
    9900012    2    1    2    0    0  0.32217466327E+02  0.12415082122E+02 -0.26296835280E+02  0.47787274818E+02  0.20000017205E+02 0.  0.
         12    1    1    2    0    0 -0.32217466327E+02 -0.12415082122E+02  0.26296835280E+02  0.43400725182E+02  0.00000000000E+00 0. -1.
         11    1    3    3    0    0 -0.20944330280E+00 -0.20104333878E+01 -0.13843667662E+00  0.20260488342E+01  0.51100000000E-03 0. -1.
        -11    1    3    3    0    0  0.14997806575E+02  0.34587216052E+01 -0.17814683350E+02  0.23542724998E+02  0.51100000000E-03 0.  1.
         12    1    3    3    0    0  0.17429103054E+02  0.10966793905E+02 -0.83437152530E+01  0.22218500985E+02  0.00000000000E+00 0. -1.
</event>
<event>
 7    1  0.1736465E-010  0.4778728E+02  0.7816164E-02  0.1312668E+00
        -11   -1    0    0    0    0  0.00000000000E+00  0.00000000000E+00  0.45593999997E+02  0.45594000000E+02  0.51100000000E-03 0.  1.
         11   -1    0    0    0    0 -0.00000000000E+00 -0.00000000000E+00 -0.45593999997E+02  0.45594000000E+02  0.51100000000E-03 0. -1.
    9900012    2    1    2    0    0 -0.88686594161E+01  0.28883572546E+02  0.31156202513E+02  0.47787276068E+02  0.20000022903E+02 0.  0.
         12    1    1    2    0    0  0.88686594161E+01 -0.28883572546E+02 -0.31156202513E+02  0.43400723932E+02  0.00000000000E+00 0. -1.
         11    1    3    3    0    0 -0.50085665308E+01  0.21817815637E+02  0.96906911130E+01  0.24392874213E+02  0.51100000000E-03 0. -1.
        -11    1    3    3    0    0  0.75734988948E+00  0.65244513301E+00  0.53847487623E+01  0.54767493096E+01  0.51100000000E-03 0.  1.
        -12    1    3    3    0    0 -0.46174427748E+01  0.64133117753E+01  0.16080762637E+02  0.17917652545E+02  0.00000000000E+00 0.  1.
</event>
<event>
 7    1  0.1736465E-010  0.4778730E+02  0.7816164E-02  0.1312668E+00
        -11   -1    0    0    0    0  0.00000000000E+00  0.00000000000E+00  0.45593999997E+02  0.45594000000E+02  0.51100000000E-03 0.  1.
         11   -1    0    0    0    0 -0.00000000000E+00 -0.00000000000E+00 -0.45593999997E+02  0.45594000000E+02  0.51100000000E-03 0. -1.
    9900012    2    1    2    0    0  0.30526540336E+01  0.42066248752E+02  0.10233900143E+02  0.47787300779E+02  0.20000135572E+02 0.  0.
         12    1    1    2    0    0 -0.30526540336E+01 -0.42066248752E+02 -0.10233900143E+02  0.43400699221E+02  0.00000000000E+00 0. -1.
         11    1    3    3    0    0  0.72165328178E+01  0.86362262032E+01  0.26201983013E+01  0.11555439773E+02  0.51100000000E-03 0. -1.
        -11    1    3    3    0    0  0.57131950967E+00  0.28010645695E+02  0.76236795743E+01  0.29035205678E+02  0.51100000000E-03 0.  1.
        -12    1    3    3    0    0 -0.47351982939E+01  0.54193768535E+01 -0.99777321720E-02  0.71966553286E+01  0.00000000000E+00 0.  1.
</event>
<event>
 7    1  0.1736465E-010  0.4778725E+02  0.7816164E-02  0.1312668E+00
        -11   -1    0    0    0    0  0.00000000000E+00  0.00000000000E+00  0.45593999997E+02  0.45594000000E+02  0.51100000000E-03 0. -1.
         11   -1    0    0    0    0 -0.00000000000E+00 -0.00000000000E+00 -0.45593999997E+02  0.45594000000E+02  0.51100000000E-03 0.  1.
    9900012    2    1    2    0    0  0.23367802185E+02 -0.18377517184E+02 -0.31620214032E+02  0.47787248253E+02  0.19999896083E+02 0.  0.
         12    1    1    2    0    0 -0.23367802185E+02  0.18377517184E+02  0.31620214032E+02  0.43400751747E+02  0.00000000000E+00 0. -1.
         11    1    3    3    0    0  0.10115631351E+02  0.83772253850E+00 -0.10900065698E+02  0.14894267661E+02  0.51100000000E-03 0. -1.
        -11    1    3    3    0    0  0.76071026285E+01 -0.84360617656E+01 -0.16463466866E+02  0.20002022148E+02  0.51100000000E-03 0.  1.
         12    1    3    3    0    0  0.56450682053E+01 -0.10779177957E+02 -0.42566814683E+01  0.12890958444E+02  0.00000000000E+00 0. -1.
</event>
<event>
 7    1  0.1736465E-010  0.4778728E+02  0.7816164E-02  0.1312668E+00
        -11   -1    0    0    0    0  0.00000000000E+00  0.00000000000E+00  0.45593999997E+02  0.45594000000E+02  0.51100000000E-03 0. -1.
         11   -1    0    0    0    0 -0.00000000000E+00 -0.00000000000E+00 -0.45593999997E+02  0.45594000000E+02  0.51100000000E-03 0.  1.
    9900012    2    1    2    0    0  0.18532960369E+02 -0.39030880862E+02 -0.40917744768E+01  0.47787275360E+02  0.20000019676E+02 0.  0.
         12    1    1    2    0    0 -0.18532960369E+02  0.39030880862E+02  0.40917744768E+01  0.43400724640E+02  0.00000000000E+00 0. -1.
         11    1    3    3    0    0  0.10376984053E+02 -0.82285340131E+01 -0.32783139586E+01  0.13643236886E+02  0.51100000000E-03 0. -1.
        -11    1    3    3    0    0 -0.30808584259E+01 -0.88508913678E+01  0.95536214732E+00  0.94203335258E+01  0.51100000000E-03 0.  1.
         12    1    3    3    0    0  0.11236834742E+02 -0.21951455481E+02 -0.17688226656E+01  0.24723704949E+02  0.00000000000E+00 0. -1.
</event>
<event>
 7    1  0.1736465E-010  0.4778727E+02  0.7816164E-02  0.1312668E+00
        -11   -1    0    0    0    0  0.00000000000E+00  0.00000000000E+00  0.45593999997E+02  0.45594000000E+02  0.51100000000E-03 0.  1.
         11   -1    0    0    0    0 -0.00000000000E+00 -0.00000000000E+00 -0.45593999997E+02  0.45594000000E+02  0.51100000000E-03 0. -1.
    9900012    2    1    2    0    0 -0.25110080270E+02 -0.19238103937E+02  0.29715354826E+02  0.47787273201E+02  0.20000009832E+02 0.  0.
         12    1    1    2    0    0  0.25110080270E+02  0.19238103937E+02 -0.29715354826E+02  0.43400726799E+02  0.00000000000E+00 0. -1.
         11    1    3    3    0    0 -0.80584471708E+01 -0.46633876712E+01  0.11355542295E+02  0.14684484889E+02  0.51100000000E-03 0.  1.
        -11    1    3    3    0    0 -0.15405042744E+01 -0.23981125105E+01 -0.29271070992E+01  0.40855909320E+01  0.51100000000E-03 0. -1.
         12    1    3    3    0    0 -0.15511128824E+02 -0.12176603756E+02  0.21286919631E+02  0.29017197380E+02  0.00000000000E+00 0. -1.
</event>
<event>
 7    1  0.1736465E-010  0.4778727E+02  0.7816164E-02  0.1312668E+00
        -11   -1    0    0    0    0  0.00000000000E+00  0.00000000000E+00  0.45593999997E+02  0.45594000000E+02  0.51100000000E-03 0. -1.
         11   -1    0    0    0    0 -0.00000000000E+00 -0.00000000000E+00 -0.45593999997E+02  0.45594000000E+02  0.51100000000E-03 0.  1.
    9900012    2    1    2    0    0  0.40816246842E+02 -0.14705191915E+02  0.11892557549E+01  0.47787274144E+02  0.20000014134E+02 0.  0.
         12    1    1    2    0    0 -0.40816246842E+02  0.14705191915E+02 -0.11892557549E+01  0.43400725856E+02  0.00000000000E+00 0. -1.
         11    1    3    3    0    0  0.17212968444E+02 -0.12189865296E+02  0.73818925732E+01  0.22346620255E+02  0.51100000000E-03 0. -1.
        -11    1    3    3    0    0  0.10328189292E+02  0.12485406946E+01 -0.22154478761E+00  0.10405740256E+02  0.51100000000E-03 0.  1.
         12    1    3    3    0    0  0.13275089107E+02 -0.37638673133E+01 -0.59710920307E+01  0.15034913634E+02  0.00000000000E+00 0. -1.
</event>
<event>
 7    1  0.1736465E-010  0.4778727E+02  0.7816164E-02  0.1312668E+00
        -11   -1    0    0    0    0  0.00000000000E+00  0.00000000000E+00  0.45593999997E+02  0.45594000000E+02  0.51100000000E-03 0.  1.
         11   -1    0    0    0    0 -0.00000000000E+00 -0.00000000000E+00 -0.45593999997E+02  0.45594000000E+02  0.51100000000E-03 0. -1.
    9900012    2    1    2    0    0  0.14312053311E+02  0.32540007896E+02  0.24898520923E+02  0.47787270421E+02  0.19999997158E+02 0.  0.
         12    1    1    2    0    0 -0.14312053311E+02 -0.32540007896E+02 -0.24898520923E+02  0.43400729579E+02  0.00000000000E+00 0. -1.
         11    1    3    3    0    0 -0.29370665681E+01  0.11370738239E+02  0.11127557230E+02  0.16178460319E+02  0.51100000000E-03 0. -1.
        -11    1    3    3    0    0  0.93497205042E+01  0.11188428978E+02  0.11738974290E+02  0.18719020651E+02  0.51100000000E-03 0.  1.
        -12    1    3    3    0    0  0.78993993749E+01  0.99808406796E+01  0.20319894019E+01  0.12889789451E+02  0.00000000000E+00 0.  1.
</event>
<event>
 7    1  0.1736465E-010  0.4778727E+02  0.7816164E-02  0.1312668E+00
        -11   -1    0    0    0    0  0.00000000000E+00  0.00000000000E+00  0.45593999997E+02  0.45594000000E+02  0.51100000000E-03 0.  1.
         11   -1    0    0    0    0 -0.00000000000E+00 -0.00000000000E+00 -0.45593999997E+02  0.45594000000E+02  0.51100000000E-03 0. -1.
    9900012    2    1    2    0    0 -0.39082919678E+00 -0.91210807247E+01  0.42429666468E+02  0.47787268928E+02  0.19999990349E+02 0.  0.
         12    1    1    2    0    0  0.39082919678E+00  0.91210807247E+01 -0.42429666468E+02  0.43400731072E+02  0.00000000000E+00 0. -1.
         11    1    3    3    0    0  0.46468977882E+00  0.26726556124E+01  0.23124312184E+01  0.35645985768E+01  0.51100000000E-03 0. -1.
        -11    1    3    3    0    0  0.57609433200E+01 -0.10085541278E+02  0.22376813792E+02  0.25211672030E+02  0.51100000000E-03 0.  1.
        -12    1    3    3    0    0 -0.66164622956E+01 -0.17081950594E+01  0.17740421457E+02  0.19010998320E+02  0.00000000000E+00 0.  1.
</event>
<event>
 7    1  0.1736465E-010  0.4778727E+02  0.7816164E-02  0.1312668E+00
        -11   -1    0    0    0    0  0.00000000000E+00  0.00000000000E+00  0.45593999997E+02  0.45594000000E+02  0.51100000000E-03 0.  1.
         11   -1    0    0    0    0 -0.00000000000E+00 -0.00000000000E+00 -0.45593999997E+02  0.45594000000E+02  0.51100000000E-03 0. -1.
    9900012    2    1    2    0    0  0.18129643013E+02  0.28838596929E+02  0.26893767733E+02  0.47787269920E+02  0.19999994873E+02 0.  0.
         12    1    1    2    0    0 -0.18129643013E+02 -0.28838596929E+02 -0.26893767733E+02  0.43400730080E+02  0.00000000000E+00 0. -1.
         11    1    3    3    0    0 -0.16655287677E+00 -0.19955873569E+01 -0.86481827505E+00  0.21812885343E+01  0.51100000000E-03 0. -1.
        -11    1    3    3    0    0 -0.16561207327E+00  0.87874853434E+00  0.13127919670E+01  0.15884109529E+01  0.51100000000E-03 0.  1.
        -12    1    3    3    0    0  0.18461807963E+02  0.29955435751E+02  0.26445794041E+02  0.44017570433E+02  0.00000000000E+00 0.  1.
</event>
<event>
 7    1  0.1736465E-010  0.4778728E+02  0.7816164E-02  0.1312668E+00
        -11   -1    0    0    0    0  0.00000000000E+00  0.00000000000E+00  0.45593999997E+02  0.45594000000E+02  0.51100000000E-03 0.  1.
         11   -1    0    0    0    0 -0.00000000000E+00 -0.00000000000E+00 -0.45593999997E+02  0.45594000000E+02  0.51100000000E-03 0. -1.
    9900012    2    1    2    0    0  0.85849557954E+01 -0.20010943388E+02  0.37543088957E+02  0.47787275931E+02  0.20000022280E+02 0.  0.
         12    1    1    2    0    0 -0.85849557954E+01  0.20010943388E+02 -0.37543088957E+02  0.43400724069E+02  0.00000000000E+00 0. -1.
         11    1    3    3    0    0  0.57633845049E+01 -0.29118940109E+01  0.40467043232E+01  0.76204687404E+01  0.51100000000E-03 0. -1.
        -11    1    3    3    0    0  0.26615575917E+01 -0.66169482962E+01  0.26787126364E+02  0.27720354122E+02  0.51100000000E-03 0.  1.
         12    1    3    3    0    0  0.16001369887E+00 -0.10482101081E+02  0.67092582694E+01  0.12446453068E+02  0.00000000000E+00 0. -1.
</event>
<event>
 7    1  0.1736465E-010  0.4778727E+02  0.7816164E-02  0.1312668E+00
        -11   -1    0    0    0    0  0.00000000000E+00  0.00000000000E+00  0.45593999997E+02  0.45594000000E+02  0.51100000000E-03 0. -1.
         11   -1    0    0    0    0 -0.00000000000E+00 -0.00000000000E+00 -0.45593999997E+02  0.45594000000E+02  0.51100000000E-03 0.  1.
    9900012    2    1    2    0    0  0.25522915154E+02 -0.19926660323E+02  0.28898655471E+02  0.47787271001E+02  0.19999999802E+02 0.  0.
         12    1    1    2    0    0 -0.25522915154E+02  0.19926660323E+02 -0.28898655471E+02  0.43400728999E+02  0.00000000000E+00 0. -1.
         11    1    3    3    0    0  0.24813879582E+01  0.46702647149E+00  0.65647512472E+01  0.70335879267E+01  0.51100000000E-03 0. -1.
        -11    1    3    3    0    0  0.24529969189E+02 -0.20514872832E+02  0.22700512542E+02  0.39215974623E+02  0.51100000000E-03 0.  1.
        -12    1    3    3    0    0 -0.14884419931E+01  0.12118603714E+00 -0.36660831781E+00  0.15377084513E+01  0.00000000000E+00 0.  1.
</event>
<event>
 7    1  0.1736465E-010  0.4778724E+02  0.7816164E-02  0.1312668E+00
        -11   -1    0    0    0    0  0.00000000000E+00  0.00000000000E+00  0.45593999997E+02  0.45594000000E+02  0.51100000000E-03 0.  1.
         11   -1    0    0    0    0 -0.00000000000E+00 -0.00000000000E+00 -0.45593999997E+02  0.45594000000E+02  0.51100000000E-03 0. -1.
    9900012    2    1    2    0    0  0.14061795864E+02 -0.40557743179E+02  0.64000858561E+01  0.47787242706E+02  0.19999870795E+02 0.  0.
         12    1    1    2    0    0 -0.14061795864E+02  0.40557743179E+02 -0.64000858561E+01  0.43400757294E+02  0.00000000000E+00 0. -1.
         11    1    3    3    0    0  0.13132690197E+01 -0.12538599218E+02  0.63272164662E+01  0.14105843269E+02  0.51100000000E-03 0.  1.
        -11    1    3    3    0    0  0.19133406571E+01 -0.17001610233E+01 -0.41819231753E+01  0.49030502425E+01  0.51100000000E-03 0. -1.
         12    1    3    3    0    0  0.10835186187E+02 -0.26318982938E+02  0.42547925652E+01  0.28778349195E+02  0.00000000000E+00 0. -1.
</event>
<event>
 7    1  0.1736465E-010  0.4778727E+02  0.7816164E-02  0.1312668E+00
        -11   -1    0    0    0    0  0.00000000000E+00  0.00000000000E+00  0.45593999997E+02  0.45594000000E+02  0.51100000000E-03 0.  1.
         11   -1    0    0    0    0 -0.00000000000E+00 -0.00000000000E+00 -0.45593999997E+02  0.45594000000E+02  0.51100000000E-03 0. -1.
    9900012    2    1    2    0    0  0.16271890530E+02  0.10482426912E+02  0.38845429283E+02  0.47787273375E+02  0.20000010628E+02 0.  0.
         12    1    1    2    0    0 -0.16271890530E+02 -0.10482426912E+02 -0.38845429283E+02  0.43400726625E+02  0.00000000000E+00 0. -1.
         11    1    3    3    0    0  0.13684235531E+02  0.67483443194E+01  0.13357017717E+02  0.20278273489E+02  0.51100000000E-03 0. -1.
        -11    1    3    3    0    0  0.35481430544E+00  0.65391199026E+01  0.13650407524E+02  0.15140000268E+02  0.51100000000E-03 0.  1.
        -12    1    3    3    0    0  0.22328406937E+01 -0.28050373101E+01  0.11838004041E+02  0.12368999618E+02  0.00000000000E+00 0.  1.
</event>
<event>
 7    1  0.1736465E-010  0.4778727E+02  0.7816164E-02  0.1312668E+00
        -11   -1    0    0    0    0  0.00000000000E+00  0.00000000000E+00  0.45593999997E+02  0.45594000000E+02  0.51100000000E-03 0.  1.
         11   -1    0    0    0    0 -0.00000000000E+00 -0.00000000000E+00 -0.45593999997E+02  0.45594000000E+02  0.51100000000E-03 0. -1.
    9900012    2    1    2    0    0  0.32498359520E+01  0.18232815139E+01  0.43240461188E+02  0.47787271055E+02  0.20000000048E+02 0.  0.
         12    1    1    2    0    0 -0.32498359520E+01 -0.18232815139E+01 -0.43240461188E+02  0.43400728945E+02  0.00000000000E+00 0. -1.
         11    1    3    3    0    0  0.56128130680E+01  0.34871607788E+01  0.24424335999E+02  0.25302413919E+02  0.51100000000E-03 0. -1.
        -11    1    3    3    0    0 -0.56559614384E+01  0.64749926375E+00  0.17254169068E+02  0.18169081033E+02  0.51100000000E-03 0.  1.
         12    1    3    3    0    0  0.32929843223E+01 -0.23113785286E+01  0.15619561205E+01  0.43157761031E+01  0.00000000000E+00 0. -1.
</event>
<event>
 7    1  0.1736465E-010  0.4778727E+02  0.7816164E-02  0.1312668E+00
        -11   -1    0    0    0    0  0.00000000000E+00  0.00000000000E+00  0.45593999997E+02  0.45594000000E+02  0.51100000000E-03 0.  1.
         11   -1    0    0    0    0 -0.00000000000E+00 -0.00000000000E+00 -0.45593999997E+02  0.45594000000E+02  0.51100000000E-03 0. -1.
    9900012    2    1    2    0    0  0.74376728211E+01 -0.85053294804E+00  0.42750215056E+02  0.47787271082E+02  0.20000000171E+02 0.  0.
         12    1    1    2    0    0 -0.74376728211E+01  0.85053294804E+00 -0.42750215056E+02  0.43400728918E+02  0.00000000000E+00 0. -1.
         11    1    3    3    0    0 -0.13708112448E+01  0.16575909725E+00 -0.57241152970E+00  0.14947423750E+01  0.51100000000E-03 0. -1.
        -11    1    3    3    0    0  0.18244113021E+01  0.47354812253E+01  0.28333771272E+02  0.28784646146E+02  0.51100000000E-03 0.  1.
         12    1    3    3    0    0  0.69840727638E+01 -0.57517732706E+01  0.14988855314E+02  0.17507882561E+02  0.00000000000E+00 0. -1.
</event>
<event>
 7    1  0.1736465E-010  0.4778726E+02  0.7816164E-02  0.1312668E+00
        -11   -1    0    0    0    0  0.00000000000E+00  0.00000000000E+00  0.45593999997E+02  0.45594000000E+02  0.51100000000E-03 0.  1.
         11   -1    0    0    0    0 -0.00000000000E+00 -0.00000000000E+00 -0.45593999997E+02  0.45594000000E+02  0.51100000000E-03 0. -1.
    9900012    2    1    2    0    0 -0.19607989425E+02  0.14025991236E+02  0.36089090393E+02  0.47787261241E+02  0.19999955301E+02 0.  0.
         12    1    1    2    0    0  0.19607989425E+02 -0.14025991236E+02 -0.36089090393E+02  0.43400738759E+02  0.00000000000E+00 0. -1.
         11    1    3    3    0    0 -0.58098093442E+01 -0.25381194803E+00  0.16084717516E+02  0.17103696763E+02  0.51100000000E-03 0. -1.
        -11    1    3    3    0    0 -0.26735212668E+01  0.10731186950E+02  0.12997035893E+02  0.17065433824E+02  0.51100000000E-03 0.  1.
        -12    1    3    3    0    0 -0.11124658814E+02  0.35486162335E+01  0.70073369843E+01  0.13618130654E+02  0.00000000000E+00 0.  1.
</event>
<event>
 7    1  0.1736465E-010  0.4778727E+02  0.7816164E-02  0.1312668E+00
        -11   -1    0    0    0    0  0.00000000000E+00  0.00000000000E+00  0.45593999997E+02  0.45594000000E+02  0.51100000000E-03 0. -1.
         11   -1    0    0    0    0 -0.00000000000E+00 -0.00000000000E+00 -0.45593999997E+02  0.45594000000E+02  0.51100000000E-03 0.  1.
    9900012    2    1    2    0    0  0.71021045683E+01  0.26291146632E+02 -0.33792879328E+02  0.47787274501E+02  0.20000015760E+02 0.  0.
         12    1    1    2    0    0 -0.71021045683E+01 -0.26291146632E+02  0.33792879328E+02  0.43400725499E+02  0.00000000000E+00 0. -1.
         11    1    3    3    0    0  0.54378657894E+01  0.85392919699E+01 -0.14226134802E+01  0.10223195247E+02  0.51100000000E-03 0. -1.
        -11    1    3    3    0    0 -0.22856753981E+01  0.40093024167E+01 -0.10011766936E+02  0.11024259401E+02  0.51100000000E-03 0.  1.
         12    1    3    3    0    0  0.39499141770E+01  0.13742552246E+02 -0.22358498912E+02  0.26539819853E+02  0.00000000000E+00 0. -1.
</event>
<event>
 7    1  0.2885755E-010  0.4778727E+02  0.7816164E-02  0.1312668E+00
        -11   -1    0    0    0    0  0.00000000000E+00  0.00000000000E+00  0.45593999997E+02  0.45594000000E+02  0.51100000000E-03 0.  1.
         11   -1    0    0    0    0 -0.00000000000E+00 -0.00000000000E+00 -0.45593999997E+02  0.45594000000E+02  0.51100000000E-03 0. -1.
    9900012    2    1    2    0    0 -0.37195790886E+02  0.24401282905E+01  0.22229310589E+02  0.47787270340E+02  0.19999996790E+02 0.  0.
         12    1    1    2    0    0  0.37195790886E+02 -0.24401282905E+01 -0.22229310589E+02  0.43400729660E+02  0.00000000000E+00 0. -1.
         11    1    3    3    0    0 -0.77165136912E+01  0.30166849620E+01 -0.16560957638E+01  0.84491197854E+01  0.51100000000E-03 0. -1.
        -11    1    3    3    0    0 -0.41523556027E+01 -0.30269699081E+01  0.74368393939E+01  0.90394238925E+01  0.51100000000E-03 0.  1.
        -12    1    3    3    0    0 -0.25326921592E+02  0.24504132366E+01  0.16448566959E+02  0.30298726663E+02  0.00000000000E+00 0.  1.
</event>
<event>
 7    1  0.1747628E-010  0.4778727E+02  0.7816164E-02  0.1312668E+00
        -11   -1    0    0    0    0  0.00000000000E+00  0.00000000000E+00  0.45593999997E+02  0.45594000000E+02  0.51100000000E-03 0. -1.
         11   -1    0    0    0    0 -0.00000000000E+00 -0.00000000000E+00 -0.45593999997E+02  0.45594000000E+02  0.51100000000E-03 0.  1.
    9900012    2    1    2    0    0 -0.32137067985E+02 -0.28546500202E+02  0.59941165175E+01  0.47787271373E+02  0.20000001500E+02 0.  0.
         12    1    1    2    0    0  0.32137067985E+02  0.28546500202E+02 -0.59941165175E+01  0.43400728627E+02  0.00000000000E+00 0. -1.
         11    1    3    3    0    0 -0.73567737806E+00 -0.40155708395E+01  0.27656608315E+01  0.49310151559E+01  0.51100000000E-03 0. -1.
        -11    1    3    3    0    0 -0.23593635660E+02 -0.88488369503E+01  0.25123301878E+01  0.25323375807E+02  0.51100000000E-03 0.  1.
        -12    1    3    3    0    0 -0.78077549470E+01 -0.15682092413E+02  0.71612549826E+00  0.17532880410E+02  0.00000000000E+00 0.  1.
</event>
<event>
 7    1  0.1736465E-010  0.4778727E+02  0.7816164E-02  0.1312668E+00
        -11   -1    0    0    0    0  0.00000000000E+00  0.00000000000E+00  0.45593999997E+02  0.45594000000E+02  0.51100000000E-03 0.  1.
         11   -1    0    0    0    0 -0.00000000000E+00 -0.00000000000E+00 -0.45593999997E+02  0.45594000000E+02  0.51100000000E-03 0. -1.
    9900012    2    1    2    0    0  0.14507808743E+02  0.35586194810E+02  0.20168530836E+02  0.47787269457E+02  0.19999992762E+02 0.  0.
         12    1    1    2    0    0 -0.14507808743E+02 -0.35586194810E+02 -0.20168530836E+02  0.43400730543E+02  0.00000000000E+00 0. -1.
         11    1    3    3    0    0  0.11775567908E+02  0.30214344101E+02  0.81374058883E+01  0.33433336117E+02  0.51100000000E-03 0.  1.
        -11    1    3    3    0    0 -0.53659289977E+00  0.43413156000E+01  0.61511773719E+01  0.75479756492E+01  0.51100000000E-03 0. -1.
        -12    1    3    3    0    0  0.32688337348E+01  0.10305351085E+01  0.58799475762E+01  0.68059576912E+01  0.00000000000E+00 0.  1.
</event>
<event>
 7    1  0.1736465E-010  0.4778727E+02  0.7816164E-02  0.1312668E+00
        -11   -1    0    0    0    0  0.00000000000E+00  0.00000000000E+00  0.45593999997E+02  0.45594000000E+02  0.51100000000E-03 0.  1.
         11   -1    0    0    0    0 -0.00000000000E+00 -0.00000000000E+00 -0.45593999997E+02  0.45594000000E+02  0.51100000000E-03 0. -1.
    9900012    2    1    2    0    0  0.27920648301E+02 -0.32696184449E+02 -0.59177740514E+01  0.47787272716E+02  0.20000007622E+02 0.  0.
         12    1    1    2    0    0 -0.27920648301E+02  0.32696184449E+02  0.59177740514E+01  0.43400727284E+02  0.00000000000E+00 0. -1.
         11    1    3    3    0    0  0.20901554767E+01 -0.81404965809E+01  0.19270969755E+01  0.86226525799E+01  0.51100000000E-03 0. -1.
        -11    1    3    3    0    0 -0.17312443088E+01 -0.58795848599E+00 -0.62733792219E+00  0.19329912487E+01  0.51100000000E-03 0.  1.
        -12    1    3    3    0    0  0.27561737133E+02 -0.23967729382E+02 -0.72175331047E+01  0.37231628888E+02  0.00000000000E+00 0.  1.
</event>
<event>
 7    1  0.1750877E-010  0.4778727E+02  0.7816164E-02  0.1312668E+00
        -11   -1    0    0    0    0  0.00000000000E+00  0.00000000000E+00  0.45593999997E+02  0.45594000000E+02  0.51100000000E-03 0.  1.
         11   -1    0    0    0    0 -0.00000000000E+00 -0.00000000000E+00 -0.45593999997E+02  0.45594000000E+02  0.51100000000E-03 0. -1.
    9900012    2    1    2    0    0  0.37028597583E+02  0.19231633356E+02  0.11943634033E+02  0.47787272421E+02  0.20000006276E+02 0.  0.
         12    1    1    2    0    0 -0.37028597583E+02 -0.19231633356E+02 -0.11943634033E+02  0.43400727579E+02  0.00000000000E+00 0. -1.
         11    1    3    3    0    0  0.93482984756E+01  0.44667884021E+01 -0.33435348281E+01  0.10886785955E+02  0.51100000000E-03 0. -1.
        -11    1    3    3    0    0  0.22950259910E+02  0.14523387478E+02  0.81890075009E+01  0.28367288518E+02  0.51100000000E-03 0.  1.
        -12    1    3    3    0    0  0.47300391972E+01  0.24145747539E+00  0.70981613604E+01  0.85331979478E+01  0.00000000000E+00 0.  1.
</event>
<event>
 7    1  0.1736465E-010  0.4778727E+02  0.7816164E-02  0.1312668E+00
        -11   -1    0    0    0    0  0.00000000000E+00  0.00000000000E+00  0.45593999997E+02  0.45594000000E+02  0.51100000000E-03 0.  1.
         11   -1    0    0    0    0 -0.00000000000E+00 -0.00000000000E+00 -0.45593999997E+02  0.45594000000E+02  0.51100000000E-03 0. -1.
    9900012    2    1    2    0    0  0.24194883827E+02  0.23673727256E+02  0.27162210138E+02  0.47787269301E+02  0.19999992052E+02 0.  0.
         12    1    1    2    0    0 -0.24194883827E+02 -0.23673727256E+02 -0.27162210138E+02  0.43400730699E+02  0.00000000000E+00 0. -1.
         11    1    3    3    0    0  0.16200146376E+01  0.10732524959E+01  0.95528485489E+01  0.97484990643E+01  0.51100000000E-03 0. -1.
        -11    1    3    3    0    0  0.12447425613E+02  0.59290843775E+01  0.43685303172E+01  0.14462935502E+02  0.51100000000E-03 0.  1.
        -12    1    3    3    0    0  0.10127443577E+02  0.16671390382E+02  0.13240831272E+02  0.23575834735E+02  0.00000000000E+00 0.  1.
</event>
<event>
 7    1  0.1736465E-010  0.4778727E+02  0.7816164E-02  0.1312668E+00
        -11   -1    0    0    0    0  0.00000000000E+00  0.00000000000E+00  0.45593999997E+02  0.45594000000E+02  0.51100000000E-03 0. -1.
         11   -1    0    0    0    0 -0.00000000000E+00 -0.00000000000E+00 -0.45593999997E+02  0.45594000000E+02  0.51100000000E-03 0.  1.
    9900012    2    1    2    0    0  0.26697229097E+02 -0.20119852308E+02 -0.27678021526E+02  0.47787269891E+02  0.19999994742E+02 0.  0.
         12    1    1    2    0    0 -0.26697229097E+02  0.20119852308E+02  0.27678021526E+02  0.43400730109E+02  0.00000000000E+00 0. -1.
         11    1    3    3    0    0  0.42329750886E+01 -0.54200824276E+01 -0.94146453055E+00  0.69413058819E+01  0.51100000000E-03 0. -1.
        -11    1    3    3    0    0  0.20288134786E+02 -0.16361743800E+02 -0.27612985893E+02  0.37970937089E+02  0.51100000000E-03 0.  1.
        -12    1    3    3    0    0  0.21761192226E+01  0.16619739196E+01  0.87642889683E+00  0.28750269201E+01  0.00000000000E+00 0.  1.
</event>
<event>
 7    1  0.1736465E-010  0.4778730E+02  0.7816164E-02  0.1312668E+00
        -11   -1    0    0    0    0  0.00000000000E+00  0.00000000000E+00  0.45593999997E+02  0.45594000000E+02  0.51100000000E-03 0.  1.
         11   -1    0    0    0    0 -0.00000000000E+00 -0.00000000000E+00 -0.45593999997E+02  0.45594000000E+02  0.51100000000E-03 0. -1.
    9900012    2    1    2    0    0  0.16869852947E+02 -0.35410570054E+02  0.18577424827E+02  0.47787295821E+02  0.20000112967E+02 0.  0.
         12    1    1    2    0    0 -0.16869852947E+02  0.35410570054E+02 -0.18577424827E+02  0.43400704179E+02  0.00000000000E+00 0. -1.
         11    1    3    3    0    0  0.83520043545E+01 -0.27624920224E+01  0.92754743927E+00  0.88457720650E+01  0.51100000000E-03 0. -1.
        -11    1    3    3    0    0  0.91767897827E+01 -0.20481400677E+02  0.10131781756E+02  0.24624261333E+02  0.51100000000E-03 0.  1.
        -12    1    3    3    0    0 -0.65894119058E+00 -0.12166677355E+02  0.75180956320E+01  0.14317262423E+02  0.00000000000E+00 0.  1.
</event>
<event>
 7    1  0.1736465E-010  0.4778727E+02  0.7816164E-02  0.1312668E+00
        -11   -1    0    0    0    0  0.00000000000E+00  0.00000000000E+00  0.45593999997E+02  0.45594000000E+02  0.51100000000E-03 0.  1.
         11   -1    0    0    0    0 -0.00000000000E+00 -0.00000000000E+00 -0.45593999997E+02  0.45594000000E+02  0.51100000000E-03 0. -1.
    9900012    2    1    2    0    0 -0.16796351030E+02 -0.21666654451E+02  0.33646132458E+02  0.47787267836E+02  0.19999985370E+02 0.  0.
         12    1    1    2    0    0  0.16796351030E+02  0.21666654451E+02 -0.33646132458E+02  0.43400732164E+02  0.00000000000E+00 0. -1.
         11    1    3    3    0    0  0.68809344169E+00 -0.71849150202E+01  0.13296917737E+02  0.15129590147E+02  0.51100000000E-03 0. -1.
        -11    1    3    3    0    0  0.83512902859E+00 -0.30535825007E+01  0.27818024430E+00  0.31779224491E+01  0.51100000000E-03 0.  1.
        -12    1    3    3    0    0 -0.18319573501E+02 -0.11428156930E+02  0.20071034476E+02  0.29479755240E+02  0.00000000000E+00 0.  1.
</event>
<event>
 7    1  0.1736465E-010  0.4778728E+02  0.7816164E-02  0.1312668E+00
        -11   -1    0    0    0    0  0.00000000000E+00  0.00000000000E+00  0.45593999997E+02  0.45594000000E+02  0.51100000000E-03 0. -1.
         11   -1    0    0    0    0 -0.00000000000E+00 -0.00000000000E+00 -0.45593999997E+02  0.45594000000E+02  0.51100000000E-03 0.  1.
    9900012    2    1    2    0    0 -0.42884922047E+01 -0.40343347574E+02 -0.15415771317E+02  0.47787275765E+02  0.20000021521E+02 0.  0.
         12    1    1    2    0    0  0.42884922047E+01  0.40343347574E+02  0.15415771317E+02  0.43400724235E+02  0.00000000000E+00 0. -1.
         11    1    3    3    0    0 -0.55107778279E+01 -0.13134754699E+02 -0.26148398327E+00  0.14246361901E+02  0.51100000000E-03 0. -1.
        -11    1    3    3    0    0  0.93172052415E-01 -0.27821785252E+02 -0.12317387369E+02  0.30426607558E+02  0.51100000000E-03 0.  1.
         12    1    3    3    0    0  0.11291135708E+01  0.61319237785E+00 -0.28368999655E+01  0.31143063052E+01  0.00000000000E+00 0. -1.
</event>
<event>
 7    1  0.1803700E-010  0.4778726E+02  0.7816164E-02  0.1312668E+00
        -11   -1    0    0    0    0  0.00000000000E+00  0.00000000000E+00  0.45593999997E+02  0.45594000000E+02  0.51100000000E-03 0. -1.
         11   -1    0    0    0    0 -0.00000000000E+00 -0.00000000000E+00 -0.45593999997E+02  0.45594000000E+02  0.51100000000E-03 0.  1.
    9900012    2    1    2    0    0 -0.31125134374E+02 -0.28100828311E+02 -0.11188980405E+02  0.47787264706E+02  0.19999971100E+02 0.  0.
         12    1    1    2    0    0  0.31125134374E+02  0.28100828311E+02  0.11188980405E+02  0.43400735294E+02  0.00000000000E+00 0. -1.
         11    1    3    3    0    0 -0.10500642061E+02 -0.11547729071E+01 -0.11412531982E+01  0.10625414970E+02  0.51100000000E-03 0. -1.
        -11    1    3    3    0    0 -0.14803154549E+02 -0.14493474123E+02 -0.10861718219E+02  0.23391688688E+02  0.51100000000E-03 0.  1.
        -12    1    3    3    0    0 -0.58213377639E+01 -0.12452581281E+02  0.81399101199E+00  0.13770161048E+02  0.00000000000E+00 0.  1.
</event>
<event>
 7    1  0.1736465E-010  0.4778727E+02  0.7816164E-02  0.1312668E+00
        -11   -1    0    0    0    0  0.00000000000E+00  0.00000000000E+00  0.45593999997E+02  0.45594000000E+02  0.51100000000E-03 0.  1.
         11   -1    0    0    0    0 -0.00000000000E+00 -0.00000000000E+00 -0.45593999997E+02  0.45594000000E+02  0.51100000000E-03 0. -1.
    9900012    2    1    2    0    0 -0.21349047931E+02 -0.32364205746E+02  0.19503831925E+02  0.47787272806E+02  0.20000008034E+02 0.  0.
         12    1    1    2    0    0  0.21349047931E+02  0.32364205746E+02 -0.19503831925E+02  0.43400727194E+02  0.00000000000E+00 0. -1.
         11    1    3    3    0    0  0.17854945687E+01  0.13960292754E+01  0.18551743986E+01  0.29289180431E+01  0.51100000000E-03 0. -1.
        -11    1    3    3    0    0 -0.30480589963E+01 -0.44109505552E+01  0.42932048683E+01  0.68686794035E+01  0.51100000000E-03 0.  1.
         12    1    3    3    0    0 -0.20086483504E+02 -0.29349284466E+02  0.13355452658E+02  0.37989675360E+02  0.00000000000E+00 0. -1.
</event>
<event>
 7    1  0.1736465E-010  0.4778727E+02  0.7816164E-02  0.1312668E+00
        -11   -1    0    0    0    0  0.00000000000E+00  0.00000000000E+00  0.45593999997E+02  0.45594000000E+02  0.51100000000E-03 0. -1.
         11   -1    0    0    0    0 -0.00000000000E+00 -0.00000000000E+00 -0.45593999997E+02  0.45594000000E+02  0.51100000000E-03 0.  1.
    9900012    2    1    2    0    0  0.13990023358E+02  0.29991532240E+02 -0.28078650242E+02  0.47787270063E+02  0.19999995525E+02 0.  0.
         12    1    1    2    0    0 -0.13990023358E+02 -0.29991532240E+02  0.28078650242E+02  0.43400729937E+02  0.00000000000E+00 0. -1.
         11    1    3    3    0    0  0.69789756432E+01  0.12712836245E+01 -0.55550935803E+01  0.90100681479E+01  0.51100000000E-03 0. -1.
        -11    1    3    3    0    0  0.71981324633E+01  0.20836673513E+02 -0.21555655659E+02  0.30832229326E+02  0.51100000000E-03 0.  1.
         12    1    3    3    0    0 -0.18708474864E+00  0.78835751017E+01 -0.96790100278E+00  0.79449725889E+01  0.00000000000E+00 0. -1.
</event>
<event>
 7    1  0.1736465E-010  0.4778727E+02  0.7816164E-02  0.1312668E+00
        -11   -1    0    0    0    0  0.00000000000E+00  0.00000000000E+00  0.45593999997E+02  0.45594000000E+02  0.51100000000E-03 0.  1.
         11   -1    0    0    0    0 -0.00000000000E+00 -0.00000000000E+00 -0.45593999997E+02  0.45594000000E+02  0.51100000000E-03 0. -1.
    9900012    2    1    2    0    0 -0.13384959330E+02 -0.39212743668E+02  0.12916144657E+02  0.47787271953E+02  0.20000004142E+02 0.  0.
         12    1    1    2    0    0  0.13384959330E+02  0.39212743668E+02 -0.12916144657E+02  0.43400728047E+02  0.00000000000E+00 0. -1.
         11    1    3    3    0    0  0.13649089746E+00 -0.90356751372E+01 -0.12860476196E+01  0.91277584155E+01  0.51100000000E-03 0. -1.
        -11    1    3    3    0    0 -0.10497548752E+02 -0.30792273397E+02  0.14379224195E+02  0.35568591755E+02  0.51100000000E-03 0.  1.
         12    1    3    3    0    0 -0.30239014756E+01  0.61520486653E+00 -0.17703191852E+00  0.30909217820E+01  0.00000000000E+00 0. -1.
</event>
<event>
 7    1  0.1736465E-010  0.4778727E+02  0.7816164E-02  0.1312668E+00
        -11   -1    0    0    0    0  0.00000000000E+00  0.00000000000E+00  0.45593999997E+02  0.45594000000E+02  0.51100000000E-03 0. -1.
         11   -1    0    0    0    0 -0.00000000000E+00 -0.00000000000E+00 -0.45593999997E+02  0.45594000000E+02  0.51100000000E-03 0.  1.
    9900012    2    1    2    0    0  0.41789021061E+02 -0.11389224437E+02 -0.27543678837E+01  0.47787271240E+02  0.20000000890E+02 0.  0.
         12    1    1    2    0    0 -0.41789021061E+02  0.11389224437E+02  0.27543678837E+01  0.43400728760E+02  0.00000000000E+00 0. -1.
         11    1    3    3    0    0 -0.32749903056E+00  0.10509389342E+00  0.25525595935E+01  0.25756282886E+01  0.51100000000E-03 0. -1.
        -11    1    3    3    0    0  0.37263584971E+01 -0.32577135331E+00  0.24673820744E+01  0.44810544725E+01  0.51100000000E-03 0.  1.
        -12    1    3    3    0    0  0.38390161594E+02 -0.11168546977E+02 -0.77743095515E+01  0.40730588479E+02  0.00000000000E+00 0.  1.
</event>
<event>
 7    1  0.1736465E-010  0.4778727E+02  0.7816164E-02  0.1312668E+00
        -11   -1    0    0    0    0  0.00000000000E+00  0.00000000000E+00  0.45593999997E+02  0.45594000000E+02  0.51100000000E-03 0. -1.
         11   -1    0    0    0    0 -0.00000000000E+00 -0.00000000000E+00 -0.45593999997E+02  0.45594000000E+02  0.51100000000E-03 0.  1.
    9900012    2    1    2    0    0  0.56518984528E+01  0.23847421340E+02 -0.35818712806E+02  0.47787266737E+02  0.19999980360E+02 0.  0.
         12    1    1    2    0    0 -0.56518984528E+01 -0.23847421340E+02  0.35818712806E+02  0.43400733263E+02  0.00000000000E+00 0. -1.
         11    1    3    3    0    0  0.20942309649E+01 -0.25883682298E+01 -0.28782232984E+01  0.44010933918E+01  0.51100000000E-03 0. -1.
        -11    1    3    3    0    0  0.23606886336E+01  0.15708967020E+02 -0.12287959222E+02  0.20083287523E+02  0.51100000000E-03 0.  1.
        -12    1    3    3    0    0  0.11969788543E+01  0.10726822550E+02 -0.20652530286E+02  0.23302885822E+02  0.00000000000E+00 0.  1.
</event>
<event>
 7    1  0.1736465E-010  0.4778726E+02  0.7816164E-02  0.1312668E+00
        -11   -1    0    0    0    0  0.00000000000E+00  0.00000000000E+00  0.45593999997E+02  0.45594000000E+02  0.51100000000E-03 0.  1.
         11   -1    0    0    0    0 -0.00000000000E+00 -0.00000000000E+00 -0.45593999997E+02  0.45594000000E+02  0.51100000000E-03 0. -1.
    9900012    2    1    2    0    0  0.31576714290E+01 -0.22840224857E+02  0.36769240452E+02  0.47787264939E+02  0.19999972165E+02 0.  0.
         12    1    1    2    0    0 -0.31576714290E+01  0.22840224857E+02 -0.36769240452E+02  0.43400735061E+02  0.00000000000E+00 0. -1.
         11    1    3    3    0    0  0.32764651975E+01 -0.80149109999E+01  0.21832184075E+02  0.23486555394E+02  0.51100000000E-03 0. -1.
        -11    1    3    3    0    0  0.42566353937E+00 -0.16945017996E+02  0.13638031272E+02  0.21755705495E+02  0.51100000000E-03 0.  1.
        -12    1    3    3    0    0 -0.54445730789E+00  0.21197041385E+01  0.12990251042E+01  0.25450040504E+01  0.00000000000E+00 0.  1.
</event>
<event>
 7    1  0.1736465E-010  0.4778727E+02  0.7816164E-02  0.1312668E+00
        -11   -1    0    0    0    0  0.00000000000E+00  0.00000000000E+00  0.45593999997E+02  0.45594000000E+02  0.51100000000E-03 0. -1.
         11   -1    0    0    0    0 -0.00000000000E+00 -0.00000000000E+00 -0.45593999997E+02  0.45594000000E+02  0.51100000000E-03 0.  1.
    9900012    2    1    2    0    0  0.31492612954E+02 -0.23617626172E+02 -0.18276932910E+02  0.47787271743E+02  0.20000003185E+02 0.  0.
         12    1    1    2    0    0 -0.31492612954E+02  0.23617626172E+02  0.18276932910E+02  0.43400728257E+02  0.00000000000E+00 0. -1.
         11    1    3    3    0    0 -0.14578613527E+01 -0.35563051615E+01 -0.28200839282E+01  0.47671311864E+01  0.51100000000E-03 0. -1.
        -11    1    3    3    0    0  0.17930015190E+02 -0.17206228226E+02 -0.99779841936E+01  0.26778721092E+02  0.51100000000E-03 0.  1.
        -12    1    3    3    0    0  0.15020459116E+02 -0.28550927848E+01 -0.54788647882E+01  0.16241419465E+02  0.00000000000E+00 0.  1.
</event>
<event>
 7    1  0.1736465E-010  0.4778728E+02  0.7816164E-02  0.1312668E+00
        -11   -1    0    0    0    0  0.00000000000E+00  0.00000000000E+00  0.45593999997E+02  0.45594000000E+02  0.51100000000E-03 0.  1.
         11   -1    0    0    0    0 -0.00000000000E+00 -0.00000000000E+00 -0.45593999997E+02  0.45594000000E+02  0.51100000000E-03 0. -1.
    9900012    2    1    2    0    0 -0.16390828704E+02  0.50016984656E+01  0.39874129342E+02  0.47787280606E+02  0.20000043597E+02 0.  0.
         12    1    1    2    0    0  0.16390828704E+02 -0.50016984656E+01 -0.39874129342E+02  0.43400719394E+02  0.00000000000E+00 0. -1.
         11    1    3    3    0    0 -0.80004500497E+01 -0.59768630724E+00  0.19814190608E+02  0.21376776642E+02  0.51100000000E-03 0.  1.
        -11    1    3    3    0    0 -0.96425855479E+01  0.34686488546E+01  0.54764039074E+01  0.11619035285E+02  0.51100000000E-03 0. -1.
         12    1    3    3    0    0  0.12522068941E+01  0.21307359182E+01  0.14583534827E+02  0.14791468679E+02  0.00000000000E+00 0. -1.
</event>
<event>
 7    1  0.1736465E-010  0.4778728E+02  0.7816164E-02  0.1312668E+00
        -11   -1    0    0    0    0  0.00000000000E+00  0.00000000000E+00  0.45593999997E+02  0.45594000000E+02  0.51100000000E-03 0. -1.
         11   -1    0    0    0    0 -0.00000000000E+00 -0.00000000000E+00 -0.45593999997E+02  0.45594000000E+02  0.51100000000E-03 0.  1.
    9900012    2    1    2    0    0  0.64877094517E+01 -0.42326250737E+02 -0.70725498949E+01  0.47787276073E+02  0.20000022927E+02 0.  0.
         12    1    1    2    0    0 -0.64877094517E+01  0.42326250737E+02  0.70725498949E+01  0.43400723927E+02  0.00000000000E+00 0. -1.
         11    1    3    3    0    0  0.72666136862E+01 -0.64516721021E+01  0.18966378739E+00  0.97192448261E+01  0.51100000000E-03 0. -1.
        -11    1    3    3    0    0  0.23654156058E+01 -0.20360245819E+02 -0.85004491788E+01  0.22189917470E+02  0.51100000000E-03 0.  1.
         12    1    3    3    0    0 -0.31443198403E+01 -0.15514332816E+02  0.12382354965E+01  0.15878113777E+02  0.00000000000E+00 0. -1.
</event>
<event>
 7    1  0.1736465E-010  0.4778732E+02  0.7816164E-02  0.1312668E+00
        -11   -1    0    0    0    0  0.00000000000E+00  0.00000000000E+00  0.45593999997E+02  0.45594000000E+02  0.51100000000E-03 0.  1.
         11   -1    0    0    0    0 -0.00000000000E+00 -0.00000000000E+00 -0.45593999997E+02  0.45594000000E+02  0.51100000000E-03 0. -1.
    9900012    2    1    2    0    0 -0.37765622339E+02  0.34855730606E+01  0.21100415236E+02  0.47787320589E+02  0.20000225893E+02 0.  0.
         12    1    1    2    0    0  0.37765622339E+02 -0.34855730606E+01 -0.21100415236E+02  0.43400679411E+02  0.00000000000E+00 0. -1.
         11    1    3    3    0    0 -0.71455585713E+01 -0.13635601431E+01 -0.77950205812E+00  0.73161415568E+01  0.51100000000E-03 0. -1.
        -11    1    3    3    0    0 -0.31417404421E+02  0.33493915250E+01  0.18309279136E+02  0.36517138811E+02  0.51100000000E-03 0.  1.
         12    1    3    3    0    0  0.79734065376E+00  0.14997416788E+01  0.35706381577E+01  0.39540402216E+01  0.00000000000E+00 0. -1.
</event>
<event>
 7    1  0.1736465E-010  0.4778727E+02  0.7816164E-02  0.1312668E+00
        -11   -1    0    0    0    0  0.00000000000E+00  0.00000000000E+00  0.45593999997E+02  0.45594000000E+02  0.51100000000E-03 0.  1.
         11   -1    0    0    0    0 -0.00000000000E+00 -0.00000000000E+00 -0.45593999997E+02  0.45594000000E+02  0.51100000000E-03 0. -1.
    9900012    2    1    2    0    0  0.14755108143E+02  0.39258458738E+02  0.11166184120E+02  0.47787268823E+02  0.19999989874E+02 0.  0.
         12    1    1    2    0    0 -0.14755108143E+02 -0.39258458738E+02 -0.11166184120E+02  0.43400731177E+02  0.00000000000E+00 0. -1.
         11    1    3    3    0    0  0.11964785455E+01 -0.11654070370E+01  0.24742749312E+01  0.29852589784E+01  0.51100000000E-03 0. -1.
        -11    1    3    3    0    0  0.11297070203E+02  0.16961095300E+02  0.41114735592E+01  0.20789583066E+02  0.51100000000E-03 0.  1.
        -12    1    3    3    0    0  0.22615593944E+01  0.23462770475E+02  0.45804356300E+01  0.24012426779E+02  0.00000000000E+00 0.  1.
</event>
<event>
 7    1  0.1736465E-010  0.4778727E+02  0.7816164E-02  0.1312668E+00
        -11   -1    0    0    0    0  0.00000000000E+00  0.00000000000E+00  0.45593999997E+02  0.45594000000E+02  0.51100000000E-03 0.  1.
         11   -1    0    0    0    0 -0.00000000000E+00 -0.00000000000E+00 -0.45593999997E+02  0.45594000000E+02  0.51100000000E-03 0. -1.
    9900012    2    1    2    0    0 -0.12169184196E+02 -0.25995372448E+02  0.32554182280E+02  0.47787271704E+02  0.20000003008E+02 0.  0.
         12    1    1    2    0    0  0.12169184196E+02  0.25995372448E+02 -0.32554182280E+02  0.43400728296E+02  0.00000000000E+00 0. -1.
         11    1    3    3    0    0 -0.14394150728E+01 -0.43594120147E+01  0.74274541253E+01  0.87317503349E+01  0.51100000000E-03 0. -1.
        -11    1    3    3    0    0 -0.12084278477E+02 -0.10427247037E+02  0.22288236859E+02  0.27413915620E+02  0.51100000000E-03 0.  1.
         12    1    3    3    0    0  0.13545093540E+01 -0.11208713396E+02  0.28384912958E+01  0.11641605750E+02  0.00000000000E+00 0. -1.
</event>
<event>
 7    1  0.1736465E-010  0.4778727E+02  0.7816164E-02  0.1312668E+00
        -11   -1    0    0    0    0  0.00000000000E+00  0.00000000000E+00  0.45593999997E+02  0.45594000000E+02  0.51100000000E-03 0. -1.
         11   -1    0    0    0    0 -0.00000000000E+00 -0.00000000000E+00 -0.45593999997E+02  0.45594000000E+02  0.51100000000E-03 0.  1.
    9900012    2    1    2    0    0 -0.77706771084E+01  0.28530069731E+02 -0.31769089938E+02  0.47787269856E+02  0.19999994580E+02 0.  0.
         12    1    1    2    0    0  0.77706771084E+01 -0.28530069731E+02  0.31769089938E+02  0.43400730144E+02  0.00000000000E+00 0. -1.
         11    1    3    3    0    0 -0.13570796906E+02  0.14430795892E+02 -0.17410077612E+02  0.26372811786E+02  0.51100000000E-03 0. -1.
        -11    1    3    3    0    0  0.31499549430E+01  0.12187386367E+02 -0.11927325892E+02  0.17341156415E+02  0.51100000000E-03 0.  1.
         12    1    3    3    0    0  0.26501648549E+01  0.19118874720E+01 -0.24316864336E+01  0.40733016553E+01  0.00000000000E+00 0. -1.
</event>
<event>
 7    1  0.1736465E-010  0.4778727E+02  0.7816164E-02  0.1312668E+00
        -11   -1    0    0    0    0  0.00000000000E+00  0.00000000000E+00  0.45593999997E+02  0.45594000000E+02  0.51100000000E-03 0. -1.
         11   -1    0    0    0    0 -0.00000000000E+00 -0.00000000000E+00 -0.45593999997E+02  0.45594000000E+02  0.51100000000E-03 0.  1.
    9900012    2    1    2    0    0  0.38486453179E+02  0.35022637489E+00 -0.20057258963E+02  0.47787269892E+02  0.19999994744E+02 0.  0.
         12    1    1    2    0    0 -0.38486453179E+02 -0.35022637489E+00  0.20057258963E+02  0.43400730108E+02  0.00000000000E+00 0. -1.
         11    1    3    3    0    0  0.13922479341E+01  0.78357375417E+00  0.14942223383E+01  0.21874740674E+01  0.51100000000E-03 0. -1.
        -11    1    3    3    0    0  0.15077979376E+01  0.33286437906E+01 -0.49473081449E+01  0.61505432481E+01  0.51100000000E-03 0.  1.
         12    1    3    3    0    0  0.35586407307E+02 -0.37619911699E+01 -0.16604173156E+02  0.39449252576E+02  0.00000000000E+00 0. -1.
</event>
<event>
 7    1  0.1736465E-010  0.4778727E+02  0.7816164E-02  0.1312668E+00
        -11   -1    0    0    0    0  0.00000000000E+00  0.00000000000E+00  0.45593999997E+02  0.45594000000E+02  0.51100000000E-03 0. -1.
         11   -1    0    0    0    0 -0.00000000000E+00 -0.00000000000E+00 -0.45593999997E+02  0.45594000000E+02  0.51100000000E-03 0.  1.
    9900012    2    1    2    0    0  0.30283468687E+02 -0.29245639233E+02 -0.10546430176E+02  0.47787273285E+02  0.20000010218E+02 0.  0.
         12    1    1    2    0    0 -0.30283468687E+02  0.29245639233E+02  0.10546430176E+02  0.43400726715E+02  0.00000000000E+00 0. -1.
         11    1    3    3    0    0  0.56599670006E+01 -0.22449090906E+01 -0.80966595393E+01  0.10130683058E+02  0.51100000000E-03 0. -1.
        -11    1    3    3    0    0  0.29622159734E+01 -0.75826043147E+01  0.15659638521E+01  0.82899248919E+01  0.51100000000E-03 0.  1.
        -12    1    3    3    0    0  0.21661285713E+02 -0.19418125828E+02 -0.40157344892E+01  0.29366665335E+02  0.00000000000E+00 0.  1.
</event>
<event>
 7    1  0.1736465E-010  0.4778727E+02  0.7816164E-02  0.1312668E+00
        -11   -1    0    0    0    0  0.00000000000E+00  0.00000000000E+00  0.45593999997E+02  0.45594000000E+02  0.51100000000E-03 0.  1.
         11   -1    0    0    0    0 -0.00000000000E+00 -0.00000000000E+00 -0.45593999997E+02  0.45594000000E+02  0.51100000000E-03 0. -1.
    9900012    2    1    2    0    0  0.27565610274E+02  0.25819618983E+02  0.21380070085E+02  0.47787274303E+02  0.20000014855E+02 0.  0.
         12    1    1    2    0    0 -0.27565610274E+02 -0.25819618983E+02 -0.21380070085E+02  0.43400725697E+02  0.00000000000E+00 0. -1.
         11    1    3    3    0    0  0.31099160891E+01  0.59344292717E+01  0.11265146802E+02  0.13106966147E+02  0.51100000000E-03 0. -1.
        -11    1    3    3    0    0  0.43362169965E+01  0.92039934155E+00 -0.15157717410E+01  0.46848134456E+01  0.51100000000E-03 0.  1.
        -12    1    3    3    0    0  0.20119477189E+02  0.18964790370E+02  0.11630695024E+02  0.29995494709E+02  0.00000000000E+00 0.  1.
</event>
<event>
 7    1  0.1736465E-010  0.4778727E+02  0.7816164E-02  0.1312668E+00
        -11   -1    0    0    0    0  0.00000000000E+00  0.00000000000E+00  0.45593999997E+02  0.45594000000E+02  0.51100000000E-03 0.  1.
         11   -1    0    0    0    0 -0.00000000000E+00 -0.00000000000E+00 -0.45593999997E+02  0.45594000000E+02  0.51100000000E-03 0. -1.
    9900012    2    1    2    0    0 -0.27911401088E+02 -0.11241288907E+02  0.31276358073E+02  0.47787268885E+02  0.19999990155E+02 0.  0.
         12    1    1    2    0    0  0.27911401088E+02  0.11241288907E+02 -0.31276358073E+02  0.43400731115E+02  0.00000000000E+00 0. -1.
         11    1    3    3    0    0 -0.28360787129E+02 -0.96410549983E+01  0.30455334135E+02  0.42717813212E+02  0.51100000000E-03 0. -1.
        -11    1    3    3    0    0  0.12700237064E+01 -0.24488492571E+00  0.24665629008E+01  0.27851142968E+01  0.51100000000E-03 0.  1.
         12    1    3    3    0    0 -0.82063766506E+00 -0.13553489831E+01 -0.16455389631E+01  0.22843413760E+01  0.00000000000E+00 0. -1.
</event>
<event>
 7    1  0.1736465E-010  0.4778727E+02  0.7816164E-02  0.1312668E+00
        -11   -1    0    0    0    0  0.00000000000E+00  0.00000000000E+00  0.45593999997E+02  0.45594000000E+02  0.51100000000E-03 0.  1.
         11   -1    0    0    0    0 -0.00000000000E+00 -0.00000000000E+00 -0.45593999997E+02  0.45594000000E+02  0.51100000000E-03 0. -1.
    9900012    2    1    2    0    0  0.19379089500E+02  0.10224076835E+02  0.37463882936E+02  0.47787269803E+02  0.19999994340E+02 0.  0.
         12    1    1    2    0    0 -0.19379089500E+02 -0.10224076835E+02 -0.37463882936E+02  0.43400730197E+02  0.00000000000E+00 0. -1.
         11    1    3    3    0    0  0.11550180613E+02  0.43713925546E+01  0.12495313158E+02  0.17568397657E+02  0.51100000000E-03 0. -1.
        -11    1    3    3    0    0  0.53791073616E+01 -0.29517249864E+01  0.17071545893E+02  0.18140704392E+02  0.51100000000E-03 0.  1.
         12    1    3    3    0    0  0.24498015258E+01  0.88044092668E+01  0.78970238851E+01  0.12078167754E+02  0.00000000000E+00 0. -1.
</event>
<event>
 7    1  0.1736465E-010  0.4778727E+02  0.7816164E-02  0.1312668E+00
        -11   -1    0    0    0    0  0.00000000000E+00  0.00000000000E+00  0.45593999997E+02  0.45594000000E+02  0.51100000000E-03 0.  1.
         11   -1    0    0    0    0 -0.00000000000E+00 -0.00000000000E+00 -0.45593999997E+02  0.45594000000E+02  0.51100000000E-03 0. -1.
    9900012    2    1    2    0    0  0.26498604172E+02 -0.20454775122E+02  0.27623352586E+02  0.47787268941E+02  0.19999990409E+02 0.  0.
         12    1    1    2    0    0 -0.26498604172E+02  0.20454775122E+02 -0.27623352586E+02  0.43400731059E+02  0.00000000000E+00 0. -1.
         11    1    3    3    0    0  0.15002865416E+01  0.35634956429E+01  0.12672589886E+01  0.40688212678E+01  0.51100000000E-03 0. -1.
        -11    1    3    3    0    0  0.73369518201E+01 -0.76660117916E+01  0.59646138941E+01  0.12172724344E+02  0.51100000000E-03 0.  1.
         12    1    3    3    0    0  0.17661365811E+02 -0.16352258973E+02  0.20391479704E+02  0.31545723329E+02  0.00000000000E+00 0. -1.
</event>
<event>
 7    1  0.1736465E-010  0.4778727E+02  0.7816164E-02  0.1312668E+00
        -11   -1    0    0    0    0  0.00000000000E+00  0.00000000000E+00  0.45593999997E+02  0.45594000000E+02  0.51100000000E-03 0.  1.
         11   -1    0    0    0    0 -0.00000000000E+00 -0.00000000000E+00 -0.45593999997E+02  0.45594000000E+02  0.51100000000E-03 0. -1.
    9900012    2    1    2    0    0 -0.30860337901E+02  0.26450273933E+02  0.15219910151E+02  0.47787272915E+02  0.20000008530E+02 0.  0.
         12    1    1    2    0    0  0.30860337901E+02 -0.26450273933E+02 -0.15219910151E+02  0.43400727085E+02  0.00000000000E+00 0. -1.
         11    1    3    3    0    0 -0.82479906510E+00  0.14768961910E+01 -0.40983284709E+00  0.17405398819E+01  0.51100000000E-03 0. -1.
        -11    1    3    3    0    0 -0.10074959323E+02 -0.11075099394E+01  0.13169225406E+01  0.10220844821E+02  0.51100000000E-03 0.  1.
        -12    1    3    3    0    0 -0.19960579513E+02  0.26080887681E+02  0.14312820457E+02  0.35825888212E+02  0.00000000000E+00 0.  1.
</event>
<event>
 7    1  0.1736465E-010  0.4778727E+02  0.7816164E-02  0.1312668E+00
        -11   -1    0    0    0    0  0.00000000000E+00  0.00000000000E+00  0.45593999997E+02  0.45594000000E+02  0.51100000000E-03 0. -1.
         11   -1    0    0    0    0 -0.00000000000E+00 -0.00000000000E+00 -0.45593999997E+02  0.45594000000E+02  0.51100000000E-03 0.  1.
    9900012    2    1    2    0    0  0.39564422218E+02  0.16106962610E+02  0.76711090186E+01  0.47787266555E+02  0.19999979533E+02 0.  0.
         12    1    1    2    0    0 -0.39564422218E+02 -0.16106962610E+02 -0.76711090186E+01  0.43400733445E+02  0.00000000000E+00 0. -1.
         11    1    3    3    0    0  0.22188481541E+02  0.13449958972E+02  0.10449678536E+02  0.27971876791E+02  0.51100000000E-03 0. -1.
        -11    1    3    3    0    0  0.12547979115E+02  0.76332295623E-01  0.18026048198E+01  0.12677026106E+02  0.51100000000E-03 0.  1.
        -12    1    3    3    0    0  0.48279615618E+01  0.25806713418E+01 -0.45811743369E+01  0.71383636586E+01  0.00000000000E+00 0.  1.
</event>
<event>
 7    1  0.1736465E-010  0.4778727E+02  0.7816164E-02  0.1312668E+00
        -11   -1    0    0    0    0  0.00000000000E+00  0.00000000000E+00  0.45593999997E+02  0.45594000000E+02  0.51100000000E-03 0.  1.
         11   -1    0    0    0    0 -0.00000000000E+00 -0.00000000000E+00 -0.45593999997E+02  0.45594000000E+02  0.51100000000E-03 0. -1.
    9900012    2    1    2    0    0  0.25547277943E+01 -0.16399497886E+02  0.40101782081E+02  0.47787273150E+02  0.20000009600E+02 0.  0.
         12    1    1    2    0    0 -0.25547277943E+01  0.16399497886E+02 -0.40101782081E+02  0.43400726850E+02  0.00000000000E+00 0. -1.
         11    1    3    3    0    0 -0.11359809049E+01 -0.80452763406E+01  0.10104459282E+02  0.12965994819E+02  0.51100000000E-03 0.  1.
        -11    1    3    3    0    0  0.95429263635E+01 -0.38591842224E+01  0.18041318399E+02  0.20771372518E+02  0.51100000000E-03 0. -1.
         12    1    3    3    0    0 -0.58522176643E+01 -0.44950373233E+01  0.11956004400E+02  0.14049905813E+02  0.00000000000E+00 0. -1.
</event>
<event>
 7    1  0.1736465E-010  0.4778727E+02  0.7816164E-02  0.1312668E+00
        -11   -1    0    0    0    0  0.00000000000E+00  0.00000000000E+00  0.45593999997E+02  0.45594000000E+02  0.51100000000E-03 0. -1.
         11   -1    0    0    0    0 -0.00000000000E+00 -0.00000000000E+00 -0.45593999997E+02  0.45594000000E+02  0.51100000000E-03 0.  1.
    9900012    2    1    2    0    0  0.14383042976E+02 -0.40850513433E+02 -0.28262028702E+01  0.47787265033E+02  0.19999972593E+02 0.  0.
         12    1    1    2    0    0 -0.14383042976E+02  0.40850513433E+02  0.28262028702E+01  0.43400734967E+02  0.00000000000E+00 0. -1.
         11    1    3    3    0    0 -0.59721903769E+00 -0.70098766435E+01 -0.70459149285E+01  0.99569050702E+01  0.51100000000E-03 0. -1.
        -11    1    3    3    0    0  0.28011710178E+01 -0.13383410895E+02  0.29522045405E+01  0.13988486629E+02  0.51100000000E-03 0.  1.
        -12    1    3    3    0    0  0.12179090996E+02 -0.20457225895E+02  0.12675075178E+01  0.23841873335E+02  0.00000000000E+00 0.  1.
</event>
<event>
 7    1  0.1736465E-010  0.4778727E+02  0.7816164E-02  0.1312668E+00
        -11   -1    0    0    0    0  0.00000000000E+00  0.00000000000E+00  0.45593999997E+02  0.45594000000E+02  0.51100000000E-03 0.  1.
         11   -1    0    0    0    0 -0.00000000000E+00 -0.00000000000E+00 -0.45593999997E+02  0.45594000000E+02  0.51100000000E-03 0. -1.
    9900012    2    1    2    0    0  0.29403549230E+02 -0.18402897412E+02  0.26084254441E+02  0.47787266479E+02  0.19999979182E+02 0.  0.
         12    1    1    2    0    0 -0.29403549230E+02  0.18402897412E+02 -0.26084254441E+02  0.43400733521E+02  0.00000000000E+00 0. -1.
         11    1    3    3    0    0  0.23975157741E+02 -0.70793638293E+01  0.12982624140E+02  0.28168672506E+02  0.51100000000E-03 0. -1.
        -11    1    3    3    0    0  0.52651987337E+01 -0.48475383342E+01  0.10342829811E+02  0.12577562338E+02  0.51100000000E-03 0.  1.
        -12    1    3    3    0    0  0.16319275535E+00 -0.64759952487E+01  0.27588004893E+01  0.70410316344E+01  0.00000000000E+00 0.  1.
</event>
<event>
 7    1  0.1736465E-010  0.4778728E+02  0.7816164E-02  0.1312668E+00
        -11   -1    0    0    0    0  0.00000000000E+00  0.00000000000E+00  0.45593999997E+02  0.45594000000E+02  0.51100000000E-03 0. -1.
         11   -1    0    0    0    0 -0.00000000000E+00 -0.00000000000E+00 -0.45593999997E+02  0.45594000000E+02  0.51100000000E-03 0.  1.
    9900012    2    1    2    0    0  0.28202882000E+02  0.19568791429E+02 -0.26557159223E+02  0.47787275846E+02  0.20000021891E+02 0.  0.
         12    1    1    2    0    0 -0.28202882000E+02 -0.19568791429E+02  0.26557159223E+02  0.43400724154E+02  0.00000000000E+00 0. -1.
         11    1    3    3    0    0  0.94473392484E+01  0.23214638152E+01 -0.18552781492E+02  0.20948678108E+02  0.51100000000E-03 0. -1.
        -11    1    3    3    0    0  0.65414769771E+01  0.43876262553E+01 -0.22226103776E+01  0.81842643133E+01  0.51100000000E-03 0.  1.
         12    1    3    3    0    0  0.12214065774E+02  0.12859701359E+02 -0.57817673539E+01  0.18654333424E+02  0.00000000000E+00 0. -1.
</event>
<event>
 7    1  0.1736465E-010  0.4778728E+02  0.7816164E-02  0.1312668E+00
        -11   -1    0    0    0    0  0.00000000000E+00  0.00000000000E+00  0.45593999997E+02  0.45594000000E+02  0.51100000000E-03 0.  1.
         11   -1    0    0    0    0 -0.00000000000E+00 -0.00000000000E+00 -0.45593999997E+02  0.45594000000E+02  0.51100000000E-03 0. -1.
    9900012    2    1    2    0    0 -0.13655954038E+02 -0.20131803193E+01  0.41147107041E+02  0.47787281186E+02  0.20000046241E+02 0.  0.
         12    1    1    2    0    0  0.13655954038E+02  0.20131803193E+01 -0.41147107041E+02  0.43400718814E+02  0.00000000000E+00 0. -1.
         11    1    3    3    0    0 -0.17338619904E+01  0.20354078081E+01 -0.10158952491E+01  0.28602807144E+01  0.51100000000E-03 0. -1.
        -11    1    3    3    0    0 -0.25803810702E+01 -0.31379053270E+01  0.25332774401E+02  0.25656466542E+02  0.51100000000E-03 0.  1.
        -12    1    3    3    0    0 -0.93417109770E+01 -0.91068280030E+00  0.16830227889E+02  0.19270533930E+02  0.00000000000E+00 0.  1.
</event>
<event>
 7    1  0.1736465E-010  0.4778727E+02  0.7816164E-02  0.1312668E+00
        -11   -1    0    0    0    0  0.00000000000E+00  0.00000000000E+00  0.45593999997E+02  0.45594000000E+02  0.51100000000E-03 0. -1.
         11   -1    0    0    0    0 -0.00000000000E+00 -0.00000000000E+00 -0.45593999997E+02  0.45594000000E+02  0.51100000000E-03 0.  1.
    9900012    2    1    2    0    0  0.19013497704E+02 -0.88597906787E+01 -0.37994925582E+02  0.47787270100E+02  0.19999995696E+02 0.  0.
         12    1    1    2    0    0 -0.19013497704E+02  0.88597906787E+01  0.37994925582E+02  0.43400729900E+02  0.00000000000E+00 0. -1.
         11    1    3    3    0    0  0.48638324363E+01 -0.60366651029E+01 -0.23196679782E+01  0.80919127110E+01  0.51100000000E-03 0. -1.
        -11    1    3    3    0    0  0.11171255426E+02 -0.54819680488E+01 -0.20302609819E+02  0.23812704323E+02  0.51100000000E-03 0.  1.
         12    1    3    3    0    0  0.29784098416E+01  0.26588424730E+01 -0.15372647786E+02  0.15882653066E+02  0.00000000000E+00 0. -1.
</event>
<event>
 7    1  0.1736465E-010  0.4778727E+02  0.7816164E-02  0.1312668E+00
        -11   -1    0    0    0    0  0.00000000000E+00  0.00000000000E+00  0.45593999997E+02  0.45594000000E+02  0.51100000000E-03 0.  1.
         11   -1    0    0    0    0 -0.00000000000E+00 -0.00000000000E+00 -0.45593999997E+02  0.45594000000E+02  0.51100000000E-03 0. -1.
    9900012    2    1    2    0    0  0.35287892782E+02 -0.13670562343E+02  0.21248615563E+02  0.47787270570E+02  0.19999997835E+02 0.  0.
         12    1    1    2    0    0 -0.35287892782E+02  0.13670562343E+02 -0.21248615563E+02  0.43400729430E+02  0.00000000000E+00 0. -1.
         11    1    3    3    0    0  0.48961991031E+01  0.51259017107E+00 -0.46946966612E+00  0.49452923442E+01  0.51100000000E-03 0. -1.
        -11    1    3    3    0    0  0.23563175855E+02 -0.83726620358E+01  0.22762820826E+02  0.33815244169E+02  0.51100000000E-03 0.  1.
        -12    1    3    3    0    0  0.68285178232E+01 -0.58104904785E+01 -0.10447355970E+01  0.90267340567E+01  0.00000000000E+00 0.  1.
</event>
<event>
 7    1  0.1736465E-010  0.4778727E+02  0.7816164E-02  0.1312668E+00
        -11   -1    0    0    0    0  0.00000000000E+00  0.00000000000E+00  0.45593999997E+02  0.45594000000E+02  0.51100000000E-03 0.  1.
         11   -1    0    0    0    0 -0.00000000000E+00 -0.00000000000E+00 -0.45593999997E+02  0.45594000000E+02  0.51100000000E-03 0. -1.
    9900012    2    1    2    0    0  0.23079240496E+02  0.25942767696E+02 -0.26037367569E+02  0.47787273652E+02  0.20000011888E+02 0.  0.
         12    1    1    2    0    0 -0.23079240496E+02 -0.25942767696E+02  0.26037367569E+02  0.43400726348E+02  0.00000000000E+00 0. -1.
         11    1    3    3    0    0  0.15815511693E+02  0.15570628256E+02 -0.16362770389E+02  0.27573812385E+02  0.51100000000E-03 0. -1.
        -11    1    3    3    0    0  0.84828828211E+01  0.12855555337E+01 -0.46425950478E+01  0.97552879519E+01  0.51100000000E-03 0.  1.
         12    1    3    3    0    0 -0.12191540182E+01  0.90865839069E+01 -0.50320021323E+01  0.10458173315E+02  0.00000000000E+00 0. -1.
</event>
<event>
 7    1  0.1736465E-010  0.4778727E+02  0.7816164E-02  0.1312668E+00
        -11   -1    0    0    0    0  0.00000000000E+00  0.00000000000E+00  0.45593999997E+02  0.45594000000E+02  0.51100000000E-03 0.  1.
         11   -1    0    0    0    0 -0.00000000000E+00 -0.00000000000E+00 -0.45593999997E+02  0.45594000000E+02  0.51100000000E-03 0. -1.
    9900012    2    1    2    0    0  0.21847262979E+02 -0.37423038751E+02  0.24159676784E+01  0.47787266955E+02  0.19999981355E+02 0.  0.
         12    1    1    2    0    0 -0.21847262979E+02  0.37423038751E+02 -0.24159676784E+01  0.43400733045E+02  0.00000000000E+00 0. -1.
         11    1    3    3    0    0  0.45516134844E+01 -0.20577213874E+02 -0.56667776644E+01  0.21823182295E+02  0.51100000000E-03 0. -1.
        -11    1    3    3    0    0  0.26254038748E+00 -0.28374293524E+00 -0.56228786538E+00  0.68235285082E+00  0.51100000000E-03 0.  1.
        -12    1    3    3    0    0  0.17033109107E+02 -0.16562081942E+02  0.86450332082E+01  0.25281731809E+02  0.00000000000E+00 0.  1.
</event>
<event>
 7    1  0.1736465E-010  0.4778727E+02  0.7816164E-02  0.1312668E+00
        -11   -1    0    0    0    0  0.00000000000E+00  0.00000000000E+00  0.45593999997E+02  0.45594000000E+02  0.51100000000E-03 0.  1.
         11   -1    0    0    0    0 -0.00000000000E+00 -0.00000000000E+00 -0.45593999997E+02  0.45594000000E+02  0.51100000000E-03 0. -1.
    9900012    2    1    2    0    0  0.23746078120E+02 -0.28142906760E+02  0.22972238421E+02  0.47787272298E+02  0.20000005714E+02 0.  0.
         12    1    1    2    0    0 -0.23746078120E+02  0.28142906760E+02 -0.22972238421E+02  0.43400727702E+02  0.00000000000E+00 0. -1.
         11    1    3    3    0    0 -0.27905120647E+01 -0.26106767802E+01  0.27109729905E+01  0.46852924829E+01  0.51100000000E-03 0. -1.
        -11    1    3    3    0    0  0.12532857424E+02 -0.10820724754E+02  0.38749890274E+01  0.17005179788E+02  0.51100000000E-03 0.  1.
        -12    1    3    3    0    0  0.14003732761E+02 -0.14711505226E+02  0.16386276403E+02  0.26096800027E+02  0.00000000000E+00 0.  1.
</event>
<event>
 7    1  0.1736465E-010  0.4778729E+02  0.7816164E-02  0.1312668E+00
        -11   -1    0    0    0    0  0.00000000000E+00  0.00000000000E+00  0.45593999997E+02  0.45594000000E+02  0.51100000000E-03 0.  1.
         11   -1    0    0    0    0 -0.00000000000E+00 -0.00000000000E+00 -0.45593999997E+02  0.45594000000E+02  0.51100000000E-03 0. -1.
    9900012    2    1    2    0    0 -0.42809540243E+02 -0.25727316671E+01  0.66592751749E+01  0.47787289984E+02  0.20000086354E+02 0.  0.
         12    1    1    2    0    0  0.42809540243E+02  0.25727316671E+01 -0.66592751749E+01  0.43400710016E+02  0.00000000000E+00 0. -1.
         11    1    3    3    0    0 -0.56156200233E+01 -0.40495723601E+01 -0.36274858015E+01  0.78161933220E+01  0.51100000000E-03 0. -1.
        -11    1    3    3    0    0 -0.19931603369E+02  0.31421853367E+01  0.77770058866E+00  0.20192745233E+02  0.51100000000E-03 0.  1.
        -12    1    3    3    0    0 -0.17262316850E+02 -0.16653446436E+01  0.95090603877E+01  0.19778351429E+02  0.00000000000E+00 0.  1.
</event>
<event>
 7    1  0.1736465E-010  0.4778728E+02  0.7816164E-02  0.1312668E+00
        -11   -1    0    0    0    0  0.00000000000E+00  0.00000000000E+00  0.45593999997E+02  0.45594000000E+02  0.51100000000E-03 0. -1.
         11   -1    0    0    0    0 -0.00000000000E+00 -0.00000000000E+00 -0.45593999997E+02  0.45594000000E+02  0.51100000000E-03 0.  1.
    9900012    2    1    2    0    0  0.39649064549E+02  0.14580394503E+02 -0.99491999427E+01  0.47787276470E+02  0.20000024736E+02 0.  0.
         12    1    1    2    0    0 -0.39649064549E+02 -0.14580394503E+02  0.99491999427E+01  0.43400723530E+02  0.00000000000E+00 0. -1.
         11    1    3    3    0    0  0.24567598985E+02  0.52473749047E+01 -0.41204911132E+01  0.25457421522E+02  0.51100000000E-03 0. -1.
        -11    1    3    3    0    0  0.14126975073E+02  0.51052090079E+01 -0.84795440966E+01  0.17249268161E+02  0.51100000000E-03 0.  1.
         12    1    3    3    0    0  0.95449049073E+00  0.42278105906E+01  0.26508352672E+01  0.50805867870E+01  0.00000000000E+00 0. -1.
</event>
<event>
 7    1  0.1736465E-010  0.4778727E+02  0.7816164E-02  0.1312668E+00
        -11   -1    0    0    0    0  0.00000000000E+00  0.00000000000E+00  0.45593999997E+02  0.45594000000E+02  0.51100000000E-03 0.  1.
         11   -1    0    0    0    0 -0.00000000000E+00 -0.00000000000E+00 -0.45593999997E+02  0.45594000000E+02  0.51100000000E-03 0. -1.
    9900012    2    1    2    0    0  0.37799157263E+02 -0.41328136129E+01  0.20922876815E+02  0.47787271753E+02  0.20000003230E+02 0.  0.
         12    1    1    2    0    0 -0.37799157263E+02  0.41328136129E+01 -0.20922876815E+02  0.43400728247E+02  0.00000000000E+00 0. -1.
         11    1    3    3    0    0  0.22300848787E+02  0.54480392205E+01  0.50426640688E+01  0.23503987941E+02  0.51100000000E-03 0. -1.
        -11    1    3    3    0    0  0.96905047723E+01 -0.48464848060E+01  0.10199693670E+02  0.14880458627E+02  0.51100000000E-03 0.  1.
         12    1    3    3    0    0  0.58078037036E+01 -0.47343680273E+01  0.56805190765E+01  0.94028251848E+01  0.00000000000E+00 0. -1.
</event>
<event>
 7    1  0.1736465E-010  0.4778726E+02  0.7816164E-02  0.1312668E+00
        -11   -1    0    0    0    0  0.00000000000E+00  0.00000000000E+00  0.45593999997E+02  0.45594000000E+02  0.51100000000E-03 0.  1.
         11   -1    0    0    0    0 -0.00000000000E+00 -0.00000000000E+00 -0.45593999997E+02  0.45594000000E+02  0.51100000000E-03 0. -1.
    9900012    2    1    2    0    0 -0.20378413914E+02  0.36895980059E+02  0.10345572024E+02  0.47787263155E+02  0.19999964029E+02 0.  0.
         12    1    1    2    0    0  0.20378413914E+02 -0.36895980059E+02 -0.10345572024E+02  0.43400736845E+02  0.00000000000E+00 0. -1.
         11    1    3    3    0    0 -0.14149656113E-01  0.69108778052E+01  0.36670726383E+01  0.78235448645E+01  0.51100000000E-03 0. -1.
        -11    1    3    3    0    0 -0.19842187131E+02  0.16261882357E+02  0.38428136124E+01  0.25940863992E+02  0.51100000000E-03 0.  1.
        -12    1    3    3    0    0 -0.52207712715E+00  0.13723219897E+02  0.28356857730E+01  0.14022854299E+02  0.00000000000E+00 0.  1.
</event>
<event>
 7    1  0.1736465E-010  0.4778725E+02  0.7816164E-02  0.1312668E+00
        -11   -1    0    0    0    0  0.00000000000E+00  0.00000000000E+00  0.45593999997E+02  0.45594000000E+02  0.51100000000E-03 0. -1.
         11   -1    0    0    0    0 -0.00000000000E+00 -0.00000000000E+00 -0.45593999997E+02  0.45594000000E+02  0.51100000000E-03 0.  1.
    9900012    2    1    2    0    0  0.18101992300E+02  0.38952024199E+02  0.62195317334E+01  0.47787252432E+02  0.19999915138E+02 0.  0.
         12    1    1    2    0    0 -0.18101992300E+02 -0.38952024199E+02 -0.62195317334E+01  0.43400747568E+02  0.00000000000E+00 0. -1.
         11    1    3    3    0    0  0.78102521494E+01  0.18558394031E+02 -0.33799835727E+01  0.20416618644E+02  0.51100000000E-03 0. -1.
        -11    1    3    3    0    0 -0.12558488486E+01  0.89012376647E+01  0.56141465023E+01  0.10598482415E+02  0.51100000000E-03 0.  1.
         12    1    3    3    0    0  0.11547589000E+02  0.11492392504E+02  0.39853688038E+01  0.16772151372E+02  0.00000000000E+00 0. -1.
</event>
<event>
 7    1  0.1736465E-010  0.4778727E+02  0.7816164E-02  0.1312668E+00
        -11   -1    0    0    0    0  0.00000000000E+00  0.00000000000E+00  0.45593999997E+02  0.45594000000E+02  0.51100000000E-03 0.  1.
         11   -1    0    0    0    0 -0.00000000000E+00 -0.00000000000E+00 -0.45593999997E+02  0.45594000000E+02  0.51100000000E-03 0. -1.
    9900012    2    1    2    0    0 -0.29884398914E+02 -0.60758176784E+01  0.30880904458E+02  0.47787272828E+02  0.20000008133E+02 0.  0.
         12    1    1    2    0    0  0.29884398914E+02  0.60758176784E+01 -0.30880904458E+02  0.43400727172E+02  0.00000000000E+00 0. -1.
         11    1    3    3    0    0 -0.10351267243E+02 -0.53007084150E+01  0.23160198953E+01  0.11857916834E+02  0.51100000000E-03 0. -1.
        -11    1    3    3    0    0 -0.44676619142E+01 -0.26469254274E+01  0.24947063438E+01  0.57610569517E+01  0.51100000000E-03 0.  1.
        -12    1    3    3    0    0 -0.15065469757E+02  0.18718161639E+01  0.26070178218E+02  0.30168299042E+02  0.00000000000E+00 0.  1.
</event>
<event>
 7    1  0.1736465E-010  0.4778728E+02  0.7816164E-02  0.1312668E+00
        -11   -1    0    0    0    0  0.00000000000E+00  0.00000000000E+00  0.45593999997E+02  0.45594000000E+02  0.51100000000E-03 0. -1.
         11   -1    0    0    0    0 -0.00000000000E+00 -0.00000000000E+00 -0.45593999997E+02  0.45594000000E+02  0.51100000000E-03 0.  1.
    9900012    2    1    2    0    0 -0.56149961601E+01 -0.37311559816E+02 -0.21446249474E+02  0.47787282330E+02  0.20000051456E+02 0.  0.
         12    1    1    2    0    0  0.56149961601E+01  0.37311559816E+02  0.21446249474E+02  0.43400717670E+02  0.00000000000E+00 0. -1.
         11    1    3    3    0    0 -0.46124873225E+00 -0.60372588057E+01 -0.22788390255E+01  0.64694939404E+01  0.51100000000E-03 0. -1.
        -11    1    3    3    0    0  0.61592385358E+01 -0.18441915666E+02 -0.11298115402E+02  0.22487505079E+02  0.51100000000E-03 0.  1.
         12    1    3    3    0    0 -0.11312985964E+02 -0.12832385344E+02 -0.78692950466E+01  0.18830283311E+02  0.00000000000E+00 0. -1.
</event>
<event>
 7    1  0.1736465E-010  0.4778727E+02  0.7816164E-02  0.1312668E+00
        -11   -1    0    0    0    0  0.00000000000E+00  0.00000000000E+00  0.45593999997E+02  0.45594000000E+02  0.51100000000E-03 0.  1.
         11   -1    0    0    0    0 -0.00000000000E+00 -0.00000000000E+00 -0.45593999997E+02  0.45594000000E+02  0.51100000000E-03 0. -1.
    9900012    2    1    2    0    0 -0.56428289296E+01  0.35600571818E+02  0.24173975301E+02  0.47787270583E+02  0.19999997894E+02 0.  0.
         12    1    1    2    0    0  0.56428289296E+01 -0.35600571818E+02 -0.24173975301E+02  0.43400729417E+02  0.00000000000E+00 0. -1.
         11    1    3    3    0    0 -0.16540473317E+01  0.72084432567E+01 -0.22613158218E+00  0.73992339140E+01  0.51100000000E-03 0. -1.
        -11    1    3    3    0    0  0.43969127380E+01  0.11905318800E+02  0.14970823663E+02  0.19626385779E+02  0.51100000000E-03 0.  1.
        -12    1    3    3    0    0 -0.83856943359E+01  0.16486809761E+02  0.94292832205E+01  0.20761650889E+02  0.00000000000E+00 0.  1.
</event>
<event>
 7    1  0.1736465E-010  0.4778727E+02  0.7816164E-02  0.1312668E+00
        -11   -1    0    0    0    0  0.00000000000E+00  0.00000000000E+00  0.45593999997E+02  0.45594000000E+02  0.51100000000E-03 0. -1.
         11   -1    0    0    0    0 -0.00000000000E+00 -0.00000000000E+00 -0.45593999997E+02  0.45594000000E+02  0.51100000000E-03 0.  1.
    9900012    2    1    2    0    0 -0.15374402883E+01  0.35579315578E+02 -0.24806687740E+02  0.47787272169E+02  0.20000005128E+02 0.  0.
         12    1    1    2    0    0  0.15374402883E+01 -0.35579315578E+02  0.24806687740E+02  0.43400727831E+02  0.00000000000E+00 0. -1.
         11    1    3    3    0    0 -0.24446937066E+01  0.54322608418E+01 -0.12235976368E+02  0.13609008161E+02  0.51100000000E-03 0. -1.
        -11    1    3    3    0    0  0.49718345715E+01  0.17827065552E+02 -0.96837591513E+01  0.20887761890E+02  0.51100000000E-03 0.  1.
        -12    1    3    3    0    0 -0.40645811532E+01  0.12319989184E+02 -0.28869522200E+01  0.13290502118E+02  0.00000000000E+00 0.  1.
</event>
<event>
 7    1  0.1736465E-010  0.4778733E+02  0.7816164E-02  0.1312667E+00
        -11   -1    0    0    0    0  0.00000000000E+00  0.00000000000E+00  0.45593999997E+02  0.45594000000E+02  0.51100000000E-03 0.  1.
         11   -1    0    0    0    0 -0.00000000000E+00 -0.00000000000E+00 -0.45593999997E+02  0.45594000000E+02  0.51100000000E-03 0. -1.
    9900012    2    1    2    0    0 -0.27855387456E+02 -0.16609698767E+02  0.28841174521E+02  0.47787331213E+02  0.20000274329E+02 0.  0.
         12    1    1    2    0    0  0.27855387456E+02  0.16609698767E+02 -0.28841174521E+02  0.43400668787E+02  0.00000000000E+00 0. -1.
         11    1    3    3    0    0  0.23302967260E+00 -0.15888899688E+01 -0.30936128323E+00  0.16354139616E+01  0.51100000000E-03 0. -1.
        -11    1    3    3    0    0 -0.28926230662E+02 -0.10072263040E+02  0.26351663589E+02  0.40405290213E+02  0.51100000000E-03 0.  1.
        -12    1    3    3    0    0  0.83781353295E+00 -0.49485457581E+01  0.27988722148E+01  0.57466270378E+01  0.00000000000E+00 0.  1.
</event>
<event>
 7    1  0.1736465E-010  0.4778728E+02  0.7816164E-02  0.1312668E+00
        -11   -1    0    0    0    0  0.00000000000E+00  0.00000000000E+00  0.45593999997E+02  0.45594000000E+02  0.51100000000E-03 0.  1.
         11   -1    0    0    0    0 -0.00000000000E+00 -0.00000000000E+00 -0.45593999997E+02  0.45594000000E+02  0.51100000000E-03 0. -1.
    9900012    2    1    2    0    0  0.66006739021E+01  0.34101745910E+02  0.26021624836E+02  0.47787275015E+02  0.20000018105E+02 0.  0.
         12    1    1    2    0    0 -0.66006739021E+01 -0.34101745910E+02 -0.26021624836E+02  0.43400724985E+02  0.00000000000E+00 0. -1.
         11    1    3    3    0    0  0.86061986185E+01  0.18063430830E+02  0.94453719658E+01  0.22126211602E+02  0.51100000000E-03 0.  1.
        -11    1    3    3    0    0  0.26138412483E+01  0.21495259054E+01 -0.20874931678E+00  0.33906052893E+01  0.51100000000E-03 0. -1.
        -12    1    3    3    0    0 -0.46193659648E+01  0.13888789175E+02  0.16785002187E+02  0.22270458124E+02  0.00000000000E+00 0.  1.
</event>
<event>
 7    1  0.1736465E-010  0.4778727E+02  0.7816164E-02  0.1312668E+00
        -11   -1    0    0    0    0  0.00000000000E+00  0.00000000000E+00  0.45593999997E+02  0.45594000000E+02  0.51100000000E-03 0.  1.
         11   -1    0    0    0    0 -0.00000000000E+00 -0.00000000000E+00 -0.45593999997E+02  0.45594000000E+02  0.51100000000E-03 0. -1.
    9900012    2    1    2    0    0 -0.18346276979E+02 -0.35342373289E+02  0.17261349611E+02  0.47787269371E+02  0.19999992370E+02 0.  0.
         12    1    1    2    0    0  0.18346276979E+02  0.35342373289E+02 -0.17261349611E+02  0.43400730629E+02  0.00000000000E+00 0. -1.
         11    1    3    3    0    0  0.11603260660E+01 -0.24004811162E+00 -0.22691641816E+01  0.25598996113E+01  0.51100000000E-03 0. -1.
        -11    1    3    3    0    0 -0.11974931423E+02 -0.16631134695E+02  0.12857274099E+02  0.24193038696E+02  0.51100000000E-03 0.  1.
        -12    1    3    3    0    0 -0.75316716220E+01 -0.18471190482E+02  0.66732396941E+01  0.21034331063E+02  0.00000000000E+00 0.  1.
</event>
<event>
 7    1  0.1736465E-010  0.4778727E+02  0.7816164E-02  0.1312668E+00
        -11   -1    0    0    0    0  0.00000000000E+00  0.00000000000E+00  0.45593999997E+02  0.45594000000E+02  0.51100000000E-03 0. -1.
         11   -1    0    0    0    0 -0.00000000000E+00 -0.00000000000E+00 -0.45593999997E+02  0.45594000000E+02  0.51100000000E-03 0.  1.
    9900012    2    1    2    0    0 -0.38582247579E+02 -0.95893030174E+01 -0.17409156624E+02  0.47787270801E+02  0.19999998892E+02 0.  0.
         12    1    1    2    0    0  0.38582247579E+02  0.95893030174E+01  0.17409156624E+02  0.43400729199E+02  0.00000000000E+00 0. -1.
         11    1    3    3    0    0 -0.96568006744E+01 -0.48732926494E+01 -0.23455060134E+01  0.11068160607E+02  0.51100000000E-03 0. -1.
        -11    1    3    3    0    0 -0.24773911954E+02 -0.37419526941E+01 -0.46723261555E+01  0.25486850638E+02  0.51100000000E-03 0.  1.
         12    1    3    3    0    0 -0.41515349507E+01 -0.97405767384E+00 -0.10391324455E+02  0.11232259556E+02  0.00000000000E+00 0. -1.
</event>
<event>
 7    1  0.1736465E-010  0.4778731E+02  0.7816164E-02  0.1312668E+00
        -11   -1    0    0    0    0  0.00000000000E+00  0.00000000000E+00  0.45593999997E+02  0.45594000000E+02  0.51100000000E-03 0. -1.
         11   -1    0    0    0    0 -0.00000000000E+00 -0.00000000000E+00 -0.45593999997E+02  0.45594000000E+02  0.51100000000E-03 0.  1.
    9900012    2    1    2    0    0 -0.26871931381E+02  0.29853859998E+01 -0.33950061194E+02  0.47787310134E+02  0.20000178226E+02 0.  0.
         12    1    1    2    0    0  0.26871931381E+02 -0.29853859998E+01  0.33950061194E+02  0.43400689866E+02  0.00000000000E+00 0. -1.
         11    1    3    3    0    0 -0.10949640207E+02 -0.81046145494E+01 -0.11627774251E+02  0.17910458731E+02  0.51100000000E-03 0. -1.
        -11    1    3    3    0    0 -0.21414554471E+01  0.32949486371E+01 -0.33311422924E+01  0.51516043313E+01  0.51100000000E-03 0.  1.
         12    1    3    3    0    0 -0.13780835727E+02  0.77950519120E+01 -0.18991144650E+02  0.24725247072E+02  0.00000000000E+00 0. -1.
</event>
<event>
 7    1  0.1736465E-010  0.4778727E+02  0.7816164E-02  0.1312668E+00
        -11   -1    0    0    0    0  0.00000000000E+00  0.00000000000E+00  0.45593999997E+02  0.45594000000E+02  0.51100000000E-03 0.  1.
         11   -1    0    0    0    0 -0.00000000000E+00 -0.00000000000E+00 -0.45593999997E+02  0.45594000000E+02  0.51100000000E-03 0. -1.
    9900012    2    1    2    0    0  0.16271690557E+02 -0.26205975631E+02  0.30530346027E+02  0.47787273037E+02  0.20000009087E+02 0.  0.
         12    1    1    2    0    0 -0.16271690557E+02  0.26205975631E+02 -0.30530346027E+02  0.43400726963E+02  0.00000000000E+00 0. -1.
         11    1    3    3    0    0  0.99803669592E+01 -0.10866540352E+02  0.14733115994E+02  0.20850758523E+02  0.51100000000E-03 0. -1.
        -11    1    3    3    0    0  0.70731116586E+00 -0.15532642475E+02  0.84199048662E+01  0.17682139847E+02  0.51100000000E-03 0.  1.
         12    1    3    3    0    0  0.55840124323E+01  0.19320719554E+00  0.73773251668E+01  0.92543746672E+01  0.00000000000E+00 0. -1.
</event>
<event>
 7    1  0.1736465E-010  0.4778727E+02  0.7816164E-02  0.1312668E+00
        -11   -1    0    0    0    0  0.00000000000E+00  0.00000000000E+00  0.45593999997E+02  0.45594000000E+02  0.51100000000E-03 0.  1.
         11   -1    0    0    0    0 -0.00000000000E+00 -0.00000000000E+00 -0.45593999997E+02  0.45594000000E+02  0.51100000000E-03 0. -1.
    9900012    2    1    2    0    0 -0.42162000415E+02 -0.85656169733E+01 -0.57113108947E+01  0.47787272526E+02  0.20000006754E+02 0.  0.
         12    1    1    2    0    0  0.42162000415E+02  0.85656169733E+01  0.57113108947E+01  0.43400727474E+02  0.00000000000E+00 0. -1.
         11    1    3    3    0    0 -0.54516696626E+00 -0.29284698918E+00  0.24300389751E+01  0.25075996614E+01  0.51100000000E-03 0. -1.
        -11    1    3    3    0    0 -0.24797678650E+02 -0.57276559877E+01 -0.11520615727E+02  0.27936633594E+02  0.51100000000E-03 0.  1.
         12    1    3    3    0    0 -0.16819154799E+02 -0.25451139965E+01  0.33792658575E+01  0.17343039270E+02  0.00000000000E+00 0. -1.
</event>
<event>
 7    1  0.1736465E-010  0.4778727E+02  0.7816164E-02  0.1312668E+00
        -11   -1    0    0    0    0  0.00000000000E+00  0.00000000000E+00  0.45593999997E+02  0.45594000000E+02  0.51100000000E-03 0.  1.
         11   -1    0    0    0    0 -0.00000000000E+00 -0.00000000000E+00 -0.45593999997E+02  0.45594000000E+02  0.51100000000E-03 0. -1.
    9900012    2    1    2    0    0 -0.36041778366E+02 -0.39958008249E+01  0.23846319240E+02  0.47787272433E+02  0.20000006332E+02 0.  0.
         12    1    1    2    0    0  0.36041778366E+02  0.39958008249E+01 -0.23846319240E+02  0.43400727567E+02  0.00000000000E+00 0. -1.
         11    1    3    3    0    0 -0.12463601066E+02 -0.25450370325E+01  0.16521801971E+01  0.12827636754E+02  0.51100000000E-03 0. -1.
        -11    1    3    3    0    0 -0.10721889032E+02 -0.58157243119E+00  0.18764546615E+01  0.10900376748E+02  0.51100000000E-03 0.  1.
         12    1    3    3    0    0 -0.12856288268E+02 -0.86919136122E+00  0.20317684381E+02  0.24059258930E+02  0.00000000000E+00 0. -1.
</event>
<event>
 7    1  0.1736465E-010  0.4778726E+02  0.7816164E-02  0.1312668E+00
        -11   -1    0    0    0    0  0.00000000000E+00  0.00000000000E+00  0.45593999997E+02  0.45594000000E+02  0.51100000000E-03 0.  1.
         11   -1    0    0    0    0 -0.00000000000E+00 -0.00000000000E+00 -0.45593999997E+02  0.45594000000E+02  0.51100000000E-03 0. -1.
    9900012    2    1    2    0    0  0.25241566328E+01  0.43063023214E+02  0.47779745754E+01  0.47787258346E+02  0.19999942103E+02 0.  0.
         12    1    1    2    0    0 -0.25241566328E+01 -0.43063023214E+02 -0.47779745754E+01  0.43400741654E+02  0.00000000000E+00 0. -1.
         11    1    3    3    0    0  0.32026504157E+01  0.22671897239E+02 -0.80923608569E+00  0.22911280134E+02  0.51100000000E-03 0. -1.
        -11    1    3    3    0    0  0.41952950082E+01  0.11706315991E+02  0.77933465749E+01  0.14675645996E+02  0.51100000000E-03 0.  1.
         12    1    3    3    0    0 -0.48737887910E+01  0.86848099842E+01 -0.22061359139E+01  0.10200332216E+02  0.00000000000E+00 0. -1.
</event>
<event>
 7    1  0.1736465E-010  0.4778727E+02  0.7816164E-02  0.1312668E+00
        -11   -1    0    0    0    0  0.00000000000E+00  0.00000000000E+00  0.45593999997E+02  0.45594000000E+02  0.51100000000E-03 0.  1.
         11   -1    0    0    0    0 -0.00000000000E+00 -0.00000000000E+00 -0.45593999997E+02  0.45594000000E+02  0.51100000000E-03 0. -1.
    9900012    2    1    2    0    0 -0.40135664583E+02 -0.16376955542E+02 -0.21324135246E+01  0.47787269226E+02  0.19999991708E+02 0.  0.
         12    1    1    2    0    0  0.40135664583E+02  0.16376955542E+02  0.21324135246E+01  0.43400730774E+02  0.00000000000E+00 0. -1.
         11    1    3    3    0    0 -0.20958932729E+02 -0.14749287224E+02 -0.13228937878E+01  0.25662587223E+02  0.51100000000E-03 0. -1.
        -11    1    3    3    0    0 -0.13355796636E+02 -0.19656393571E+01  0.45088657202E+01  0.14232740854E+02  0.51100000000E-03 0.  1.
         12    1    3    3    0    0 -0.58209352173E+01  0.33797103936E+00 -0.53183854569E+01  0.78919411488E+01  0.00000000000E+00 0. -1.
</event>
<event>
 7    1  0.1736465E-010  0.4778727E+02  0.7816164E-02  0.1312668E+00
        -11   -1    0    0    0    0  0.00000000000E+00  0.00000000000E+00  0.45593999997E+02  0.45594000000E+02  0.51100000000E-03 0. -1.
         11   -1    0    0    0    0 -0.00000000000E+00 -0.00000000000E+00 -0.45593999997E+02  0.45594000000E+02  0.51100000000E-03 0.  1.
    9900012    2    1    2    0    0  0.37615674541E+02  0.21348923877E+02 -0.35927154959E+01  0.47787272742E+02  0.20000007740E+02 0.  0.
         12    1    1    2    0    0 -0.37615674541E+02 -0.21348923877E+02  0.35927154959E+01  0.43400727258E+02  0.00000000000E+00 0. -1.
         11    1    3    3    0    0  0.70043720394E+01  0.32515849419E+01  0.43160978166E+01  0.88466226846E+01  0.51100000000E-03 0.  1.
        -11    1    3    3    0    0  0.19663961009E+02  0.44720997844E+01 -0.11427978004E+01  0.20198441180E+02  0.51100000000E-03 0. -1.
         12    1    3    3    0    0  0.10947341492E+02  0.13625239151E+02 -0.67660155121E+01  0.18742208877E+02  0.00000000000E+00 0. -1.
</event>
<event>
 7    1  0.1736465E-010  0.4778726E+02  0.7816164E-02  0.1312668E+00
        -11   -1    0    0    0    0  0.00000000000E+00  0.00000000000E+00  0.45593999997E+02  0.45594000000E+02  0.51100000000E-03 0.  1.
         11   -1    0    0    0    0 -0.00000000000E+00 -0.00000000000E+00 -0.45593999997E+02  0.45594000000E+02  0.51100000000E-03 0. -1.
    9900012    2    1    2    0    0 -0.41370204221E+02 -0.13010088094E+02 -0.16934362391E+01  0.47787263649E+02  0.19999966282E+02 0.  0.
         12    1    1    2    0    0  0.41370204221E+02  0.13010088094E+02  0.16934362391E+01  0.43400736351E+02  0.00000000000E+00 0. -1.
         11    1    3    3    0    0 -0.31663770961E+02 -0.69978875428E+01 -0.89882058145E+01  0.33650448222E+02  0.51100000000E-03 0. -1.
        -11    1    3    3    0    0 -0.10982550631E+01 -0.25895080835E+01  0.12690714025E+01  0.30858157405E+01  0.51100000000E-03 0.  1.
         12    1    3    3    0    0 -0.86081781970E+01 -0.34226924676E+01  0.60256981728E+01  0.11050999686E+02  0.00000000000E+00 0. -1.
</event>
<event>
 7    1  0.1736465E-010  0.4778727E+02  0.7816164E-02  0.1312668E+00
        -11   -1    0    0    0    0  0.00000000000E+00  0.00000000000E+00  0.45593999997E+02  0.45594000000E+02  0.51100000000E-03 0.  1.
         11   -1    0    0    0    0 -0.00000000000E+00 -0.00000000000E+00 -0.45593999997E+02  0.45594000000E+02  0.51100000000E-03 0. -1.
    9900012    2    1    2    0    0  0.16042342506E+02 -0.20240157493E+02  0.34879832761E+02  0.47787268879E+02  0.19999990127E+02 0.  0.
         12    1    1    2    0    0 -0.16042342506E+02  0.20240157493E+02 -0.34879832761E+02  0.43400731121E+02  0.00000000000E+00 0. -1.
         11    1    3    3    0    0 -0.29519325865E+00 -0.81136696699E+01  0.51203174105E+01  0.95987720682E+01  0.51100000000E-03 0. -1.
        -11    1    3    3    0    0  0.14926114070E+02 -0.14649771353E+02  0.24737051509E+02  0.32393307944E+02  0.51100000000E-03 0.  1.
         12    1    3    3    0    0  0.14114216940E+01  0.25232835296E+01  0.50224638410E+01  0.57951888669E+01  0.00000000000E+00 0. -1.
</event>
<event>
 7    1  0.1736465E-010  0.4778727E+02  0.7816164E-02  0.1312668E+00
        -11   -1    0    0    0    0  0.00000000000E+00  0.00000000000E+00  0.45593999997E+02  0.45594000000E+02  0.51100000000E-03 0.  1.
         11   -1    0    0    0    0 -0.00000000000E+00 -0.00000000000E+00 -0.45593999997E+02  0.45594000000E+02  0.51100000000E-03 0. -1.
    9900012    2    1    2    0    0  0.17621075467E+02  0.10845633656E+02  0.38150925136E+02  0.47787272371E+02  0.20000006048E+02 0.  0.
         12    1    1    2    0    0 -0.17621075467E+02 -0.10845633656E+02 -0.38150925136E+02  0.43400727629E+02  0.00000000000E+00 0. -1.
         11    1    3    3    0    0  0.57146079073E+01  0.73967562028E+01  0.20048657173E+02  0.22120519898E+02  0.51100000000E-03 0. -1.
        -11    1    3    3    0    0  0.90019005423E+01  0.21734680817E+01  0.19950743823E+02  0.21995234853E+02  0.51100000000E-03 0.  1.
         12    1    3    3    0    0  0.29045670171E+01  0.12754093717E+01 -0.18484758608E+01  0.36715176195E+01  0.00000000000E+00 0. -1.
</event>
<event>
 7    1  0.1736465E-010  0.4778727E+02  0.7816164E-02  0.1312668E+00
        -11   -1    0    0    0    0  0.00000000000E+00  0.00000000000E+00  0.45593999997E+02  0.45594000000E+02  0.51100000000E-03 0.  1.
         11   -1    0    0    0    0 -0.00000000000E+00 -0.00000000000E+00 -0.45593999997E+02  0.45594000000E+02  0.51100000000E-03 0. -1.
    9900012    2    1    2    0    0 -0.33797055883E+02 -0.30127625486E+01  0.27061148394E+02  0.47787268705E+02  0.19999989332E+02 0.  0.
         12    1    1    2    0    0  0.33797055883E+02  0.30127625486E+01 -0.27061148394E+02  0.43400731295E+02  0.00000000000E+00 0. -1.
         11    1    3    3    0    0 -0.26447310825E+02  0.50202658133E+01  0.13166505799E+02  0.29966985066E+02  0.51100000000E-03 0. -1.
        -11    1    3    3    0    0 -0.41922653625E+01 -0.27887929526E+01  0.61263214109E+01  0.79299602327E+01  0.51100000000E-03 0.  1.
         12    1    3    3    0    0 -0.31574796957E+01 -0.52442354092E+01  0.77683211844E+01  0.98903234063E+01  0.00000000000E+00 0. -1.
</event>
<event>
 7    1  0.1736465E-010  0.4778727E+02  0.7816164E-02  0.1312668E+00
        -11   -1    0    0    0    0  0.00000000000E+00  0.00000000000E+00  0.45593999997E+02  0.45594000000E+02  0.51100000000E-03 0. -1.
         11   -1    0    0    0    0 -0.00000000000E+00 -0.00000000000E+00 -0.45593999997E+02  0.45594000000E+02  0.51100000000E-03 0.  1.
    9900012    2    1    2    0    0 -0.20587579791E+01  0.15617784804E+02 -0.40440943398E+02  0.47787267408E+02  0.19999983422E+02 0.  0.
         12    1    1    2    0    0  0.20587579791E+01 -0.15617784804E+02  0.40440943398E+02  0.43400732592E+02  0.00000000000E+00 0. -1.
         11    1    3    3    0    0  0.61295421777E+01  0.66824090523E+00 -0.11468921453E+02  0.13021289981E+02  0.51100000000E-03 0.  1.
        -11    1    3    3    0    0 -0.14521059189E+01  0.70808156107E+01 -0.54128730751E+01  0.90302689052E+01  0.51100000000E-03 0. -1.
        -12    1    3    3    0    0 -0.67361942379E+01  0.78687282880E+01 -0.23559148869E+02  0.25735708522E+02  0.00000000000E+00 0.  1.
</event>
<event>
 7    1  0.1736465E-010  0.4778727E+02  0.7816164E-02  0.1312668E+00
        -11   -1    0    0    0    0  0.00000000000E+00  0.00000000000E+00  0.45593999997E+02  0.45594000000E+02  0.51100000000E-03 0. -1.
         11   -1    0    0    0    0 -0.00000000000E+00 -0.00000000000E+00 -0.45593999997E+02  0.45594000000E+02  0.51100000000E-03 0.  1.
    9900012    2    1    2    0    0  0.41735911567E+02 -0.92479210600E+01  0.74975190857E+01  0.47787272464E+02  0.20000006471E+02 0.  0.
         12    1    1    2    0    0 -0.41735911567E+02  0.92479210600E+01 -0.74975190857E+01  0.43400727536E+02  0.00000000000E+00 0. -1.
         11    1    3    3    0    0  0.10770621054E+02 -0.16673038191E+01 -0.62814150249E+01  0.12579441756E+02  0.51100000000E-03 0. -1.
        -11    1    3    3    0    0  0.16121302227E+02 -0.30430040113E+01  0.40833361186E+01  0.16906504459E+02  0.51100000000E-03 0.  1.
         12    1    3    3    0    0  0.14843988286E+02 -0.45376132296E+01  0.96955979920E+01  0.18301326249E+02  0.00000000000E+00 0. -1.
</event>
<event>
 7    1  0.1736465E-010  0.4778727E+02  0.7816164E-02  0.1312668E+00
        -11   -1    0    0    0    0  0.00000000000E+00  0.00000000000E+00  0.45593999997E+02  0.45594000000E+02  0.51100000000E-03 0.  1.
         11   -1    0    0    0    0 -0.00000000000E+00 -0.00000000000E+00 -0.45593999997E+02  0.45594000000E+02  0.51100000000E-03 0. -1.
    9900012    2    1    2    0    0  0.41086664635E+02  0.53895430057E+01  0.12902020878E+02  0.47787270428E+02  0.19999997190E+02 0.  0.
         12    1    1    2    0    0 -0.41086664635E+02 -0.53895430057E+01 -0.12902020878E+02  0.43400729572E+02  0.00000000000E+00 0. -1.
         11    1    3    3    0    0  0.23625182518E+02  0.99347062634E+01  0.81018955093E+01  0.26879143376E+02  0.51100000000E-03 0. -1.
        -11    1    3    3    0    0  0.17755890638E+01 -0.13601619270E+01  0.43551903541E+01  0.48959616290E+01  0.51100000000E-03 0.  1.
        -12    1    3    3    0    0  0.15685893053E+02 -0.31850013307E+01  0.44493501490E+00  0.16012165423E+02  0.00000000000E+00 0.  1.
</event>
<event>
 7    1  0.1736465E-010  0.4778728E+02  0.7816164E-02  0.1312668E+00
        -11   -1    0    0    0    0  0.00000000000E+00  0.00000000000E+00  0.45593999997E+02  0.45594000000E+02  0.51100000000E-03 0. -1.
         11   -1    0    0    0    0 -0.00000000000E+00 -0.00000000000E+00 -0.45593999997E+02  0.45594000000E+02  0.51100000000E-03 0.  1.
    9900012    2    1    2    0    0 -0.27018174654E+02 -0.17340752467E+02 -0.29205116780E+02  0.47787282219E+02  0.20000050949E+02 0.  0.
         12    1    1    2    0    0  0.27018174654E+02  0.17340752467E+02  0.29205116780E+02  0.43400717781E+02  0.00000000000E+00 0. -1.
         11    1    3    3    0    0 -0.13969865119E+02 -0.42269004537E+00 -0.95909763805E+01  0.16950593692E+02  0.51100000000E-03 0. -1.
        -11    1    3    3    0    0 -0.47080426030E+01 -0.11277382188E+01 -0.81758888550E+00  0.49097770304E+01  0.51100000000E-03 0.  1.
        -12    1    3    3    0    0 -0.83402669323E+01 -0.15790324203E+02 -0.18796551514E+02  0.25926911497E+02  0.00000000000E+00 0.  1.
</event>
<event>
 7    1  0.1736465E-010  0.4778727E+02  0.7816164E-02  0.1312668E+00
        -11   -1    0    0    0    0  0.00000000000E+00  0.00000000000E+00  0.45593999997E+02  0.45594000000E+02  0.51100000000E-03 0.  1.
         11   -1    0    0    0    0 -0.00000000000E+00 -0.00000000000E+00 -0.45593999997E+02  0.45594000000E+02  0.51100000000E-03 0. -1.
    9900012    2    1    2    0    0  0.17194669526E+02  0.20664209608E+02  0.34072823906E+02  0.47787267889E+02  0.19999985613E+02 0.  0.
         12    1    1    2    0    0 -0.17194669526E+02 -0.20664209608E+02 -0.34072823906E+02  0.43400732111E+02  0.00000000000E+00 0. -1.
         11    1    3    3    0    0  0.60514266158E+01 -0.98180413980E-02  0.74904706802E+01  0.96294865778E+01  0.51100000000E-03 0. -1.
        -11    1    3    3    0    0 -0.80932312492E-01 -0.20321664294E+01  0.16845088399E+01  0.26407992595E+01  0.51100000000E-03 0.  1.
         12    1    3    3    0    0  0.11224175223E+02  0.22706194079E+02  0.24897844386E+02  0.35516982052E+02  0.00000000000E+00 0. -1.
</event>
<event>
 7    1  0.1736465E-010  0.4778727E+02  0.7816164E-02  0.1312668E+00
        -11   -1    0    0    0    0  0.00000000000E+00  0.00000000000E+00  0.45593999997E+02  0.45594000000E+02  0.51100000000E-03 0.  1.
         11   -1    0    0    0    0 -0.00000000000E+00 -0.00000000000E+00 -0.45593999997E+02  0.45594000000E+02  0.51100000000E-03 0. -1.
    9900012    2    1    2    0    0  0.50360905153E+01 -0.17406309049E+02  0.39437057321E+02  0.47787270829E+02  0.19999999019E+02 0.  0.
         12    1    1    2    0    0 -0.50360905153E+01  0.17406309049E+02 -0.39437057321E+02  0.43400729171E+02  0.00000000000E+00 0. -1.
         11    1    3    3    0    0  0.22418837660E+01 -0.15543737189E+01 -0.45198824286E+00  0.27652150208E+01  0.51100000000E-03 0. -1.
        -11    1    3    3    0    0 -0.43137352273E+01 -0.11221599517E+02  0.19097337752E+02  0.22566366938E+02  0.51100000000E-03 0.  1.
        -12    1    3    3    0    0  0.71079419766E+01 -0.46303358134E+01  0.20791707812E+02  0.22455688870E+02  0.00000000000E+00 0.  1.
</event>
<event>
 7    1  0.1736465E-010  0.4778727E+02  0.7816164E-02  0.1312668E+00
        -11   -1    0    0    0    0  0.00000000000E+00  0.00000000000E+00  0.45593999997E+02  0.45594000000E+02  0.51100000000E-03 0.  1.
         11   -1    0    0    0    0 -0.00000000000E+00 -0.00000000000E+00 -0.45593999997E+02  0.45594000000E+02  0.51100000000E-03 0. -1.
    9900012    2    1    2    0    0  0.14010477117E+02 -0.39664072792E+02 -0.10681364213E+02  0.47787266355E+02  0.19999978618E+02 0.  0.
         12    1    1    2    0    0 -0.14010477117E+02  0.39664072792E+02  0.10681364213E+02  0.43400733645E+02  0.00000000000E+00 0. -1.
         11    1    3    3    0    0  0.30669973074E+01 -0.54601861564E+01  0.43518396575E+01  0.76261795161E+01  0.51100000000E-03 0. -1.
        -11    1    3    3    0    0  0.43002173787E+01 -0.22835060486E+02 -0.54265464197E+01  0.23861669330E+02  0.51100000000E-03 0.  1.
         12    1    3    3    0    0  0.66432624308E+01 -0.11368826150E+02 -0.96066574509E+01  0.16299417509E+02  0.00000000000E+00 0. -1.
</event>
<event>
 7    1  0.1736465E-010  0.4778726E+02  0.7816164E-02  0.1312668E+00
        -11   -1    0    0    0    0  0.00000000000E+00  0.00000000000E+00  0.45593999997E+02  0.45594000000E+02  0.51100000000E-03 0.  1.
         11   -1    0    0    0    0 -0.00000000000E+00 -0.00000000000E+00 -0.45593999997E+02  0.45594000000E+02  0.51100000000E-03 0. -1.
    9900012    2    1    2    0    0 -0.13829403990E+02  0.37815301005E+01  0.40964270033E+02  0.47787264938E+02  0.19999972158E+02 0.  0.
         12    1    1    2    0    0  0.13829403990E+02 -0.37815301005E+01 -0.40964270033E+02  0.43400735062E+02  0.00000000000E+00 0. -1.
         11    1    3    3    0    0 -0.56594547031E+01  0.54725038298E+01  0.31119016791E+02  0.32099391458E+02  0.51100000000E-03 0. -1.
        -11    1    3    3    0    0  0.47461703212E+00  0.16691150993E+01 -0.48821628135E+00  0.18026541378E+01  0.51100000000E-03 0.  1.
        -12    1    3    3    0    0 -0.86445663194E+01 -0.33600888287E+01  0.10333469523E+02  0.13885219342E+02  0.00000000000E+00 0.  1.
</event>
<event>
 7    1  0.1736465E-010  0.4778727E+02  0.7816164E-02  0.1312668E+00
        -11   -1    0    0    0    0  0.00000000000E+00  0.00000000000E+00  0.45593999997E+02  0.45594000000E+02  0.51100000000E-03 0.  1.
         11   -1    0    0    0    0 -0.00000000000E+00 -0.00000000000E+00 -0.45593999997E+02  0.45594000000E+02  0.51100000000E-03 0. -1.
    9900012    2    1    2    0    0  0.13399554427E+01  0.13377684343E+02  0.41265785889E+02  0.47787274154E+02  0.20000014176E+02 0.  0.
         12    1    1    2    0    0 -0.13399554427E+01 -0.13377684343E+02 -0.41265785889E+02  0.43400725846E+02  0.00000000000E+00 0. -1.
         11    1    3    3    0    0  0.54771528939E+01  0.10458079050E+02  0.16209753651E+02  0.20053097888E+02  0.51100000000E-03 0. -1.
        -11    1    3    3    0    0  0.15771790413E+01  0.80226335066E+00  0.19203832723E+02  0.19285183736E+02  0.51100000000E-03 0.  1.
        -12    1    3    3    0    0 -0.57143764925E+01  0.21173419420E+01  0.58521995149E+01  0.84489925293E+01  0.00000000000E+00 0.  1.
</event>
<event>
 7    1  0.1736465E-010  0.4778727E+02  0.7816164E-02  0.1312668E+00
        -11   -1    0    0    0    0  0.00000000000E+00  0.00000000000E+00  0.45593999997E+02  0.45594000000E+02  0.51100000000E-03 0. -1.
         11   -1    0    0    0    0 -0.00000000000E+00 -0.00000000000E+00 -0.45593999997E+02  0.45594000000E+02  0.51100000000E-03 0.  1.
    9900012    2    1    2    0    0  0.36826775670E+02 -0.22774587798E+02 -0.29546346450E+01  0.47787272800E+02  0.20000008004E+02 0.  0.
         12    1    1    2    0    0 -0.36826775670E+02  0.22774587798E+02  0.29546346450E+01  0.43400727200E+02  0.00000000000E+00 0. -1.
         11    1    3    3    0    0  0.36601219878E+02 -0.17046370235E+02 -0.56991685040E+00  0.40380104510E+02  0.51100000000E-03 0. -1.
        -11    1    3    3    0    0  0.18102958628E+01 -0.39356576155E+01 -0.25182721922E+01  0.50108150108E+01  0.51100000000E-03 0.  1.
         12    1    3    3    0    0 -0.15847400715E+01 -0.17925599475E+01  0.13355439760E+00  0.23963532788E+01  0.00000000000E+00 0. -1.
</event>
<event>
 7    1  0.1736465E-010  0.4778728E+02  0.7816164E-02  0.1312668E+00
        -11   -1    0    0    0    0  0.00000000000E+00  0.00000000000E+00  0.45593999997E+02  0.45594000000E+02  0.51100000000E-03 0. -1.
         11   -1    0    0    0    0 -0.00000000000E+00 -0.00000000000E+00 -0.45593999997E+02  0.45594000000E+02  0.51100000000E-03 0.  1.
    9900012    2    1    2    0    0  0.92485680750E+01  0.17946828332E+02 -0.38418720044E+02  0.47787277559E+02  0.20000029702E+02 0.  0.
         12    1    1    2    0    0 -0.92485680750E+01 -0.17946828332E+02  0.38418720044E+02  0.43400722441E+02  0.00000000000E+00 0. -1.
         11    1    3    3    0    0  0.52158965694E+00  0.43918764602E+01 -0.13953754574E+00  0.44249413103E+01  0.51100000000E-03 0. -1.
        -11    1    3    3    0    0 -0.10964368499E+01  0.31218386275E+01 -0.19296180408E+02  0.19577809601E+02  0.51100000000E-03 0.  1.
        -12    1    3    3    0    0  0.98234152679E+01  0.10433113244E+02 -0.18983002090E+02  0.23784526647E+02  0.00000000000E+00 0.  1.
</event>
<event>
 7    1  0.1736465E-010  0.4778727E+02  0.7816164E-02  0.1312668E+00
        -11   -1    0    0    0    0  0.00000000000E+00  0.00000000000E+00  0.45593999997E+02  0.45594000000E+02  0.51100000000E-03 0.  1.
         11   -1    0    0    0    0 -0.00000000000E+00 -0.00000000000E+00 -0.45593999997E+02  0.45594000000E+02  0.51100000000E-03 0. -1.
    9900012    2    1    2    0    0  0.26572798547E+02 -0.12995626085E+02  0.31758838291E+02  0.47787265795E+02  0.19999976067E+02 0.  0.
         12    1    1    2    0    0 -0.26572798547E+02  0.12995626085E+02 -0.31758838291E+02  0.43400734205E+02  0.00000000000E+00 0. -1.
         11    1    3    3    0    0  0.19180286696E+02 -0.83293569453E+01  0.21497520856E+02  0.29990081495E+02  0.51100000000E-03 0. -1.
        -11    1    3    3    0    0  0.70562021181E+01  0.23919167420E+01  0.57808715126E+01  0.94302560802E+01  0.51100000000E-03 0.  1.
         12    1    3    3    0    0  0.33630973197E+00 -0.70581858815E+01  0.44804459225E+01  0.83669282200E+01  0.00000000000E+00 0. -1.
</event>
<event>
 7    1  0.1736465E-010  0.4778727E+02  0.7816164E-02  0.1312668E+00
        -11   -1    0    0    0    0  0.00000000000E+00  0.00000000000E+00  0.45593999997E+02  0.45594000000E+02  0.51100000000E-03 0.  1.
         11   -1    0    0    0    0 -0.00000000000E+00 -0.00000000000E+00 -0.45593999997E+02  0.45594000000E+02  0.51100000000E-03 0. -1.
    9900012    2    1    2    0    0  0.32131139638E+02 -0.21345512601E+00  0.29174775079E+02  0.47787271913E+02  0.20000003961E+02 0.  0.
         12    1    1    2    0    0 -0.32131139638E+02  0.21345512601E+00 -0.29174775079E+02  0.43400728087E+02  0.00000000000E+00 0. -1.
         11    1    3    3    0    0  0.39142335524E+01 -0.51483842178E+01  0.43957246092E+01  0.78198132624E+01  0.51100000000E-03 0. -1.
        -11    1    3    3    0    0  0.11759013666E+02  0.58684207544E+01  0.46284519433E+01  0.13933245573E+02  0.51100000000E-03 0.  1.
         12    1    3    3    0    0  0.16457892420E+02 -0.93349166263E+00  0.20150598527E+02  0.26034213078E+02  0.00000000000E+00 0. -1.
</event>
<event>
 7    1  0.1736465E-010  0.4778727E+02  0.7816164E-02  0.1312668E+00
        -11   -1    0    0    0    0  0.00000000000E+00  0.00000000000E+00  0.45593999997E+02  0.45594000000E+02  0.51100000000E-03 0.  1.
         11   -1    0    0    0    0 -0.00000000000E+00 -0.00000000000E+00 -0.45593999997E+02  0.45594000000E+02  0.51100000000E-03 0. -1.
    9900012    2    1    2    0    0 -0.28324317904E+02  0.72990974535E+01  0.32063682428E+02  0.47787267988E+02  0.19999986062E+02 0.  0.
         12    1    1    2    0    0  0.28324317904E+02 -0.72990974535E+01 -0.32063682428E+02  0.43400732012E+02  0.00000000000E+00 0. -1.
         11    1    3    3    0    0 -0.20501870280E+02 -0.77175079880E+00  0.15678068369E+02  0.25821001381E+02  0.51100000000E-03 0. -1.
        -11    1    3    3    0    0  0.14451134362E+00 -0.56494640581E+00  0.67387094000E+01  0.67638933025E+01  0.51100000000E-03 0.  1.
        -12    1    3    3    0    0 -0.79669589671E+01  0.86357946581E+01  0.96469046589E+01  0.15202373304E+02  0.00000000000E+00 0.  1.
</event>
<event>
 7    1  0.1736465E-010  0.4778727E+02  0.7816164E-02  0.1312668E+00
        -11   -1    0    0    0    0  0.00000000000E+00  0.00000000000E+00  0.45593999997E+02  0.45594000000E+02  0.51100000000E-03 0.  1.
         11   -1    0    0    0    0 -0.00000000000E+00 -0.00000000000E+00 -0.45593999997E+02  0.45594000000E+02  0.51100000000E-03 0. -1.
    9900012    2    1    2    0    0 -0.16102217807E+02  0.28119369976E+01  0.40204912020E+02  0.47787270069E+02  0.19999995555E+02 0.  0.
         12    1    1    2    0    0  0.16102217807E+02 -0.28119369976E+01 -0.40204912020E+02  0.43400729931E+02  0.00000000000E+00 0. -1.
         11    1    3    3    0    0 -0.11429237593E+01 -0.54793026597E+01  0.11694069206E+02  0.12964578173E+02  0.51100000000E-03 0. -1.
        -11    1    3    3    0    0 -0.54259434502E+01 -0.17392902503E+01  0.11967468608E+02  0.13254670801E+02  0.51100000000E-03 0.  1.
        -12    1    3    3    0    0 -0.95333505974E+01  0.10030529908E+02  0.16543374206E+02  0.21568021095E+02  0.00000000000E+00 0.  1.
</event>
<event>
 7    1  0.1736465E-010  0.4778728E+02  0.7816164E-02  0.1312668E+00
        -11   -1    0    0    0    0  0.00000000000E+00  0.00000000000E+00  0.45593999997E+02  0.45594000000E+02  0.51100000000E-03 0.  1.
         11   -1    0    0    0    0 -0.00000000000E+00 -0.00000000000E+00 -0.45593999997E+02  0.45594000000E+02  0.51100000000E-03 0. -1.
    9900012    2    1    2    0    0 -0.15095596080E+01 -0.24271420735E+02  0.35947771375E+02  0.47787275334E+02  0.20000019558E+02 0.  0.
         12    1    1    2    0    0  0.15095596080E+01  0.24271420735E+02 -0.35947771375E+02  0.43400724666E+02  0.00000000000E+00 0. -1.
         11    1    3    3    0    0  0.64225304409E+00 -0.82737857405E+01  0.17604389253E+02  0.19462336465E+02  0.51100000000E-03 0. -1.
        -11    1    3    3    0    0  0.49173262565E+01 -0.80112255260E+01  0.13879032171E+02  0.16762677775E+02  0.51100000000E-03 0.  1.
         12    1    3    3    0    0 -0.70691389085E+01 -0.79864094690E+01  0.44643499510E+01  0.11562261094E+02  0.00000000000E+00 0. -1.
</event>
<event>
 7    1  0.1736465E-010  0.4778727E+02  0.7816164E-02  0.1312668E+00
        -11   -1    0    0    0    0  0.00000000000E+00  0.00000000000E+00  0.45593999997E+02  0.45594000000E+02  0.51100000000E-03 0.  1.
         11   -1    0    0    0    0 -0.00000000000E+00 -0.00000000000E+00 -0.45593999997E+02  0.45594000000E+02  0.51100000000E-03 0. -1.
    9900012    2    1    2    0    0 -0.23073222420E+02 -0.23572228271E+02  0.28206374896E+02  0.47787272779E+02  0.20000007909E+02 0.  0.
         12    1    1    2    0    0  0.23073222420E+02  0.23572228271E+02 -0.28206374896E+02  0.43400727221E+02  0.00000000000E+00 0. -1.
         11    1    3    3    0    0 -0.54392025041E+01 -0.63059162919E+00  0.59476292433E+01  0.80843591929E+01  0.51100000000E-03 0. -1.
        -11    1    3    3    0    0  0.18783166645E+00 -0.11748561360E+02  0.93284140242E+01  0.15002775851E+02  0.51100000000E-03 0.  1.
         12    1    3    3    0    0 -0.17821851583E+02 -0.11193075282E+02  0.12930331629E+02  0.24700137735E+02  0.00000000000E+00 0. -1.
</event>
<event>
 7    1  0.1736465E-010  0.4778727E+02  0.7816164E-02  0.1312668E+00
        -11   -1    0    0    0    0  0.00000000000E+00  0.00000000000E+00  0.45593999997E+02  0.45594000000E+02  0.51100000000E-03 0. -1.
         11   -1    0    0    0    0 -0.00000000000E+00 -0.00000000000E+00 -0.45593999997E+02  0.45594000000E+02  0.51100000000E-03 0.  1.
    9900012    2    1    2    0    0 -0.42977378856E+02 -0.60343178681E+01  0.39427826090E+00  0.47787267969E+02  0.19999985979E+02 0.  0.
         12    1    1    2    0    0  0.42977378856E+02  0.60343178681E+01 -0.39427826090E+00  0.43400732031E+02  0.00000000000E+00 0. -1.
         11    1    3    3    0    0 -0.17411720305E-01 -0.28989160879E+01 -0.14825809293E+01  0.32560810993E+01  0.51100000000E-03 0. -1.
        -11    1    3    3    0    0 -0.13669986554E+02 -0.25749497771E+01 -0.43632110642E+01  0.14578631959E+02  0.51100000000E-03 0.  1.
         12    1    3    3    0    0 -0.29289980582E+02 -0.56045200320E+00  0.62400702543E+01  0.29952554911E+02  0.00000000000E+00 0. -1.
</event>
<event>
 7    1  0.1736465E-010  0.4778727E+02  0.7816164E-02  0.1312668E+00
        -11   -1    0    0    0    0  0.00000000000E+00  0.00000000000E+00  0.45593999997E+02  0.45594000000E+02  0.51100000000E-03 0. -1.
         11   -1    0    0    0    0 -0.00000000000E+00 -0.00000000000E+00 -0.45593999997E+02  0.45594000000E+02  0.51100000000E-03 0.  1.
    9900012    2    1    2    0    0  0.20172100671E+02  0.32568538280E+02 -0.20396082380E+02  0.47787268352E+02  0.19999987723E+02 0.  0.
         12    1    1    2    0    0 -0.20172100671E+02 -0.32568538280E+02  0.20396082380E+02  0.43400731648E+02  0.00000000000E+00 0. -1.
         11    1    3    3    0    0  0.57386593213E+01 -0.10902646784E+01 -0.85694228994E+00  0.59038325031E+01  0.51100000000E-03 0. -1.
        -11    1    3    3    0    0  0.59582102773E+01  0.13710610858E+02 -0.49122639913E+01  0.15735674678E+02  0.51100000000E-03 0.  1.
        -12    1    3    3    0    0  0.84752310719E+01  0.19948192101E+02 -0.14626876098E+02  0.26147761170E+02  0.00000000000E+00 0.  1.
</event>
<event>
 7    1  0.1736465E-010  0.4778726E+02  0.7816164E-02  0.1312668E+00
        -11   -1    0    0    0    0  0.00000000000E+00  0.00000000000E+00  0.45593999997E+02  0.45594000000E+02  0.51100000000E-03 0.  1.
         11   -1    0    0    0    0 -0.00000000000E+00 -0.00000000000E+00 -0.45593999997E+02  0.45594000000E+02  0.51100000000E-03 0. -1.
    9900012    2    1    2    0    0  0.36819921145E+02  0.15841619448E+02  0.16642126984E+02  0.47787263941E+02  0.19999967614E+02 0.  0.
         12    1    1    2    0    0 -0.36819921145E+02 -0.15841619448E+02 -0.16642126984E+02  0.43400736059E+02  0.00000000000E+00 0. -1.
         11    1    3    3    0    0  0.30207223087E+01 -0.24139405778E+01 -0.20511966660E+00  0.38722017920E+01  0.51100000000E-03 0. -1.
        -11    1    3    3    0    0  0.30688343673E+02  0.11149041791E+02  0.12103186862E+02  0.34821871040E+02  0.51100000000E-03 0.  1.
         12    1    3    3    0    0  0.31108551636E+01  0.71065182345E+01  0.47440597892E+01  0.90931911092E+01  0.00000000000E+00 0. -1.
</event>
<event>
 7    1  0.1736465E-010  0.4778727E+02  0.7816164E-02  0.1312668E+00
        -11   -1    0    0    0    0  0.00000000000E+00  0.00000000000E+00  0.45593999997E+02  0.45594000000E+02  0.51100000000E-03 0. -1.
         11   -1    0    0    0    0 -0.00000000000E+00 -0.00000000000E+00 -0.45593999997E+02  0.45594000000E+02  0.51100000000E-03 0.  1.
    9900012    2    1    2    0    0  0.24023303541E+02 -0.34708672591E+02 -0.10090204081E+02  0.47787270922E+02  0.19999999444E+02 0.  0.
         12    1    1    2    0    0 -0.24023303541E+02  0.34708672591E+02  0.10090204081E+02  0.43400729078E+02  0.00000000000E+00 0. -1.
         11    1    3    3    0    0 -0.49040097441E+00 -0.22911544675E+01  0.23868855292E+01  0.33447129473E+01  0.51100000000E-03 0. -1.
        -11    1    3    3    0    0  0.55454486933E+01 -0.16731549674E+02 -0.82757361273E+01  0.19472661976E+02  0.51100000000E-03 0.  1.
         12    1    3    3    0    0  0.18968255822E+02 -0.15685968450E+02 -0.42013534831E+01  0.24969895999E+02  0.00000000000E+00 0. -1.
</event>
<event>
 7    1  0.4562153E-010  0.4778727E+02  0.7816164E-02  0.1312668E+00
        -11   -1    0    0    0    0  0.00000000000E+00  0.00000000000E+00  0.45593999997E+02  0.45594000000E+02  0.51100000000E-03 0. -1.
         11   -1    0    0    0    0 -0.00000000000E+00 -0.00000000000E+00 -0.45593999997E+02  0.45594000000E+02  0.51100000000E-03 0.  1.
    9900012    2    1    2    0    0 -0.22496745212E+02 -0.33345776346E+01 -0.36964849694E+02  0.47787273439E+02  0.20000010917E+02 0.  0.
         12    1    1    2    0    0  0.22496745212E+02  0.33345776346E+01  0.36964849694E+02  0.43400726561E+02  0.00000000000E+00 0. -1.
         11    1    3    3    0    0 -0.66512769724E+01 -0.27139690278E+01 -0.26598275360E+01  0.76602738874E+01  0.51100000000E-03 0. -1.
        -11    1    3    3    0    0 -0.10919370326E+01 -0.38456771286E+01 -0.15507300933E+02  0.16014304279E+02  0.51100000000E-03 0.  1.
        -12    1    3    3    0    0 -0.14753531207E+02  0.32250685218E+01 -0.18797721225E+02  0.24112695272E+02  0.00000000000E+00 0.  1.
</event>
<event>
 7    1  0.1736465E-010  0.4778727E+02  0.7816164E-02  0.1312668E+00
        -11   -1    0    0    0    0  0.00000000000E+00  0.00000000000E+00  0.45593999997E+02  0.45594000000E+02  0.51100000000E-03 0. -1.
         11   -1    0    0    0    0 -0.00000000000E+00 -0.00000000000E+00 -0.45593999997E+02  0.45594000000E+02  0.51100000000E-03 0.  1.
    9900012    2    1    2    0    0 -0.12960760106E+02  0.11221700273E+02 -0.39871235309E+02  0.47787271151E+02  0.20000000486E+02 0.  0.
         12    1    1    2    0    0  0.12960760106E+02 -0.11221700273E+02  0.39871235309E+02  0.43400728849E+02  0.00000000000E+00 0. -1.
         11    1    3    3    0    0 -0.10542756829E+01  0.60852385559E+01 -0.18429935380E+02  0.19437184566E+02  0.51100000000E-03 0. -1.
        -11    1    3    3    0    0 -0.74124265219E+01  0.93922962676E+01 -0.16746095673E+02  0.20581326893E+02  0.51100000000E-03 0.  1.
         12    1    3    3    0    0 -0.44940579010E+01 -0.42558345509E+01 -0.46952042568E+01  0.77687596922E+01  0.00000000000E+00 0. -1.
</event>
<event>
 7    1  0.1736465E-010  0.4778727E+02  0.7816164E-02  0.1312668E+00
        -11   -1    0    0    0    0  0.00000000000E+00  0.00000000000E+00  0.45593999997E+02  0.45594000000E+02  0.51100000000E-03 0.  1.
         11   -1    0    0    0    0 -0.00000000000E+00 -0.00000000000E+00 -0.45593999997E+02  0.45594000000E+02  0.51100000000E-03 0. -1.
    9900012    2    1    2    0    0  0.28431772163E+00 -0.21680300469E+02  0.37596636895E+02  0.47787269928E+02  0.19999994909E+02 0.  0.
         12    1    1    2    0    0 -0.28431772163E+00  0.21680300469E+02 -0.37596636895E+02  0.43400730072E+02  0.00000000000E+00 0. -1.
         11    1    3    3    0    0 -0.67886031041E+01 -0.69939400604E+01  0.11196718652E+02  0.14844757947E+02  0.51100000000E-03 0. -1.
        -11    1    3    3    0    0  0.35577385251E+01 -0.39721398976E+01  0.13939038224E+01  0.55116573647E+01  0.51100000000E-03 0.  1.
         12    1    3    3    0    0  0.35151823007E+01 -0.10714220511E+02  0.25006014421E+02  0.27430854616E+02  0.00000000000E+00 0. -1.
</event>
<event>
 7    1  0.1736465E-010  0.4778727E+02  0.7816164E-02  0.1312668E+00
        -11   -1    0    0    0    0  0.00000000000E+00  0.00000000000E+00  0.45593999997E+02  0.45594000000E+02  0.51100000000E-03 0. -1.
         11   -1    0    0    0    0 -0.00000000000E+00 -0.00000000000E+00 -0.45593999997E+02  0.45594000000E+02  0.51100000000E-03 0.  1.
    9900012    2    1    2    0    0  0.39354284921E+02  0.17278592520E+02 -0.60260823546E+01  0.47787272245E+02  0.20000005475E+02 0.  0.
         12    1    1    2    0    0 -0.39354284921E+02 -0.17278592520E+02  0.60260823546E+01  0.43400727755E+02  0.00000000000E+00 0. -1.
         11    1    3    3    0    0  0.70607281833E+01  0.24417014246E+00  0.40538694503E+01  0.81453888377E+01  0.51100000000E-03 0. -1.
        -11    1    3    3    0    0  0.86965701921E+01  0.10879400896E+02 -0.43451808152E+01  0.14590143712E+02  0.51100000000E-03 0.  1.
        -12    1    3    3    0    0  0.23596986546E+02  0.61550214812E+01 -0.57347709896E+01  0.25051739695E+02  0.00000000000E+00 0.  1.
</event>
<event>
 7    1  0.1736465E-010  0.4778727E+02  0.7816164E-02  0.1312668E+00
        -11   -1    0    0    0    0  0.00000000000E+00  0.00000000000E+00  0.45593999997E+02  0.45594000000E+02  0.51100000000E-03 0. -1.
         11   -1    0    0    0    0 -0.00000000000E+00 -0.00000000000E+00 -0.45593999997E+02  0.45594000000E+02  0.51100000000E-03 0.  1.
    9900012    2    1    2    0    0  0.64478205145E+00  0.43306846057E+02  0.27793393478E+01  0.47787269747E+02  0.19999994086E+02 0.  0.
         12    1    1    2    0    0 -0.64478205145E+00 -0.43306846057E+02 -0.27793393478E+01  0.43400730253E+02  0.00000000000E+00 0. -1.
         11    1    3    3    0    0  0.35414176603E+01  0.34089708180E+01 -0.44752060622E+00  0.49358885762E+01  0.51100000000E-03 0. -1.
        -11    1    3    3    0    0 -0.16156813342E+01  0.26984394663E+02  0.92141330293E+01  0.28559905974E+02  0.51100000000E-03 0.  1.
         12    1    3    3    0    0 -0.12809542747E+01  0.12913480576E+02 -0.59872730753E+01  0.14291475197E+02  0.00000000000E+00 0. -1.
</event>
<event>
 7    1  0.1736465E-010  0.4778727E+02  0.7816164E-02  0.1312668E+00
        -11   -1    0    0    0    0  0.00000000000E+00  0.00000000000E+00  0.45593999997E+02  0.45594000000E+02  0.51100000000E-03 0.  1.
         11   -1    0    0    0    0 -0.00000000000E+00 -0.00000000000E+00 -0.45593999997E+02  0.45594000000E+02  0.51100000000E-03 0. -1.
    9900012    2    1    2    0    0 -0.15653089142E+01  0.87788200000E+01  0.42474762393E+02  0.47787270595E+02  0.19999997949E+02 0.  0.
         12    1    1    2    0    0  0.15653089142E+01 -0.87788200000E+01 -0.42474762393E+02  0.43400729405E+02  0.00000000000E+00 0. -1.
         11    1    3    3    0    0 -0.52979128295E+01  0.10314070311E+02  0.34049674811E+02  0.35969824599E+02  0.51100000000E-03 0. -1.
        -11    1    3    3    0    0  0.73868898892E+00  0.25944941939E+01  0.49753387505E+01  0.56595987037E+01  0.51100000000E-03 0.  1.
         12    1    3    3    0    0  0.29939149264E+01 -0.41297445049E+01  0.34497488317E+01  0.61578472914E+01  0.00000000000E+00 0. -1.
</event>
<event>
 7    1  0.1736465E-010  0.4778725E+02  0.7816164E-02  0.1312668E+00
        -11   -1    0    0    0    0  0.00000000000E+00  0.00000000000E+00  0.45593999997E+02  0.45594000000E+02  0.51100000000E-03 0.  1.
         11   -1    0    0    0    0 -0.00000000000E+00 -0.00000000000E+00 -0.45593999997E+02  0.45594000000E+02  0.51100000000E-03 0. -1.
    9900012    2    1    2    0    0 -0.33125369888E+02  0.96841578185E+01  0.26316378917E+02  0.47787252976E+02  0.19999917620E+02 0.  0.
         12    1    1    2    0    0  0.33125369888E+02 -0.96841578185E+01 -0.26316378917E+02  0.43400747024E+02  0.00000000000E+00 0. -1.
         11    1    3    3    0    0 -0.10590660299E+02 -0.68035639321E+00  0.98644935798E+01  0.14489071890E+02  0.51100000000E-03 0. -1.
        -11    1    3    3    0    0 -0.17221038951E+02 -0.44499002652E-01  0.10676940078E+02  0.20262359497E+02  0.51100000000E-03 0.  1.
         12    1    3    3    0    0 -0.53136706389E+01  0.10409013214E+02  0.57749452590E+01  0.13035821589E+02  0.00000000000E+00 0. -1.
</event>
<event>
 7    1  0.1736465E-010  0.4778727E+02  0.7816164E-02  0.1312668E+00
        -11   -1    0    0    0    0  0.00000000000E+00  0.00000000000E+00  0.45593999997E+02  0.45594000000E+02  0.51100000000E-03 0. -1.
         11   -1    0    0    0    0 -0.00000000000E+00 -0.00000000000E+00 -0.45593999997E+02  0.45594000000E+02  0.51100000000E-03 0.  1.
    9900012    2    1    2    0    0 -0.42896854446E+02  0.18028040702E+01  0.63429431987E+01  0.47787272445E+02  0.20000006388E+02 0.  0.
         12    1    1    2    0    0  0.42896854446E+02 -0.18028040702E+01 -0.63429431987E+01  0.43400727555E+02  0.00000000000E+00 0. -1.
         11    1    3    3    0    0 -0.10378277017E+02  0.57654316183E-01 -0.60983392077E+01  0.12037512169E+02  0.51100000000E-03 0. -1.
        -11    1    3    3    0    0 -0.16473844146E+02  0.44068269299E+01  0.44267693832E+01  0.17618284592E+02  0.51100000000E-03 0.  1.
         12    1    3    3    0    0 -0.16044733282E+02 -0.26616771758E+01  0.80145130232E+01  0.18131475684E+02  0.00000000000E+00 0. -1.
</event>
<event>
 7    1  0.1736465E-010  0.4778727E+02  0.7816164E-02  0.1312668E+00
        -11   -1    0    0    0    0  0.00000000000E+00  0.00000000000E+00  0.45593999997E+02  0.45594000000E+02  0.51100000000E-03 0. -1.
         11   -1    0    0    0    0 -0.00000000000E+00 -0.00000000000E+00 -0.45593999997E+02  0.45594000000E+02  0.51100000000E-03 0.  1.
    9900012    2    1    2    0    0 -0.12181510749E+02 -0.30152336487E+02 -0.28741451298E+02  0.47787267029E+02  0.19999981690E+02 0.  0.
         12    1    1    2    0    0  0.12181510749E+02  0.30152336487E+02  0.28741451298E+02  0.43400732971E+02  0.00000000000E+00 0. -1.
         11    1    3    3    0    0 -0.35115771649E+01 -0.97652546521E+01 -0.26915792494E+01  0.10720819545E+02  0.51100000000E-03 0. -1.
        -11    1    3    3    0    0 -0.23227597397E+01 -0.67028360967E+00 -0.11505675905E+02  0.11756915889E+02  0.51100000000E-03 0.  1.
        -12    1    3    3    0    0 -0.63471738446E+01 -0.19716798225E+02 -0.14544196143E+02  0.25309531594E+02  0.00000000000E+00 0.  1.
</event>
<event>
 7    1  0.1736465E-010  0.4778727E+02  0.7816164E-02  0.1312668E+00
        -11   -1    0    0    0    0  0.00000000000E+00  0.00000000000E+00  0.45593999997E+02  0.45594000000E+02  0.51100000000E-03 0.  1.
         11   -1    0    0    0    0 -0.00000000000E+00 -0.00000000000E+00 -0.45593999997E+02  0.45594000000E+02  0.51100000000E-03 0. -1.
    9900012    2    1    2    0    0  0.80471657363E+00  0.37146310859E+01  0.43233980184E+02  0.47787273101E+02  0.20000009376E+02 0.  0.
         12    1    1    2    0    0 -0.80471657363E+00 -0.37146310859E+01 -0.43233980184E+02  0.43400726899E+02  0.00000000000E+00 0. -1.
         11    1    3    3    0    0  0.34579534730E+01 -0.47457891867E+01  0.35315415754E+02  0.35800259040E+02  0.51100000000E-03 0. -1.
        -11    1    3    3    0    0 -0.83070646274E+00  0.33566075291E+01  0.40671713286E+01  0.53384239443E+01  0.51100000000E-03 0.  1.
         12    1    3    3    0    0 -0.18225304367E+01  0.51038127435E+01  0.38513931011E+01  0.66485901161E+01  0.00000000000E+00 0. -1.
</event>
<event>
 7    1  0.1736465E-010  0.4778727E+02  0.7816164E-02  0.1312668E+00
        -11   -1    0    0    0    0  0.00000000000E+00  0.00000000000E+00  0.45593999997E+02  0.45594000000E+02  0.51100000000E-03 0.  1.
         11   -1    0    0    0    0 -0.00000000000E+00 -0.00000000000E+00 -0.45593999997E+02  0.45594000000E+02  0.51100000000E-03 0. -1.
    9900012    2    1    2    0    0 -0.28089633183E+02  0.20440848377E+02  0.26014758292E+02  0.47787269318E+02  0.19999992130E+02 0.  0.
         12    1    1    2    0    0  0.28089633183E+02 -0.20440848377E+02 -0.26014758292E+02  0.43400730682E+02  0.00000000000E+00 0. -1.
         11    1    3    3    0    0 -0.10183283534E+02  0.16555889913E+02  0.12131952968E+02  0.22912464674E+02  0.51100000000E-03 0. -1.
        -11    1    3    3    0    0 -0.15281169419E+01 -0.26071793883E+01  0.19838075813E+01  0.36149714428E+01  0.51100000000E-03 0.  1.
        -12    1    3    3    0    0 -0.16378232706E+02  0.64921378524E+01  0.11898997743E+02  0.21259833202E+02  0.00000000000E+00 0.  1.
</event>
<event>
 7    1  0.1736465E-010  0.4778727E+02  0.7816164E-02  0.1312668E+00
        -11   -1    0    0    0    0  0.00000000000E+00  0.00000000000E+00  0.45593999997E+02  0.45594000000E+02  0.51100000000E-03 0.  1.
         11   -1    0    0    0    0 -0.00000000000E+00 -0.00000000000E+00 -0.45593999997E+02  0.45594000000E+02  0.51100000000E-03 0. -1.
    9900012    2    1    2    0    0  0.11734628801E+02 -0.22441783216E+02  0.35246106033E+02  0.47787272616E+02  0.20000007165E+02 0.  0.
         12    1    1    2    0    0 -0.11734628801E+02  0.22441783216E+02 -0.35246106033E+02  0.43400727384E+02  0.00000000000E+00 0. -1.
         11    1    3    3    0    0  0.18815688740E+01  0.17485940489E+01 -0.21613595315E+00  0.25777116958E+01  0.51100000000E-03 0. -1.
        -11    1    3    3    0    0 -0.78343145380E+00 -0.97083875881E+01  0.92680717542E+01  0.13444839482E+02  0.51100000000E-03 0.  1.
        -12    1    3    3    0    0  0.10636491380E+02 -0.14481989677E+02  0.26194170232E+02  0.31764721438E+02  0.00000000000E+00 0.  1.
</event>
<event>
 7    1  0.1736465E-010  0.4778727E+02  0.7816164E-02  0.1312668E+00
        -11   -1    0    0    0    0  0.00000000000E+00  0.00000000000E+00  0.45593999997E+02  0.45594000000E+02  0.51100000000E-03 0.  1.
         11   -1    0    0    0    0 -0.00000000000E+00 -0.00000000000E+00 -0.45593999997E+02  0.45594000000E+02  0.51100000000E-03 0. -1.
    9900012    2    1    2    0    0 -0.32568188605E+02 -0.63791520896E+01  0.27968604773E+02  0.47787270244E+02  0.19999996350E+02 0.  0.
         12    1    1    2    0    0  0.32568188605E+02  0.63791520896E+01 -0.27968604773E+02  0.43400729756E+02  0.00000000000E+00 0. -1.
         11    1    3    3    0    0 -0.17316910849E+01  0.58134938787E+00  0.63870782204E+01  0.66431535869E+01  0.51100000000E-03 0. -1.
        -11    1    3    3    0    0 -0.19881554000E+02  0.11647973066E+00  0.58812845885E+01  0.20733529985E+02  0.51100000000E-03 0.  1.
        -12    1    3    3    0    0 -0.10954943521E+02 -0.70769812082E+01  0.15700241964E+02  0.20410586672E+02  0.00000000000E+00 0.  1.
</event>
<event>
 7    1  0.1736465E-010  0.4778726E+02  0.7816164E-02  0.1312668E+00
        -11   -1    0    0    0    0  0.00000000000E+00  0.00000000000E+00  0.45593999997E+02  0.45594000000E+02  0.51100000000E-03 0.  1.
         11   -1    0    0    0    0 -0.00000000000E+00 -0.00000000000E+00 -0.45593999997E+02  0.45594000000E+02  0.51100000000E-03 0. -1.
    9900012    2    1    2    0    0 -0.29513477174E+02 -0.31775950675E+02 -0.16935764220E+01  0.47787256029E+02  0.19999931537E+02 0.  0.
         12    1    1    2    0    0  0.29513477174E+02  0.31775950675E+02  0.16935764220E+01  0.43400743971E+02  0.00000000000E+00 0. -1.
         11    1    3    3    0    0 -0.58059339607E+01 -0.65495100955E+00  0.65152655856E+00  0.58789724526E+01  0.51100000000E-03 0. -1.
        -11    1    3    3    0    0 -0.23673477534E+02 -0.28230181832E+02  0.17631585459E+01  0.36884758819E+02  0.51100000000E-03 0.  1.
         12    1    3    3    0    0 -0.34065678945E-01 -0.28908178329E+01 -0.41082615265E+01  0.50235247570E+01  0.00000000000E+00 0. -1.
</event>
<event>
 7    1  0.1736465E-010  0.4778727E+02  0.7816164E-02  0.1312668E+00
        -11   -1    0    0    0    0  0.00000000000E+00  0.00000000000E+00  0.45593999997E+02  0.45594000000E+02  0.51100000000E-03 0.  1.
         11   -1    0    0    0    0 -0.00000000000E+00 -0.00000000000E+00 -0.45593999997E+02  0.45594000000E+02  0.51100000000E-03 0. -1.
    9900012    2    1    2    0    0  0.20811091297E+02 -0.84156472660E+01  0.37144294933E+02  0.47787270905E+02  0.19999999366E+02 0.  0.
         12    1    1    2    0    0 -0.20811091297E+02  0.84156472660E+01 -0.37144294933E+02  0.43400729095E+02  0.00000000000E+00 0. -1.
         11    1    3    3    0    0  0.10484611336E+02 -0.41274093502E+01  0.71820464140E+01  0.13362049759E+02  0.51100000000E-03 0. -1.
        -11    1    3    3    0    0  0.94756060825E+01  0.23882862080E+01  0.13725401133E+02  0.16848669329E+02  0.51100000000E-03 0.  1.
        -12    1    3    3    0    0  0.85087387788E+00 -0.66765241239E+01  0.16236847386E+02  0.17576551817E+02  0.00000000000E+00 0.  1.
</event>
<event>
 7    1  0.1736465E-010  0.4778727E+02  0.7816164E-02  0.1312668E+00
        -11   -1    0    0    0    0  0.00000000000E+00  0.00000000000E+00  0.45593999997E+02  0.45594000000E+02  0.51100000000E-03 0. -1.
         11   -1    0    0    0    0 -0.00000000000E+00 -0.00000000000E+00 -0.45593999997E+02  0.45594000000E+02  0.51100000000E-03 0.  1.
    9900012    2    1    2    0    0  0.10663966055E+01 -0.43179901486E+02  0.42405411601E+01  0.47787270935E+02  0.19999999500E+02 0.  0.
         12    1    1    2    0    0 -0.10663966055E+01  0.43179901486E+02 -0.42405411601E+01  0.43400729065E+02  0.00000000000E+00 0. -1.
         11    1    3    3    0    0  0.78447203382E+01 -0.28215160191E+02  0.38733523673E+01  0.29540442796E+02  0.51100000000E-03 0. -1.
        -11    1    3    3    0    0 -0.11907502048E+01 -0.78214686643E+01 -0.31555112976E+01  0.85176587116E+01  0.51100000000E-03 0.  1.
         12    1    3    3    0    0 -0.55875735280E+01 -0.71432726308E+01  0.35227000904E+01  0.97291694268E+01  0.00000000000E+00 0. -1.
</event>
<event>
 7    1  0.1736465E-010  0.4778727E+02  0.7816164E-02  0.1312668E+00
        -11   -1    0    0    0    0  0.00000000000E+00  0.00000000000E+00  0.45593999997E+02  0.45594000000E+02  0.51100000000E-03 0.  1.
         11   -1    0    0    0    0 -0.00000000000E+00 -0.00000000000E+00 -0.45593999997E+02  0.45594000000E+02  0.51100000000E-03 0. -1.
    9900012    2    1    2    0    0  0.27625479801E+02 -0.33389434751E+02  0.23667958901E+01  0.47787271780E+02  0.20000003354E+02 0.  0.
         12    1    1    2    0    0 -0.27625479801E+02  0.33389434751E+02 -0.23667958901E+01  0.43400728220E+02  0.00000000000E+00 0. -1.
         11    1    3    3    0    0  0.22839244651E+02 -0.21855281907E+02  0.39922323018E+00  0.31613981447E+02  0.51100000000E-03 0. -1.
        -11    1    3    3    0    0  0.47155731866E+01 -0.13146335166E+02  0.29628805530E+01  0.14277304375E+02  0.51100000000E-03 0.  1.
        -12    1    3    3    0    0  0.70661963464E-01  0.16121823220E+01 -0.99530789309E+00  0.18959859584E+01  0.00000000000E+00 0.  1.
</event>
<event>
 7    1  0.1736465E-010  0.4778727E+02  0.7816164E-02  0.1312668E+00
        -11   -1    0    0    0    0  0.00000000000E+00  0.00000000000E+00  0.45593999997E+02  0.45594000000E+02  0.51100000000E-03 0.  1.
         11   -1    0    0    0    0 -0.00000000000E+00 -0.00000000000E+00 -0.45593999997E+02  0.45594000000E+02  0.51100000000E-03 0. -1.
    9900012    2    1    2    0    0 -0.17882509631E+01  0.11439148211E+02  0.41827878161E+02  0.47787270228E+02  0.19999996275E+02 0.  0.
         12    1    1    2    0    0  0.17882509631E+01 -0.11439148211E+02 -0.41827878161E+02  0.43400729772E+02  0.00000000000E+00 0. -1.
         11    1    3    3    0    0  0.18199797357E+01 -0.70064964770E+00  0.19245388617E+02  0.19343945292E+02  0.51100000000E-03 0. -1.
        -11    1    3    3    0    0  0.65301283229E+00  0.11003702071E+02  0.21073252982E+02  0.23782133557E+02  0.51100000000E-03 0.  1.
        -12    1    3    3    0    0 -0.42612435311E+01  0.11360957871E+01  0.15092365630E+01  0.46611913791E+01  0.00000000000E+00 0.  1.
</event>
<event>
 7    1  0.1736465E-010  0.4778727E+02  0.7816164E-02  0.1312668E+00
        -11   -1    0    0    0    0  0.00000000000E+00  0.00000000000E+00  0.45593999997E+02  0.45594000000E+02  0.51100000000E-03 0.  1.
         11   -1    0    0    0    0 -0.00000000000E+00 -0.00000000000E+00 -0.45593999997E+02  0.45594000000E+02  0.51100000000E-03 0. -1.
    9900012    2    1    2    0    0 -0.25512450339E+02  0.13705044679E+01  0.35083613325E+02  0.47787270413E+02  0.19999997120E+02 0.  0.
         12    1    1    2    0    0  0.25512450339E+02 -0.13705044679E+01 -0.35083613325E+02  0.43400729587E+02  0.00000000000E+00 0. -1.
         11    1    3    3    0    0  0.52737695713E+00 -0.29175345677E+01  0.34678765788E+01  0.45624886449E+01  0.51100000000E-03 0. -1.
        -11    1    3    3    0    0 -0.88053867397E+01  0.77950932239E+01  0.14669830195E+02  0.18801655039E+02  0.51100000000E-03 0.  1.
         12    1    3    3    0    0 -0.17234440556E+02 -0.35070541883E+01  0.16945906551E+02  0.24423126729E+02  0.00000000000E+00 0. -1.
</event>
<event>
 7    1  0.1736465E-010  0.4778727E+02  0.7816164E-02  0.1312668E+00
        -11   -1    0    0    0    0  0.00000000000E+00  0.00000000000E+00  0.45593999997E+02  0.45594000000E+02  0.51100000000E-03 0.  1.
         11   -1    0    0    0    0 -0.00000000000E+00 -0.00000000000E+00 -0.45593999997E+02  0.45594000000E+02  0.51100000000E-03 0. -1.
    9900012    2    1    2    0    0  0.31283538568E+00 -0.40089334398E+02  0.16624400755E+02  0.47787270756E+02  0.19999998685E+02 0.  0.
         12    1    1    2    0    0 -0.31283538568E+00  0.40089334398E+02 -0.16624400755E+02  0.43400729244E+02  0.00000000000E+00 0. -1.
         11    1    3    3    0    0  0.21732018184E+01 -0.20794096694E+02  0.38051904992E+01  0.21250805596E+02  0.51100000000E-03 0. -1.
        -11    1    3    3    0    0  0.14374830870E+01 -0.10251204333E+02 -0.18950265682E+00  0.10353234250E+02  0.51100000000E-03 0.  1.
        -12    1    3    3    0    0 -0.32978495197E+01 -0.90440333701E+01  0.13008712913E+02  0.16183230911E+02  0.00000000000E+00 0.  1.
</event>
<event>
 7    1  0.1736465E-010  0.4778728E+02  0.7816164E-02  0.1312668E+00
        -11   -1    0    0    0    0  0.00000000000E+00  0.00000000000E+00  0.45593999997E+02  0.45594000000E+02  0.51100000000E-03 0. -1.
         11   -1    0    0    0    0 -0.00000000000E+00 -0.00000000000E+00 -0.45593999997E+02  0.45594000000E+02  0.51100000000E-03 0.  1.
    9900012    2    1    2    0    0 -0.79057868883E+01 -0.21336619135E+02 -0.36957675896E+02  0.47787278922E+02  0.20000035918E+02 0.  0.
         12    1    1    2    0    0  0.79057868883E+01  0.21336619135E+02  0.36957675896E+02  0.43400721078E+02  0.00000000000E+00 0. -1.
         11    1    3    3    0    0 -0.80485947927E+01 -0.61984980423E+01 -0.71054445987E+01  0.12397120606E+02  0.51100000000E-03 0. -1.
        -11    1    3    3    0    0 -0.13439066864E+01 -0.16031609510E+02 -0.21460862650E+02  0.26821394718E+02  0.51100000000E-03 0.  1.
         12    1    3    3    0    0  0.14867145907E+01  0.89348841744E+00 -0.83913686473E+01  0.85687635982E+01  0.00000000000E+00 0. -1.
</event>
<event>
 7    1  0.1736465E-010  0.4778728E+02  0.7816164E-02  0.1312668E+00
        -11   -1    0    0    0    0  0.00000000000E+00  0.00000000000E+00  0.45593999997E+02  0.45594000000E+02  0.51100000000E-03 0. -1.
         11   -1    0    0    0    0 -0.00000000000E+00 -0.00000000000E+00 -0.45593999997E+02  0.45594000000E+02  0.51100000000E-03 0.  1.
    9900012    2    1    2    0    0  0.39363939278E+02  0.18035473322E+02 -0.29706322076E+01  0.47787278012E+02  0.20000031766E+02 0.  0.
         12    1    1    2    0    0 -0.39363939278E+02 -0.18035473322E+02  0.29706322076E+01  0.43400721988E+02  0.00000000000E+00 0. -1.
         11    1    3    3    0    0  0.23599947327E+01  0.43392330478E+01  0.84279878881E+00  0.50108710461E+01  0.51100000000E-03 0. -1.
        -11    1    3    3    0    0  0.32520107257E+02  0.52813858827E+01 -0.15834930685E+01  0.32984206272E+02  0.51100000000E-03 0.  1.
        -12    1    3    3    0    0  0.44838372882E+01  0.84148543917E+01 -0.22299379280E+01  0.97922006936E+01  0.00000000000E+00 0.  1.
</event>
<event>
 7    1  0.1736465E-010  0.4778726E+02  0.7816164E-02  0.1312668E+00
        -11   -1    0    0    0    0  0.00000000000E+00  0.00000000000E+00  0.45593999997E+02  0.45594000000E+02  0.51100000000E-03 0.  1.
         11   -1    0    0    0    0 -0.00000000000E+00 -0.00000000000E+00 -0.45593999997E+02  0.45594000000E+02  0.51100000000E-03 0. -1.
    9900012    2    1    2    0    0  0.29207210662E+02 -0.14614264600E+02  0.28582970033E+02  0.47787261984E+02  0.19999958688E+02 0.  0.
         12    1    1    2    0    0 -0.29207210662E+02  0.14614264600E+02 -0.28582970033E+02  0.43400738016E+02  0.00000000000E+00 0. -1.
         11    1    3    3    0    0  0.33911545872E+01  0.10696129128E+01 -0.12642030297E+01  0.37738853691E+01  0.51100000000E-03 0. -1.
        -11    1    3    3    0    0  0.15058798160E+02 -0.30644064197E+01  0.17806071194E+02  0.23520505104E+02  0.51100000000E-03 0.  1.
         12    1    3    3    0    0  0.10757257915E+02 -0.12619471093E+02  0.12041101868E+02  0.20492871510E+02  0.00000000000E+00 0. -1.
</event>
<event>
 7    1  0.1736465E-010  0.4778727E+02  0.7816164E-02  0.1312668E+00
        -11   -1    0    0    0    0  0.00000000000E+00  0.00000000000E+00  0.45593999997E+02  0.45594000000E+02  0.51100000000E-03 0.  1.
         11   -1    0    0    0    0 -0.00000000000E+00 -0.00000000000E+00 -0.45593999997E+02  0.45594000000E+02  0.51100000000E-03 0. -1.
    9900012    2    1    2    0    0 -0.15642367666E+02 -0.37654636233E+02  0.14868353757E+02  0.47787271441E+02  0.20000001808E+02 0.  0.
         12    1    1    2    0    0  0.15642367666E+02  0.37654636233E+02 -0.14868353757E+02  0.43400728559E+02  0.00000000000E+00 0. -1.
         11    1    3    3    0    0 -0.11443276015E+02 -0.14981708366E+02  0.61622144152E+01  0.19833634016E+02  0.51100000000E-03 0. -1.
        -11    1    3    3    0    0 -0.30625542942E+01 -0.19517679366E+02  0.12112064848E+02  0.23173717047E+02  0.51100000000E-03 0.  1.
         12    1    3    3    0    0 -0.11365373565E+01 -0.31552485002E+01 -0.34059255063E+01  0.47799203775E+01  0.00000000000E+00 0. -1.
</event>
<event>
 7    1  0.1736465E-010  0.4778727E+02  0.7816164E-02  0.1312668E+00
        -11   -1    0    0    0    0  0.00000000000E+00  0.00000000000E+00  0.45593999997E+02  0.45594000000E+02  0.51100000000E-03 0.  1.
         11   -1    0    0    0    0 -0.00000000000E+00 -0.00000000000E+00 -0.45593999997E+02  0.45594000000E+02  0.51100000000E-03 0. -1.
    9900012    2    1    2    0    0 -0.32438200756E+02  0.27401936544E+02  0.89733141077E+01  0.47787270044E+02  0.19999995440E+02 0.  0.
         12    1    1    2    0    0  0.32438200756E+02 -0.27401936544E+02 -0.89733141077E+01  0.43400729956E+02  0.00000000000E+00 0. -1.
         11    1    3    3    0    0 -0.30331158891E+01 -0.84471600915E+00 -0.16865297868E+01  0.35717950831E+01  0.51100000000E-03 0. -1.
        -11    1    3    3    0    0 -0.39911356121E+01  0.12603197556E+01  0.53114910640E+01  0.67623595693E+01  0.51100000000E-03 0.  1.
        -12    1    3    3    0    0 -0.25413949255E+02  0.26986332797E+02  0.53483528306E+01  0.37453115392E+02  0.00000000000E+00 0.  1.
</event>
<event>
 7    1  0.1736465E-010  0.4778727E+02  0.7816164E-02  0.1312668E+00
        -11   -1    0    0    0    0  0.00000000000E+00  0.00000000000E+00  0.45593999997E+02  0.45594000000E+02  0.51100000000E-03 0.  1.
         11   -1    0    0    0    0 -0.00000000000E+00 -0.00000000000E+00 -0.45593999997E+02  0.45594000000E+02  0.51100000000E-03 0. -1.
    9900012    2    1    2    0    0  0.41687307098E+02  0.66229940499E+01  0.10095931779E+02  0.47787268880E+02  0.19999990134E+02 0.  0.
         12    1    1    2    0    0 -0.41687307098E+02 -0.66229940499E+01 -0.10095931779E+02  0.43400731120E+02  0.00000000000E+00 0. -1.
         11    1    3    3    0    0  0.20707487908E+01  0.10010181182E+01 -0.27906022820E+01  0.36162825089E+01  0.51100000000E-03 0. -1.
        -11    1    3    3    0    0  0.28108771518E+01 -0.16208173977E+01  0.48063341998E+01  0.57990454474E+01  0.51100000000E-03 0.  1.
        -12    1    3    3    0    0  0.36805681155E+02  0.72427933294E+01  0.80801998607E+01  0.38371940924E+02  0.00000000000E+00 0.  1.
</event>
<event>
 7    1  0.1736465E-010  0.4778727E+02  0.7816164E-02  0.1312668E+00
        -11   -1    0    0    0    0  0.00000000000E+00  0.00000000000E+00  0.45593999997E+02  0.45594000000E+02  0.51100000000E-03 0.  1.
         11   -1    0    0    0    0 -0.00000000000E+00 -0.00000000000E+00 -0.45593999997E+02  0.45594000000E+02  0.51100000000E-03 0. -1.
    9900012    2    1    2    0    0  0.60088729097E+01  0.22016718342E+02  0.36915863761E+02  0.47787269160E+02  0.19999991410E+02 0.  0.
         12    1    1    2    0    0 -0.60088729097E+01 -0.22016718342E+02 -0.36915863761E+02  0.43400730840E+02  0.00000000000E+00 0. -1.
         11    1    3    3    0    0  0.54998290052E+01  0.94522413759E+00  0.55172787259E+01  0.78474156610E+01  0.51100000000E-03 0. -1.
        -11    1    3    3    0    0  0.26288575787E+01  0.25425997934E+01  0.13875458113E+02  0.14349356919E+02  0.51100000000E-03 0.  1.
        -12    1    3    3    0    0 -0.21198136742E+01  0.18528894411E+02  0.17523126922E+02  0.25590496580E+02  0.00000000000E+00 0.  1.
</event>
<event>
 7    1  0.1736465E-010  0.4778727E+02  0.7816164E-02  0.1312668E+00
        -11   -1    0    0    0    0  0.00000000000E+00  0.00000000000E+00  0.45593999997E+02  0.45594000000E+02  0.51100000000E-03 0. -1.
         11   -1    0    0    0    0 -0.00000000000E+00 -0.00000000000E+00 -0.45593999997E+02  0.45594000000E+02  0.51100000000E-03 0.  1.
    9900012    2    1    2    0    0 -0.23669224086E+02  0.11200392155E+02 -0.34611301855E+02  0.47787272249E+02  0.20000005490E+02 0.  0.
         12    1    1    2    0    0  0.23669224086E+02 -0.11200392155E+02  0.34611301855E+02  0.43400727751E+02  0.00000000000E+00 0. -1.
         11    1    3    3    0    0 -0.48845226676E+01  0.93789241632E+01 -0.22131687004E+02  0.24528235771E+02  0.51100000000E-03 0.  1.
        -11    1    3    3    0    0 -0.58898562948E+00 -0.46231298628E+00 -0.20042443272E+01  0.21395403603E+01  0.51100000000E-03 0. -1.
        -12    1    3    3    0    0 -0.18195715789E+02  0.22837809781E+01 -0.10475370524E+02  0.21119496117E+02  0.00000000000E+00 0.  1.
</event>
<event>
 7    1  0.1736465E-010  0.4778727E+02  0.7816164E-02  0.1312668E+00
        -11   -1    0    0    0    0  0.00000000000E+00  0.00000000000E+00  0.45593999997E+02  0.45594000000E+02  0.51100000000E-03 0.  1.
         11   -1    0    0    0    0 -0.00000000000E+00 -0.00000000000E+00 -0.45593999997E+02  0.45594000000E+02  0.51100000000E-03 0. -1.
    9900012    2    1    2    0    0  0.23177579644E+02 -0.24386577569E+02  0.27417475493E+02  0.47787270443E+02  0.19999997259E+02 0.  0.
         12    1    1    2    0    0 -0.23177579644E+02  0.24386577569E+02 -0.27417475493E+02  0.43400729557E+02  0.00000000000E+00 0. -1.
         11    1    3    3    0    0  0.12208091922E+01 -0.72715456509E+01  0.35931432158E+01  0.82022210204E+01  0.51100000000E-03 0. -1.
        -11    1    3    3    0    0  0.22980641126E+02 -0.15625803593E+02  0.17116826312E+02  0.32638341682E+02  0.51100000000E-03 0.  1.
        -12    1    3    3    0    0 -0.10238706748E+01 -0.14892283250E+01  0.67075059655E+01  0.69467077410E+01  0.00000000000E+00 0.  1.
</event>
<event>
 7    1  0.1736465E-010  0.4778728E+02  0.7816164E-02  0.1312668E+00
        -11   -1    0    0    0    0  0.00000000000E+00  0.00000000000E+00  0.45593999997E+02  0.45594000000E+02  0.51100000000E-03 0. -1.
         11   -1    0    0    0    0 -0.00000000000E+00 -0.00000000000E+00 -0.45593999997E+02  0.45594000000E+02  0.51100000000E-03 0.  1.
    9900012    2    1    2    0    0  0.23740414836E+02  0.36261441587E+02  0.22634530245E+01  0.47787278092E+02  0.20000032134E+02 0.  0.
         12    1    1    2    0    0 -0.23740414836E+02 -0.36261441587E+02 -0.22634530245E+01  0.43400721908E+02  0.00000000000E+00 0. -1.
         11    1    3    3    0    0  0.14871626626E+02  0.22110537929E+02  0.54102231628E+01  0.27190286519E+02  0.51100000000E-03 0. -1.
        -11    1    3    3    0    0 -0.16552295770E+00 -0.99510943197E+00  0.19876673296E+01  0.22290047791E+01  0.51100000000E-03 0.  1.
        -12    1    3    3    0    0  0.90343111671E+01  0.15146013089E+02 -0.51344374679E+01  0.18367986794E+02  0.00000000000E+00 0.  1.
</event>
<event>
 7    1  0.1736465E-010  0.4778727E+02  0.7816164E-02  0.1312668E+00
        -11   -1    0    0    0    0  0.00000000000E+00  0.00000000000E+00  0.45593999997E+02  0.45594000000E+02  0.51100000000E-03 0. -1.
         11   -1    0    0    0    0 -0.00000000000E+00 -0.00000000000E+00 -0.45593999997E+02  0.45594000000E+02  0.51100000000E-03 0.  1.
    9900012    2    1    2    0    0 -0.65231248194E+01  0.26186500433E+02 -0.33990283365E+02  0.47787270448E+02  0.19999997282E+02 0.  0.
         12    1    1    2    0    0  0.65231248194E+01 -0.26186500433E+02  0.33990283365E+02  0.43400729552E+02  0.00000000000E+00 0. -1.
         11    1    3    3    0    0  0.42816235632E+01  0.13208185358E+02 -0.10145777700E+02  0.17196664391E+02  0.51100000000E-03 0. -1.
        -11    1    3    3    0    0 -0.18735531079E+01 -0.78151596308E+00 -0.60826688415E+01  0.64124744791E+01  0.51100000000E-03 0.  1.
        -12    1    3    3    0    0 -0.89311952747E+01  0.13759831039E+02 -0.17761836824E+02  0.24178131578E+02  0.00000000000E+00 0.  1.
</event>
<event>
 7    1  0.1736465E-010  0.4778727E+02  0.7816164E-02  0.1312668E+00
        -11   -1    0    0    0    0  0.00000000000E+00  0.00000000000E+00  0.45593999997E+02  0.45594000000E+02  0.51100000000E-03 0.  1.
         11   -1    0    0    0    0 -0.00000000000E+00 -0.00000000000E+00 -0.45593999997E+02  0.45594000000E+02  0.51100000000E-03 0. -1.
    9900012    2    1    2    0    0  0.59751673800E+01  0.31642875399E+02  0.29097237941E+02  0.47787269078E+02  0.19999991036E+02 0.  0.
         12    1    1    2    0    0 -0.59751673800E+01 -0.31642875399E+02 -0.29097237941E+02  0.43400730922E+02  0.00000000000E+00 0. -1.
         11    1    3    3    0    0  0.37637489024E+01  0.18604593909E+02  0.19973003885E+02  0.27553903621E+02  0.51100000000E-03 0. -1.
        -11    1    3    3    0    0  0.22738008301E+01 -0.12065208709E+01  0.46279989864E+01  0.52956810427E+01  0.51100000000E-03 0.  1.
         12    1    3    3    0    0 -0.62382352475E-01  0.14244802362E+02  0.44962350692E+01  0.14937684415E+02  0.00000000000E+00 0. -1.
</event>
<event>
 7    1  0.1736465E-010  0.4778726E+02  0.7816164E-02  0.1312668E+00
        -11   -1    0    0    0    0  0.00000000000E+00  0.00000000000E+00  0.45593999997E+02  0.45594000000E+02  0.51100000000E-03 0.  1.
         11   -1    0    0    0    0 -0.00000000000E+00 -0.00000000000E+00 -0.45593999997E+02  0.45594000000E+02  0.51100000000E-03 0. -1.
    9900012    2    1    2    0    0 -0.21958669315E+02 -0.32865053602E+02  0.17925654635E+02  0.47787262674E+02  0.19999961834E+02 0.  0.
         12    1    1    2    0    0  0.21958669315E+02  0.32865053602E+02 -0.17925654635E+02  0.43400737326E+02  0.00000000000E+00 0. -1.
         11    1    3    3    0    0 -0.84856290201E+01 -0.71058513473E+01 -0.50612878414E-01  0.11068043421E+02  0.51100000000E-03 0. -1.
        -11    1    3    3    0    0  0.27703506831E+01 -0.39396765189E+01  0.27040624310E+01  0.55233909759E+01  0.51100000000E-03 0.  1.
         12    1    3    3    0    0 -0.16243390978E+02 -0.21819525736E+02  0.15272205082E+02  0.31195828277E+02  0.00000000000E+00 0. -1.
</event>
<event>
 7    1  0.1736465E-010  0.4778727E+02  0.7816164E-02  0.1312668E+00
        -11   -1    0    0    0    0  0.00000000000E+00  0.00000000000E+00  0.45593999997E+02  0.45594000000E+02  0.51100000000E-03 0. -1.
         11   -1    0    0    0    0 -0.00000000000E+00 -0.00000000000E+00 -0.45593999997E+02  0.45594000000E+02  0.51100000000E-03 0.  1.
    9900012    2    1    2    0    0 -0.38803551242E+02 -0.19425181371E+02 -0.75486377249E+00  0.47787273283E+02  0.20000010206E+02 0.  0.
         12    1    1    2    0    0  0.38803551242E+02  0.19425181371E+02  0.75486377249E+00  0.43400726717E+02  0.00000000000E+00 0. -1.
         11    1    3    3    0    0 -0.23745677702E+02 -0.97108696777E+01  0.23013410220E+00  0.25655626310E+02  0.51100000000E-03 0.  1.
        -11    1    3    3    0    0 -0.40671544722E+01 -0.50878154236E+00 -0.57168009497E+01  0.70343739962E+01  0.51100000000E-03 0. -1.
         12    1    3    3    0    0 -0.10990719068E+02 -0.92055301505E+01  0.47318030751E+01  0.15097272976E+02  0.00000000000E+00 0. -1.
</event>
<event>
 7    1  0.1736465E-010  0.4778727E+02  0.7816164E-02  0.1312668E+00
        -11   -1    0    0    0    0  0.00000000000E+00  0.00000000000E+00  0.45593999997E+02  0.45594000000E+02  0.51100000000E-03 0.  1.
         11   -1    0    0    0    0 -0.00000000000E+00 -0.00000000000E+00 -0.45593999997E+02  0.45594000000E+02  0.51100000000E-03 0. -1.
    9900012    2    1    2    0    0 -0.41214701566E+02  0.66103991414E+01 -0.11885881770E+02  0.47787272040E+02  0.20000004538E+02 0.  0.
         12    1    1    2    0    0  0.41214701566E+02 -0.66103991414E+01  0.11885881770E+02  0.43400727960E+02  0.00000000000E+00 0. -1.
         11    1    3    3    0    0 -0.15388529651E+02 -0.38138110901E+01 -0.52438814988E+01  0.16698811134E+02  0.51100000000E-03 0. -1.
        -11    1    3    3    0    0 -0.55639727998E+01  0.41866383037E+01 -0.70156693859E+01  0.98846017015E+01  0.51100000000E-03 0.  1.
         12    1    3    3    0    0 -0.20262199115E+02  0.62375719278E+01  0.37366911460E+00  0.21203859204E+02  0.00000000000E+00 0. -1.
</event>
<event>
 7    1  0.1736465E-010  0.4778727E+02  0.7816164E-02  0.1312668E+00
        -11   -1    0    0    0    0  0.00000000000E+00  0.00000000000E+00  0.45593999997E+02  0.45594000000E+02  0.51100000000E-03 0. -1.
         11   -1    0    0    0    0 -0.00000000000E+00 -0.00000000000E+00 -0.45593999997E+02  0.45594000000E+02  0.51100000000E-03 0.  1.
    9900012    2    1    2    0    0 -0.14277318723E+02 -0.36279616726E+02 -0.19067534663E+02  0.47787270768E+02  0.19999998742E+02 0.  0.
         12    1    1    2    0    0  0.14277318723E+02  0.36279616726E+02  0.19067534663E+02  0.43400729232E+02  0.00000000000E+00 0. -1.
         11    1    3    3    0    0 -0.10881029544E+02 -0.20804678156E+02 -0.11465987175E+02  0.26128534197E+02  0.51100000000E-03 0. -1.
        -11    1    3    3    0    0  0.30269538852E+01 -0.12896824127E+02 -0.60612547170E+01  0.14568092922E+02  0.51100000000E-03 0.  1.
         12    1    3    3    0    0 -0.64232430642E+01 -0.25781144434E+01 -0.15402927705E+01  0.70906436494E+01  0.00000000000E+00 0. -1.
</event>
<event>
 7    1  0.1736465E-010  0.4778727E+02  0.7816164E-02  0.1312668E+00
        -11   -1    0    0    0    0  0.00000000000E+00  0.00000000000E+00  0.45593999997E+02  0.45594000000E+02  0.51100000000E-03 0.  1.
         11   -1    0    0    0    0 -0.00000000000E+00 -0.00000000000E+00 -0.45593999997E+02  0.45594000000E+02  0.51100000000E-03 0. -1.
    9900012    2    1    2    0    0 -0.10598059415E+02 -0.25934548354E+02  0.33146697490E+02  0.47787271709E+02  0.20000003031E+02 0.  0.
         12    1    1    2    0    0  0.10598059415E+02  0.25934548354E+02 -0.33146697490E+02  0.43400728291E+02  0.00000000000E+00 0. -1.
         11    1    3    3    0    0 -0.20210986924E+01 -0.12798720238E+02  0.72393979920E+01  0.14842538974E+02  0.51100000000E-03 0.  1.
        -11    1    3    3    0    0 -0.21604099873E+01 -0.21205096531E+01  0.17300545805E+02  0.17563394259E+02  0.51100000000E-03 0. -1.
         12    1    3    3    0    0 -0.64165507355E+01 -0.11015318463E+02  0.86067536930E+01  0.15381338476E+02  0.00000000000E+00 0. -1.
</event>
<event>
 7    1  0.1736465E-010  0.4778727E+02  0.7816164E-02  0.1312668E+00
        -11   -1    0    0    0    0  0.00000000000E+00  0.00000000000E+00  0.45593999997E+02  0.45594000000E+02  0.51100000000E-03 0. -1.
         11   -1    0    0    0    0 -0.00000000000E+00 -0.00000000000E+00 -0.45593999997E+02  0.45594000000E+02  0.51100000000E-03 0.  1.
    9900012    2    1    2    0    0 -0.13497007284E+02  0.18707080037E+02 -0.36762740218E+02  0.47787272846E+02  0.20000008215E+02 0.  0.
         12    1    1    2    0    0  0.13497007284E+02 -0.18707080037E+02  0.36762740218E+02  0.43400727154E+02  0.00000000000E+00 0. -1.
         11    1    3    3    0    0 -0.22973195413E+01  0.12238133108E+02 -0.15899817867E+02  0.20195390254E+02  0.51100000000E-03 0. -1.
        -11    1    3    3    0    0 -0.13263457774E+02  0.55213215717E+01 -0.12889556708E+02  0.19301424207E+02  0.51100000000E-03 0.  1.
         12    1    3    3    0    0  0.20637700314E+01  0.94762535731E+00 -0.79733656432E+01  0.82904583855E+01  0.00000000000E+00 0. -1.
</event>
<event>
 7    1  0.1736465E-010  0.4778727E+02  0.7816164E-02  0.1312668E+00
        -11   -1    0    0    0    0  0.00000000000E+00  0.00000000000E+00  0.45593999997E+02  0.45594000000E+02  0.51100000000E-03 0.  1.
         11   -1    0    0    0    0 -0.00000000000E+00 -0.00000000000E+00 -0.45593999997E+02  0.45594000000E+02  0.51100000000E-03 0. -1.
    9900012    2    1    2    0    0 -0.45170845244E+01 -0.33881291025E+02  0.26744671171E+02  0.47787269935E+02  0.19999994943E+02 0.  0.
         12    1    1    2    0    0  0.45170845244E+01  0.33881291025E+02 -0.26744671171E+02  0.43400730065E+02  0.00000000000E+00 0. -1.
         11    1    3    3    0    0 -0.77676959938E+01 -0.18361840845E+02  0.13334726011E+02  0.23985604398E+02  0.51100000000E-03 0. -1.
        -11    1    3    3    0    0 -0.35279664942E+01 -0.10033129796E+02  0.52575641864E+01  0.11863904185E+02  0.51100000000E-03 0.  1.
         12    1    3    3    0    0  0.67785779636E+01 -0.54863203834E+01  0.81523809737E+01  0.11937761352E+02  0.00000000000E+00 0. -1.
</event>
<event>
 7    1  0.1736465E-010  0.4778728E+02  0.7816164E-02  0.1312668E+00
        -11   -1    0    0    0    0  0.00000000000E+00  0.00000000000E+00  0.45593999997E+02  0.45594000000E+02  0.51100000000E-03 0. -1.
         11   -1    0    0    0    0 -0.00000000000E+00 -0.00000000000E+00 -0.45593999997E+02  0.45594000000E+02  0.51100000000E-03 0.  1.
    9900012    2    1    2    0    0  0.39098920602E+02  0.14173628286E+02 -0.12409886524E+02  0.47787278639E+02  0.20000034628E+02 0.  0.
         12    1    1    2    0    0 -0.39098920602E+02 -0.14173628286E+02  0.12409886524E+02  0.43400721361E+02  0.00000000000E+00 0. -1.
         11    1    3    3    0    0  0.54878357993E+01  0.53577185473E+00  0.37201171969E+01  0.66515160272E+01  0.51100000000E-03 0. -1.
        -11    1    3    3    0    0  0.85457390381E+01  0.45010632146E+01  0.54592930162E+00  0.96740511076E+01  0.51100000000E-03 0.  1.
         12    1    3    3    0    0  0.25065345765E+02  0.91367932171E+01 -0.16675933023E+02  0.31461711505E+02  0.00000000000E+00 0. -1.
</event>
<event>
 7    1  0.1736465E-010  0.4778727E+02  0.7816164E-02  0.1312668E+00
        -11   -1    0    0    0    0  0.00000000000E+00  0.00000000000E+00  0.45593999997E+02  0.45594000000E+02  0.51100000000E-03 0. -1.
         11   -1    0    0    0    0 -0.00000000000E+00 -0.00000000000E+00 -0.45593999997E+02  0.45594000000E+02  0.51100000000E-03 0.  1.
    9900012    2    1    2    0    0 -0.27726373405E+02  0.13448170469E+02 -0.30561708198E+02  0.47787273288E+02  0.20000010229E+02 0.  0.
         12    1    1    2    0    0  0.27726373405E+02 -0.13448170469E+02  0.30561708198E+02  0.43400726712E+02  0.00000000000E+00 0. -1.
         11    1    3    3    0    0 -0.12499743311E+01 -0.93881537833E+00  0.15491985037E+01  0.22008694664E+01  0.51100000000E-03 0. -1.
        -11    1    3    3    0    0 -0.15335733060E+02  0.43217666323E+01 -0.23144906366E+02  0.28098915749E+02  0.51100000000E-03 0.  1.
         12    1    3    3    0    0 -0.11140666014E+02  0.10065219215E+02 -0.89660003358E+01  0.17487488073E+02  0.00000000000E+00 0. -1.
</event>
<event>
 7    1  0.1736465E-010  0.4778725E+02  0.7816164E-02  0.1312668E+00
        -11   -1    0    0    0    0  0.00000000000E+00  0.00000000000E+00  0.45593999997E+02  0.45594000000E+02  0.51100000000E-03 0.  1.
         11   -1    0    0    0    0 -0.00000000000E+00 -0.00000000000E+00 -0.45593999997E+02  0.45594000000E+02  0.51100000000E-03 0. -1.
    9900012    2    1    2    0    0  0.64726535143E+00 -0.34211736628E+02  0.26697627836E+02  0.47787248767E+02  0.19999898428E+02 0.  0.
         12    1    1    2    0    0 -0.64726535143E+00  0.34211736628E+02 -0.26697627836E+02  0.43400751233E+02  0.00000000000E+00 0. -1.
         11    1    3    3    0    0 -0.26866559733E+01 -0.39076238906E+01  0.31118972514E+01  0.56719969635E+01  0.51100000000E-03 0. -1.
        -11    1    3    3    0    0 -0.37903143973E+01 -0.81074809550E+01  0.14613616919E+02  0.17136380317E+02  0.51100000000E-03 0.  1.
         12    1    3    3    0    0  0.71242357220E+01 -0.22196631782E+02  0.89721136655E+01  0.24978871486E+02  0.00000000000E+00 0. -1.
</event>
<event>
 7    1  0.1736465E-010  0.4778727E+02  0.7816164E-02  0.1312668E+00
        -11   -1    0    0    0    0  0.00000000000E+00  0.00000000000E+00  0.45593999997E+02  0.45594000000E+02  0.51100000000E-03 0. -1.
         11   -1    0    0    0    0 -0.00000000000E+00 -0.00000000000E+00 -0.45593999997E+02  0.45594000000E+02  0.51100000000E-03 0.  1.
    9900012    2    1    2    0    0 -0.16520237847E+02  0.37979669110E+02 -0.12971106829E+02  0.47787272626E+02  0.20000007212E+02 0.  0.
         12    1    1    2    0    0  0.16520237847E+02 -0.37979669110E+02  0.12971106829E+02  0.43400727374E+02  0.00000000000E+00 0. -1.
         11    1    3    3    0    0 -0.11742741003E+02  0.27156509783E+02 -0.11191405038E+02  0.31632507597E+02  0.51100000000E-03 0. -1.
        -11    1    3    3    0    0 -0.31569288912E+01  0.11133896537E+02  0.22596759998E+01  0.11791352255E+02  0.51100000000E-03 0.  1.
         12    1    3    3    0    0 -0.16205679527E+01 -0.31073721044E+00 -0.40393777906E+01  0.43634127742E+01  0.00000000000E+00 0. -1.
</event>
<event>
 7    1  0.1736465E-010  0.4778727E+02  0.7816164E-02  0.1312668E+00
        -11   -1    0    0    0    0  0.00000000000E+00  0.00000000000E+00  0.45593999997E+02  0.45594000000E+02  0.51100000000E-03 0.  1.
         11   -1    0    0    0    0 -0.00000000000E+00 -0.00000000000E+00 -0.45593999997E+02  0.45594000000E+02  0.51100000000E-03 0. -1.
    9900012    2    1    2    0    0 -0.75996525956E+01  0.17786723259E+02  0.38852301648E+02  0.47787267434E+02  0.19999983540E+02 0.  0.
         12    1    1    2    0    0  0.75996525956E+01 -0.17786723259E+02 -0.38852301648E+02  0.43400732566E+02  0.00000000000E+00 0. -1.
         11    1    3    3    0    0 -0.23546711221E+01  0.28188797172E+01 -0.17848151333E+01  0.40836410560E+01  0.51100000000E-03 0. -1.
        -11    1    3    3    0    0 -0.29182045762E+01  0.83288045734E+01  0.18954867238E+02  0.20908656003E+02  0.51100000000E-03 0.  1.
         12    1    3    3    0    0 -0.23267768974E+01  0.66390389688E+01  0.21682249544E+02  0.22794970376E+02  0.00000000000E+00 0. -1.
</event>
<event>
 7    1  0.1736465E-010  0.4778727E+02  0.7816164E-02  0.1312668E+00
        -11   -1    0    0    0    0  0.00000000000E+00  0.00000000000E+00  0.45593999997E+02  0.45594000000E+02  0.51100000000E-03 0. -1.
         11   -1    0    0    0    0 -0.00000000000E+00 -0.00000000000E+00 -0.45593999997E+02  0.45594000000E+02  0.51100000000E-03 0.  1.
    9900012    2    1    2    0    0  0.28983066076E+02  0.18945376559E+02 -0.26166349051E+02  0.47787271495E+02  0.20000002053E+02 0.  0.
         12    1    1    2    0    0 -0.28983066076E+02 -0.18945376559E+02  0.26166349051E+02  0.43400728505E+02  0.00000000000E+00 0. -1.
         11    1    3    3    0    0  0.57024653293E+01  0.54824786313E+01 -0.92134815443E+01  0.12143472535E+02  0.51100000000E-03 0.  1.
        -11    1    3    3    0    0  0.25375047847E+02  0.13432034745E+02 -0.17300549491E+02  0.33520465742E+02  0.51100000000E-03 0. -1.
         12    1    3    3    0    0 -0.20944471000E+01  0.30863182595E-01  0.34768198450E+00  0.21233332176E+01  0.00000000000E+00 0. -1.
</event>
<event>
 7    1  0.1736465E-010  0.4778727E+02  0.7816164E-02  0.1312668E+00
        -11   -1    0    0    0    0  0.00000000000E+00  0.00000000000E+00  0.45593999997E+02  0.45594000000E+02  0.51100000000E-03 0.  1.
         11   -1    0    0    0    0 -0.00000000000E+00 -0.00000000000E+00 -0.45593999997E+02  0.45594000000E+02  0.51100000000E-03 0. -1.
    9900012    2    1    2    0    0 -0.23111441720E+02  0.27436851713E+02  0.24427522841E+02  0.47787269103E+02  0.19999991147E+02 0.  0.
         12    1    1    2    0    0  0.23111441720E+02 -0.27436851713E+02 -0.24427522841E+02  0.43400730897E+02  0.00000000000E+00 0. -1.
         11    1    3    3    0    0 -0.56622788993E+01  0.62887533902E+00 -0.17655332778E+00  0.56998296346E+01  0.51100000000E-03 0. -1.
        -11    1    3    3    0    0 -0.10841379947E+02  0.24778125752E+02  0.17734546176E+02  0.32342003081E+02  0.51100000000E-03 0.  1.
        -12    1    3    3    0    0 -0.66077828743E+01  0.20298506211E+01  0.68695299927E+01  0.97454363873E+01  0.00000000000E+00 0.  1.
</event>
<event>
 7    1  0.1736465E-010  0.4778727E+02  0.7816164E-02  0.1312668E+00
        -11   -1    0    0    0    0  0.00000000000E+00  0.00000000000E+00  0.45593999997E+02  0.45594000000E+02  0.51100000000E-03 0.  1.
         11   -1    0    0    0    0 -0.00000000000E+00 -0.00000000000E+00 -0.45593999997E+02  0.45594000000E+02  0.51100000000E-03 0. -1.
    9900012    2    1    2    0    0  0.14991669649E+02  0.36303758299E+02  0.18463762221E+02  0.47787267969E+02  0.19999985976E+02 0.  0.
         12    1    1    2    0    0 -0.14991669649E+02 -0.36303758299E+02 -0.18463762221E+02  0.43400732031E+02  0.00000000000E+00 0. -1.
         11    1    3    3    0    0 -0.33266195507E+01  0.72392921983E+01 -0.11572074662E+01  0.80506446046E+01  0.51100000000E-03 0. -1.
        -11    1    3    3    0    0  0.83203393998E+01  0.16529789370E+02  0.11099675880E+02  0.21579267579E+02  0.51100000000E-03 0.  1.
        -12    1    3    3    0    0  0.99979498001E+01  0.12534676731E+02  0.85212938074E+01  0.18157355785E+02  0.00000000000E+00 0.  1.
</event>
<event>
 7    1  0.1736465E-010  0.4778727E+02  0.7816164E-02  0.1312668E+00
        -11   -1    0    0    0    0  0.00000000000E+00  0.00000000000E+00  0.45593999997E+02  0.45594000000E+02  0.51100000000E-03 0.  1.
         11   -1    0    0    0    0 -0.00000000000E+00 -0.00000000000E+00 -0.45593999997E+02  0.45594000000E+02  0.51100000000E-03 0. -1.
    9900012    2    1    2    0    0  0.24466795835E+01 -0.13093167282E+02  0.41306244437E+02  0.47787273048E+02  0.20000009136E+02 0.  0.
         12    1    1    2    0    0 -0.24466795835E+01  0.13093167282E+02 -0.41306244437E+02  0.43400726952E+02  0.00000000000E+00 0. -1.
         11    1    3    3    0    0  0.29466689942E+01 -0.62514145904E+00  0.59938701406E+00  0.30713067348E+01  0.51100000000E-03 0. -1.
        -11    1    3    3    0    0 -0.46839731336E+01 -0.96804743421E+01  0.14621102808E+02  0.18150146980E+02  0.51100000000E-03 0.  1.
         12    1    3    3    0    0  0.41839837229E+01 -0.27875514814E+01  0.26085754615E+02  0.26565819334E+02  0.00000000000E+00 0. -1.
</event>
<event>
 7    1  0.1736465E-010  0.4778728E+02  0.7816164E-02  0.1312668E+00
        -11   -1    0    0    0    0  0.00000000000E+00  0.00000000000E+00  0.45593999997E+02  0.45594000000E+02  0.51100000000E-03 0.  1.
         11   -1    0    0    0    0 -0.00000000000E+00 -0.00000000000E+00 -0.45593999997E+02  0.45594000000E+02  0.51100000000E-03 0. -1.
    9900012    2    1    2    0    0 -0.59222020565E+01 -0.81358640019E+01  0.42217982618E+02  0.47787276312E+02  0.20000024018E+02 0.  0.
         12    1    1    2    0    0  0.59222020565E+01  0.81358640019E+01 -0.42217982618E+02  0.43400723688E+02  0.00000000000E+00 0. -1.
         11    1    3    3    0    0 -0.16564532462E+01 -0.59216623410E+01  0.20324151294E+02  0.21233959789E+02  0.51100000000E-03 0. -1.
        -11    1    3    3    0    0  0.11041766818E+01 -0.42189171332E+00  0.20742671956E+02  0.20776323998E+02  0.51100000000E-03 0.  1.
         12    1    3    3    0    0 -0.53699254921E+01 -0.17923099476E+01  0.11511593686E+01  0.57769925248E+01  0.00000000000E+00 0. -1.
</event>
<event>
 7    1  0.1736465E-010  0.4778727E+02  0.7816164E-02  0.1312668E+00
        -11   -1    0    0    0    0  0.00000000000E+00  0.00000000000E+00  0.45593999997E+02  0.45594000000E+02  0.51100000000E-03 0.  1.
         11   -1    0    0    0    0 -0.00000000000E+00 -0.00000000000E+00 -0.45593999997E+02  0.45594000000E+02  0.51100000000E-03 0. -1.
    9900012    2    1    2    0    0 -0.13276205939E+02 -0.38073861458E+02  0.16054494366E+02  0.47787270055E+02  0.19999995487E+02 0.  0.
         12    1    1    2    0    0  0.13276205939E+02  0.38073861458E+02 -0.16054494366E+02  0.43400729945E+02  0.00000000000E+00 0. -1.
         11    1    3    3    0    0 -0.14031438052E+00 -0.90995242974E+01 -0.24578335529E+00  0.91039244440E+01  0.51100000000E-03 0. -1.
        -11    1    3    3    0    0 -0.12365575899E+02 -0.30011277717E+02  0.17538297771E+02  0.36894120757E+02  0.51100000000E-03 0.  1.
         12    1    3    3    0    0 -0.77031565958E+00  0.10369405561E+01 -0.12380200497E+01  0.17892248534E+01  0.00000000000E+00 0. -1.
</event>
<event>
 7    1  0.1736465E-010  0.4778727E+02  0.7816164E-02  0.1312668E+00
        -11   -1    0    0    0    0  0.00000000000E+00  0.00000000000E+00  0.45593999997E+02  0.45594000000E+02  0.51100000000E-03 0.  1.
         11   -1    0    0    0    0 -0.00000000000E+00 -0.00000000000E+00 -0.45593999997E+02  0.45594000000E+02  0.51100000000E-03 0. -1.
    9900012    2    1    2    0    0  0.29798101976E+02  0.22786006425E+01  0.31472274246E+02  0.47787274793E+02  0.20000017090E+02 0.  0.
         12    1    1    2    0    0 -0.29798101976E+02 -0.22786006425E+01 -0.31472274246E+02  0.43400725207E+02  0.00000000000E+00 0. -1.
         11    1    3    3    0    0  0.42938456846E+01 -0.32888526641E+01 -0.66565449876E-01  0.54090751363E+01  0.51100000000E-03 0. -1.
        -11    1    3    3    0    0  0.10033304763E+02 -0.60681256266E+00  0.19118842280E+02  0.21600128618E+02  0.51100000000E-03 0.  1.
         12    1    3    3    0    0  0.15470951529E+02  0.61742658693E+01  0.12419997416E+02  0.20778071038E+02  0.00000000000E+00 0. -1.
</event>
<event>
 7    1  0.1736465E-010  0.4778727E+02  0.7816164E-02  0.1312668E+00
        -11   -1    0    0    0    0  0.00000000000E+00  0.00000000000E+00  0.45593999997E+02  0.45594000000E+02  0.51100000000E-03 0.  1.
         11   -1    0    0    0    0 -0.00000000000E+00 -0.00000000000E+00 -0.45593999997E+02  0.45594000000E+02  0.51100000000E-03 0. -1.
    9900012    2    1    2    0    0  0.75438974745E+01  0.31929239116E+02  0.28411909907E+02  0.47787270464E+02  0.19999997356E+02 0.  0.
         12    1    1    2    0    0 -0.75438974745E+01 -0.31929239116E+02 -0.28411909907E+02  0.43400729536E+02  0.00000000000E+00 0. -1.
         11    1    3    3    0    0  0.86145600205E+01  0.16383443246E+02  0.23540470594E+02  0.29946312176E+02  0.51100000000E-03 0. -1.
        -11    1    3    3    0    0  0.75021761197E+00  0.15848264301E+01 -0.15742326830E+01  0.23564189101E+01  0.51100000000E-03 0.  1.
        -12    1    3    3    0    0 -0.18208801580E+01  0.13960969440E+02  0.64456719968E+01  0.15484539378E+02  0.00000000000E+00 0.  1.
</event>
<event>
 7    1  0.1736465E-010  0.4778727E+02  0.7816164E-02  0.1312668E+00
        -11   -1    0    0    0    0  0.00000000000E+00  0.00000000000E+00  0.45593999997E+02  0.45594000000E+02  0.51100000000E-03 0.  1.
         11   -1    0    0    0    0 -0.00000000000E+00 -0.00000000000E+00 -0.45593999997E+02  0.45594000000E+02  0.51100000000E-03 0. -1.
    9900012    2    1    2    0    0  0.96438667927E+01 -0.37534265365E+02  0.19539654716E+02  0.47787270172E+02  0.19999996021E+02 0.  0.
         12    1    1    2    0    0 -0.96438667927E+01  0.37534265365E+02 -0.19539654716E+02  0.43400729828E+02  0.00000000000E+00 0. -1.
         11    1    3    3    0    0 -0.31117473571E+01 -0.25350999132E+01  0.29580261504E+01  0.49859424537E+01  0.51100000000E-03 0. -1.
        -11    1    3    3    0    0  0.81081988665E+01 -0.14493379319E+02  0.13799368385E+02  0.21592209267E+02  0.51100000000E-03 0.  1.
         12    1    3    3    0    0  0.46474152833E+01 -0.20505786133E+02  0.27822601799E+01  0.21209118451E+02  0.00000000000E+00 0. -1.
</event>
<event>
 7    1  0.1736465E-010  0.4778728E+02  0.7816164E-02  0.1312668E+00
        -11   -1    0    0    0    0  0.00000000000E+00  0.00000000000E+00  0.45593999997E+02  0.45594000000E+02  0.51100000000E-03 0. -1.
         11   -1    0    0    0    0 -0.00000000000E+00 -0.00000000000E+00 -0.45593999997E+02  0.45594000000E+02  0.51100000000E-03 0.  1.
    9900012    2    1    2    0    0  0.17231840845E+02 -0.30877858455E+02 -0.25164332761E+02  0.47787284280E+02  0.20000060347E+02 0.  0.
         12    1    1    2    0    0 -0.17231840845E+02  0.30877858455E+02  0.25164332761E+02  0.43400715720E+02  0.00000000000E+00 0. -1.
         11    1    3    3    0    0  0.31373694244E+01  0.92121989324E+00 -0.76381531382E+00  0.33578485808E+01  0.51100000000E-03 0. -1.
        -11    1    3    3    0    0  0.15440246491E+02 -0.20072394827E+02 -0.16844268121E+02  0.30414332388E+02  0.51100000000E-03 0.  1.
        -12    1    3    3    0    0 -0.13457750710E+01 -0.11726683522E+02 -0.75562493257E+01  0.14015103311E+02  0.00000000000E+00 0.  1.
</event>
<event>
 7    1  0.1736465E-010  0.4778727E+02  0.7816164E-02  0.1312668E+00
        -11   -1    0    0    0    0  0.00000000000E+00  0.00000000000E+00  0.45593999997E+02  0.45594000000E+02  0.51100000000E-03 0. -1.
         11   -1    0    0    0    0 -0.00000000000E+00 -0.00000000000E+00 -0.45593999997E+02  0.45594000000E+02  0.51100000000E-03 0.  1.
    9900012    2    1    2    0    0  0.37928908782E+01  0.24236959932E+02 -0.35802332489E+02  0.47787271208E+02  0.20000000748E+02 0.  0.
         12    1    1    2    0    0 -0.37928908782E+01 -0.24236959932E+02  0.35802332489E+02  0.43400728792E+02  0.00000000000E+00 0. -1.
         11    1    3    3    0    0 -0.88719256728E+00 -0.24197868302E+01 -0.19442170899E+01  0.32283833893E+01  0.51100000000E-03 0. -1.
        -11    1    3    3    0    0  0.72572271070E+01  0.11547441608E+02 -0.16169808248E+02  0.21153568304E+02  0.51100000000E-03 0.  1.
         12    1    3    3    0    0 -0.25771436616E+01  0.15109305154E+02 -0.17688307152E+02  0.23405319515E+02  0.00000000000E+00 0. -1.
</event>
<event>
 7    1  0.1736465E-010  0.4778727E+02  0.7816164E-02  0.1312668E+00
        -11   -1    0    0    0    0  0.00000000000E+00  0.00000000000E+00  0.45593999997E+02  0.45594000000E+02  0.51100000000E-03 0. -1.
         11   -1    0    0    0    0 -0.00000000000E+00 -0.00000000000E+00 -0.45593999997E+02  0.45594000000E+02  0.51100000000E-03 0.  1.
    9900012    2    1    2    0    0  0.11186750395E+02 -0.15967067462E+02 -0.38775411347E+02  0.47787272439E+02  0.20000006358E+02 0.  0.
         12    1    1    2    0    0 -0.11186750395E+02  0.15967067462E+02  0.38775411347E+02  0.43400727561E+02  0.00000000000E+00 0. -1.
         11    1    3    3    0    0 -0.19902808847E+01 -0.31237427113E+01 -0.13870181609E+02  0.14356215541E+02  0.51100000000E-03 0. -1.
        -11    1    3    3    0    0  0.11352177013E+02 -0.12017052111E+02 -0.26247623852E+02  0.31019658646E+02  0.51100000000E-03 0.  1.
        -12    1    3    3    0    0  0.18248542675E+01 -0.82627263891E+00  0.13423941145E+01  0.24113982521E+01  0.00000000000E+00 0.  1.
</event>
<event>
 7    1  0.1736465E-010  0.4778727E+02  0.7816164E-02  0.1312668E+00
        -11   -1    0    0    0    0  0.00000000000E+00  0.00000000000E+00  0.45593999997E+02  0.45594000000E+02  0.51100000000E-03 0.  1.
         11   -1    0    0    0    0 -0.00000000000E+00 -0.00000000000E+00 -0.45593999997E+02  0.45594000000E+02  0.51100000000E-03 0. -1.
    9900012    2    1    2    0    0 -0.51326894600E+01 -0.14687940204E+02  0.40515958574E+02  0.47787274341E+02  0.20000015033E+02 0.  0.
         12    1    1    2    0    0  0.51326894600E+01  0.14687940204E+02 -0.40515958574E+02  0.43400725659E+02  0.00000000000E+00 0. -1.
         11    1    3    3    0    0 -0.38810977808E+00 -0.10866412117E+02  0.17229778863E+02  0.20373875955E+02  0.51100000000E-03 0. -1.
        -11    1    3    3    0    0 -0.86188024780E+01 -0.41859607061E+01  0.20496304829E+02  0.22625307403E+02  0.51100000000E-03 0.  1.
        -12    1    3    3    0    0  0.38742227962E+01  0.36443261938E+00  0.27898748823E+01  0.47880909836E+01  0.00000000000E+00 0.  1.
</event>
<event>
 7    1  0.1736465E-010  0.4778727E+02  0.7816164E-02  0.1312668E+00
        -11   -1    0    0    0    0  0.00000000000E+00  0.00000000000E+00  0.45593999997E+02  0.45594000000E+02  0.51100000000E-03 0. -1.
         11   -1    0    0    0    0 -0.00000000000E+00 -0.00000000000E+00 -0.45593999997E+02  0.45594000000E+02  0.51100000000E-03 0.  1.
    9900012    2    1    2    0    0 -0.10427642225E+02  0.42065105169E+02  0.23270118338E+01  0.47787265222E+02  0.19999973452E+02 0.  0.
         12    1    1    2    0    0  0.10427642225E+02 -0.42065105169E+02 -0.23270118338E+01  0.43400734778E+02  0.00000000000E+00 0. -1.
         11    1    3    3    0    0 -0.64980028924E+01  0.60157348169E+01 -0.53362315024E+01  0.10338688209E+02  0.51100000000E-03 0. -1.
        -11    1    3    3    0    0  0.60148336885E+00  0.10804453460E+02  0.56400162816E+00  0.10835870750E+02  0.51100000000E-03 0.  1.
         12    1    3    3    0    0 -0.45311227011E+01  0.25244916892E+02  0.70992417080E+01  0.26612706263E+02  0.00000000000E+00 0. -1.
</event>
<event>
 7    1  0.1931996E-010  0.4778727E+02  0.7816164E-02  0.1312668E+00
        -11   -1    0    0    0    0  0.00000000000E+00  0.00000000000E+00  0.45593999997E+02  0.45594000000E+02  0.51100000000E-03 0.  1.
         11   -1    0    0    0    0 -0.00000000000E+00 -0.00000000000E+00 -0.45593999997E+02  0.45594000000E+02  0.51100000000E-03 0. -1.
    9900012    2    1    2    0    0  0.61141255748E+01 -0.34379306352E+02  0.25774091846E+02  0.47787273655E+02  0.20000011901E+02 0.  0.
         12    1    1    2    0    0 -0.61141255748E+01  0.34379306352E+02 -0.25774091846E+02  0.43400726345E+02  0.00000000000E+00 0. -1.
         11    1    3    3    0    0  0.22048687934E+01 -0.12438683212E+01 -0.18282638090E+01  0.31226917256E+01  0.51100000000E-03 0. -1.
        -11    1    3    3    0    0  0.67723130538E+01 -0.13457549697E+02  0.14051211333E+02  0.20601126380E+02  0.51100000000E-03 0.  1.
        -12    1    3    3    0    0 -0.28630562724E+01 -0.19677888334E+02  0.13551144322E+02  0.24063455549E+02  0.00000000000E+00 0.  1.
</event>
<event>
 7    1  0.1736465E-010  0.4778727E+02  0.7816164E-02  0.1312668E+00
        -11   -1    0    0    0    0  0.00000000000E+00  0.00000000000E+00  0.45593999997E+02  0.45594000000E+02  0.51100000000E-03 0. -1.
         11   -1    0    0    0    0 -0.00000000000E+00 -0.00000000000E+00 -0.45593999997E+02  0.45594000000E+02  0.51100000000E-03 0.  1.
    9900012    2    1    2    0    0 -0.41073664290E+02  0.73957276246E+01  0.11911363640E+02  0.47787271100E+02  0.20000000254E+02 0.  0.
         12    1    1    2    0    0  0.41073664290E+02 -0.73957276246E+01 -0.11911363640E+02  0.43400728900E+02  0.00000000000E+00 0. -1.
         11    1    3    3    0    0 -0.16117520121E+02 -0.70661270745E+00 -0.10700968214E+01  0.16168452735E+02  0.51100000000E-03 0. -1.
        -11    1    3    3    0    0 -0.25664465961E+02  0.73930815285E+01  0.10076403848E+02  0.28545689383E+02  0.51100000000E-03 0.  1.
        -12    1    3    3    0    0  0.70832179292E+00  0.70925880354E+00  0.29050566137E+01  0.30731289823E+01  0.00000000000E+00 0.  1.
</event>
<event>
 7    1  0.1736465E-010  0.4778727E+02  0.7816164E-02  0.1312668E+00
        -11   -1    0    0    0    0  0.00000000000E+00  0.00000000000E+00  0.45593999997E+02  0.45594000000E+02  0.51100000000E-03 0.  1.
         11   -1    0    0    0    0 -0.00000000000E+00 -0.00000000000E+00 -0.45593999997E+02  0.45594000000E+02  0.51100000000E-03 0. -1.
    9900012    2    1    2    0    0  0.35964015225E+02  0.19171096557E+02 -0.14922530126E+02  0.47787271438E+02  0.20000001796E+02 0.  0.
         12    1    1    2    0    0 -0.35964015225E+02 -0.19171096557E+02  0.14922530126E+02  0.43400728562E+02  0.00000000000E+00 0. -1.
         11    1    3    3    0    0  0.15627798377E+02  0.76807742897E+00 -0.57795379639E+01  0.16679960564E+02  0.51100000000E-03 0. -1.
        -11    1    3    3    0    0  0.18835492168E+02  0.13946171481E+02 -0.33957911627E+01  0.23681276614E+02  0.51100000000E-03 0.  1.
         12    1    3    3    0    0  0.15007246801E+01  0.44568476474E+01 -0.57472009996E+01  0.74260342611E+01  0.00000000000E+00 0. -1.
</event>
<event>
 7    1  0.1736465E-010  0.4778728E+02  0.7816164E-02  0.1312668E+00
        -11   -1    0    0    0    0  0.00000000000E+00  0.00000000000E+00  0.45593999997E+02  0.45594000000E+02  0.51100000000E-03 0.  1.
         11   -1    0    0    0    0 -0.00000000000E+00 -0.00000000000E+00 -0.45593999997E+02  0.45594000000E+02  0.51100000000E-03 0. -1.
    9900012    2    1    2    0    0 -0.92735997802E+01 -0.23386424833E+02  0.35365211174E+02  0.47787277878E+02  0.20000031156E+02 0.  0.
         12    1    1    2    0    0  0.92735997802E+01  0.23386424833E+02 -0.35365211174E+02  0.43400722122E+02  0.00000000000E+00 0. -1.
         11    1    3    3    0    0  0.35577324165E+01 -0.11044065559E+01  0.36764519847E+01  0.52338774580E+01  0.51100000000E-03 0. -1.
        -11    1    3    3    0    0 -0.52665610682E+01 -0.19235426024E+02  0.25167886036E+02  0.32111692070E+02  0.51100000000E-03 0.  1.
         12    1    3    3    0    0 -0.75647711285E+01 -0.30465922523E+01  0.65208731530E+01  0.10441708350E+02  0.00000000000E+00 0. -1.
</event>
<event>
 7    1  0.1736465E-010  0.4778727E+02  0.7816164E-02  0.1312668E+00
        -11   -1    0    0    0    0  0.00000000000E+00  0.00000000000E+00  0.45593999997E+02  0.45594000000E+02  0.51100000000E-03 0. -1.
         11   -1    0    0    0    0 -0.00000000000E+00 -0.00000000000E+00 -0.45593999997E+02  0.45594000000E+02  0.51100000000E-03 0.  1.
    9900012    2    1    2    0    0 -0.21905164429E+02 -0.35765241043E+02 -0.11163994973E+02  0.47787268678E+02  0.19999989210E+02 0.  0.
         12    1    1    2    0    0  0.21905164429E+02  0.35765241043E+02  0.11163994973E+02  0.43400731322E+02  0.00000000000E+00 0. -1.
         11    1    3    3    0    0  0.27328205892E-01 -0.51176131127E+01 -0.54054337149E+01  0.74437507152E+01  0.51100000000E-03 0. -1.
        -11    1    3    3    0    0 -0.17500137590E+02 -0.25920198212E+02 -0.97174092346E+01  0.32749649365E+02  0.51100000000E-03 0.  1.
        -12    1    3    3    0    0 -0.44323550445E+01 -0.47274297187E+01  0.39588479765E+01  0.75938685982E+01  0.00000000000E+00 0.  1.
</event>
<event>
 7    1  0.1736465E-010  0.4778727E+02  0.7816164E-02  0.1312668E+00
        -11   -1    0    0    0    0  0.00000000000E+00  0.00000000000E+00  0.45593999997E+02  0.45594000000E+02  0.51100000000E-03 0.  1.
         11   -1    0    0    0    0 -0.00000000000E+00 -0.00000000000E+00 -0.45593999997E+02  0.45594000000E+02  0.51100000000E-03 0. -1.
    9900012    2    1    2    0    0  0.29989015843E+02  0.11083392579E+02 -0.29350306820E+02  0.47787272210E+02  0.20000005315E+02 0.  0.
         12    1    1    2    0    0 -0.29989015843E+02 -0.11083392579E+02  0.29350306820E+02  0.43400727790E+02  0.00000000000E+00 0. -1.
         11    1    3    3    0    0  0.12583341778E+02 -0.11282662891E+01 -0.19066950065E+02  0.22872736176E+02  0.51100000000E-03 0. -1.
        -11    1    3    3    0    0  0.20209346163E+01  0.49810605603E+01 -0.75818402577E+00  0.54286263739E+01  0.51100000000E-03 0.  1.
        -12    1    3    3    0    0  0.15384739448E+02  0.72305983080E+01 -0.95251727287E+01  0.19485909661E+02  0.00000000000E+00 0.  1.
</event>
<event>
 7    1  0.1736465E-010  0.4778727E+02  0.7816164E-02  0.1312668E+00
        -11   -1    0    0    0    0  0.00000000000E+00  0.00000000000E+00  0.45593999997E+02  0.45594000000E+02  0.51100000000E-03 0.  1.
         11   -1    0    0    0    0 -0.00000000000E+00 -0.00000000000E+00 -0.45593999997E+02  0.45594000000E+02  0.51100000000E-03 0. -1.
    9900012    2    1    2    0    0 -0.43224280236E+02 -0.38788729950E+01 -0.48958834526E+00  0.47787265509E+02  0.19999974761E+02 0.  0.
         12    1    1    2    0    0  0.43224280236E+02  0.38788729950E+01  0.48958834526E+00  0.43400734491E+02  0.00000000000E+00 0. -1.
         11    1    3    3    0    0 -0.57711325567E+01  0.29205979408E+01 -0.33186754359E+01  0.72697641109E+01  0.51100000000E-03 0. -1.
        -11    1    3    3    0    0 -0.34491358659E+02 -0.52103058546E+01 -0.16450825207E+01  0.34921446219E+02  0.51100000000E-03 0.  1.
         12    1    3    3    0    0 -0.29617890198E+01 -0.15891650812E+01  0.44741696113E+01  0.55960551788E+01  0.00000000000E+00 0. -1.
</event>
<event>
 7    1  0.1736465E-010  0.4778727E+02  0.7816164E-02  0.1312668E+00
        -11   -1    0    0    0    0  0.00000000000E+00  0.00000000000E+00  0.45593999997E+02  0.45594000000E+02  0.51100000000E-03 0.  1.
         11   -1    0    0    0    0 -0.00000000000E+00 -0.00000000000E+00 -0.45593999997E+02  0.45594000000E+02  0.51100000000E-03 0. -1.
    9900012    2    1    2    0    0  0.15682475052E+02  0.27769165156E+02  0.29437335371E+02  0.47787271078E+02  0.20000000153E+02 0.  0.
         12    1    1    2    0    0 -0.15682475052E+02 -0.27769165156E+02 -0.29437335371E+02  0.43400728922E+02  0.00000000000E+00 0. -1.
         11    1    3    3    0    0 -0.24041383296E+01  0.36917355497E+00  0.11033402548E+00  0.24348191062E+01  0.51100000000E-03 0. -1.
        -11    1    3    3    0    0 -0.94961541627E+00  0.52647576342E+01  0.54510779825E+01  0.76376497575E+01  0.51100000000E-03 0.  1.
        -12    1    3    3    0    0  0.19036228798E+02  0.22135233967E+02  0.23875923363E+02  0.37714802214E+02  0.00000000000E+00 0.  1.
</event>
<event>
 7    1  0.1736465E-010  0.4778727E+02  0.7816164E-02  0.1312668E+00
        -11   -1    0    0    0    0  0.00000000000E+00  0.00000000000E+00  0.45593999997E+02  0.45594000000E+02  0.51100000000E-03 0.  1.
         11   -1    0    0    0    0 -0.00000000000E+00 -0.00000000000E+00 -0.45593999997E+02  0.45594000000E+02  0.51100000000E-03 0. -1.
    9900012    2    1    2    0    0  0.78167419593E+01 -0.35786005773E+02  0.23278391282E+02  0.47787272302E+02  0.20000005732E+02 0.  0.
         12    1    1    2    0    0 -0.78167419593E+01  0.35786005773E+02 -0.23278391282E+02  0.43400727698E+02  0.00000000000E+00 0. -1.
         11    1    3    3    0    0  0.65214863642E+01 -0.93110884542E+01  0.15635547131E+02  0.19331230870E+02  0.51100000000E-03 0. -1.
        -11    1    3    3    0    0 -0.22626759427E+01 -0.39064552529E+01  0.63903110156E+00  0.45594359382E+01  0.51100000000E-03 0.  1.
         12    1    3    3    0    0  0.35579315378E+01 -0.22568462066E+02  0.70038130491E+01  0.23896605493E+02  0.00000000000E+00 0. -1.
</event>
<event>
 7    1  0.1736465E-010  0.4778730E+02  0.7816164E-02  0.1312668E+00
        -11   -1    0    0    0    0  0.00000000000E+00  0.00000000000E+00  0.45593999997E+02  0.45594000000E+02  0.51100000000E-03 0.  1.
         11   -1    0    0    0    0 -0.00000000000E+00 -0.00000000000E+00 -0.45593999997E+02  0.45594000000E+02  0.51100000000E-03 0. -1.
    9900012    2    1    2    0    0 -0.22347271355E+02  0.31190121340E+02  0.20282916712E+02  0.47787298202E+02  0.20000123821E+02 0.  0.
         12    1    1    2    0    0  0.22347271355E+02 -0.31190121340E+02 -0.20282916712E+02  0.43400701798E+02  0.00000000000E+00 0. -1.
         11    1    3    3    0    0 -0.13348823208E+02  0.13605259953E+02  0.15093602674E+02  0.24312774859E+02  0.51100000000E-03 0. -1.
        -11    1    3    3    0    0 -0.42310874384E+01  0.16419105951E+01  0.51091689479E+01  0.68338553477E+01  0.51100000000E-03 0.  1.
         12    1    3    3    0    0 -0.47673607087E+01  0.15942950792E+02  0.80145090568E-01  0.16640667995E+02  0.00000000000E+00 0. -1.
</event>
<event>
 7    1  0.1736465E-010  0.4778727E+02  0.7816164E-02  0.1312668E+00
        -11   -1    0    0    0    0  0.00000000000E+00  0.00000000000E+00  0.45593999997E+02  0.45594000000E+02  0.51100000000E-03 0.  1.
         11   -1    0    0    0    0 -0.00000000000E+00 -0.00000000000E+00 -0.45593999997E+02  0.45594000000E+02  0.51100000000E-03 0. -1.
    9900012    2    1    2    0    0 -0.12761587056E+02  0.36372264675E+02  0.19945518722E+02  0.47787268913E+02  0.19999990282E+02 0.  0.
         12    1    1    2    0    0  0.12761587056E+02 -0.36372264675E+02 -0.19945518722E+02  0.43400731087E+02  0.00000000000E+00 0. -1.
         11    1    3    3    0    0  0.11203487076E+01  0.43442961843E+01 -0.19941092920E+01  0.49096397722E+01  0.51100000000E-03 0. -1.
        -11    1    3    3    0    0 -0.13015139798E+02  0.28732611049E+02  0.14543410605E+02  0.34734242383E+02  0.51100000000E-03 0.  1.
         12    1    3    3    0    0 -0.86679596486E+00  0.32953574417E+01  0.73962174094E+01  0.81433867574E+01  0.00000000000E+00 0. -1.
</event>
<event>
 7    1  0.1736465E-010  0.4778727E+02  0.7816164E-02  0.1312668E+00
        -11   -1    0    0    0    0  0.00000000000E+00  0.00000000000E+00  0.45593999997E+02  0.45594000000E+02  0.51100000000E-03 0.  1.
         11   -1    0    0    0    0 -0.00000000000E+00 -0.00000000000E+00 -0.45593999997E+02  0.45594000000E+02  0.51100000000E-03 0. -1.
    9900012    2    1    2    0    0  0.22663905225E+02  0.36451904207E+02  0.64210301627E+01  0.47787267878E+02  0.19999985562E+02 0.  0.
         12    1    1    2    0    0 -0.22663905225E+02 -0.36451904207E+02 -0.64210301627E+01  0.43400732122E+02  0.00000000000E+00 0. -1.
         11    1    3    3    0    0  0.66108633748E+01  0.56730278043E+01  0.10695244657E+01  0.87767101965E+01  0.51100000000E-03 0. -1.
        -11    1    3    3    0    0  0.10128898222E+02  0.39483220642E+01 -0.63279768643E+00  0.10889640007E+02  0.51100000000E-03 0.  1.
        -12    1    3    3    0    0  0.59241436286E+01  0.26830554339E+02  0.59843033834E+01  0.28120917674E+02  0.00000000000E+00 0.  1.
</event>
<event>
 7    1  0.1736465E-010  0.4778727E+02  0.7816164E-02  0.1312668E+00
        -11   -1    0    0    0    0  0.00000000000E+00  0.00000000000E+00  0.45593999997E+02  0.45594000000E+02  0.51100000000E-03 0.  1.
         11   -1    0    0    0    0 -0.00000000000E+00 -0.00000000000E+00 -0.45593999997E+02  0.45594000000E+02  0.51100000000E-03 0. -1.
    9900012    2    1    2    0    0 -0.22220144368E+02 -0.34297395721E+02  0.14614277269E+02  0.47787271100E+02  0.20000000253E+02 0.  0.
         12    1    1    2    0    0  0.22220144368E+02  0.34297395721E+02 -0.14614277269E+02  0.43400728900E+02  0.00000000000E+00 0. -1.
         11    1    3    3    0    0  0.18571188990E+01 -0.16468783376E+01 -0.84259681767E+00  0.26212723098E+01  0.51100000000E-03 0.  1.
        -11    1    3    3    0    0 -0.11026319567E+02 -0.23987387759E+02  0.12560574618E+02  0.29235980054E+02  0.51100000000E-03 0. -1.
         12    1    3    3    0    0 -0.13050943699E+02 -0.86631296236E+01  0.28962994690E+01  0.15930018736E+02  0.00000000000E+00 0. -1.
</event>
<event>
 7    1  0.1736465E-010  0.4778727E+02  0.7816164E-02  0.1312668E+00
        -11   -1    0    0    0    0  0.00000000000E+00  0.00000000000E+00  0.45593999997E+02  0.45594000000E+02  0.51100000000E-03 0.  1.
         11   -1    0    0    0    0 -0.00000000000E+00 -0.00000000000E+00 -0.45593999997E+02  0.45594000000E+02  0.51100000000E-03 0. -1.
    9900012    2    1    2    0    0  0.91366363910E+01  0.32884033484E+02  0.26810181383E+02  0.47787267190E+02  0.19999982424E+02 0.  0.
         12    1    1    2    0    0 -0.91366363910E+01 -0.32884033484E+02 -0.26810181383E+02  0.43400732810E+02  0.00000000000E+00 0. -1.
         11    1    3    3    0    0 -0.14695250226E+00  0.11092545862E+02  0.55493198696E+01  0.12404076750E+02  0.51100000000E-03 0. -1.
        -11    1    3    3    0    0  0.60307656601E+01  0.18331180422E+00  0.23167031974E+01  0.64630373379E+01  0.51100000000E-03 0.  1.
        -12    1    3    3    0    0  0.32528232331E+01  0.21608175818E+02  0.18944158316E+02  0.28920153102E+02  0.00000000000E+00 0.  1.
</event>
<event>
 7    1  0.1736465E-010  0.4778727E+02  0.7816164E-02  0.1312668E+00
        -11   -1    0    0    0    0  0.00000000000E+00  0.00000000000E+00  0.45593999997E+02  0.45594000000E+02  0.51100000000E-03 0.  1.
         11   -1    0    0    0    0 -0.00000000000E+00 -0.00000000000E+00 -0.45593999997E+02  0.45594000000E+02  0.51100000000E-03 0. -1.
    9900012    2    1    2    0    0 -0.27528575541E+02  0.24065372831E+02  0.23380731124E+02  0.47787271565E+02  0.20000002373E+02 0.  0.
         12    1    1    2    0    0  0.27528575541E+02 -0.24065372831E+02 -0.23380731124E+02  0.43400728435E+02  0.00000000000E+00 0. -1.
         11    1    3    3    0    0 -0.99433199958E+01  0.62648904853E+01  0.19532370074E+01  0.11913588897E+02  0.51100000000E-03 0. -1.
        -11    1    3    3    0    0 -0.10987036860E+02  0.19106862379E+02  0.16679559178E+02  0.27640457007E+02  0.51100000000E-03 0.  1.
        -12    1    3    3    0    0 -0.65982186845E+01 -0.13063800333E+01  0.47479349388E+01  0.82332256609E+01  0.00000000000E+00 0.  1.
</event>
<event>
 7    1  0.1736465E-010  0.4778727E+02  0.7816164E-02  0.1312668E+00
        -11   -1    0    0    0    0  0.00000000000E+00  0.00000000000E+00  0.45593999997E+02  0.45594000000E+02  0.51100000000E-03 0.  1.
         11   -1    0    0    0    0 -0.00000000000E+00 -0.00000000000E+00 -0.45593999997E+02  0.45594000000E+02  0.51100000000E-03 0. -1.
    9900012    2    1    2    0    0 -0.12573550346E+02  0.21961296788E+02  0.35259473638E+02  0.47787271825E+02  0.20000003558E+02 0.  0.
         12    1    1    2    0    0  0.12573550346E+02 -0.21961296788E+02 -0.35259473638E+02  0.43400728175E+02  0.00000000000E+00 0. -1.
         11    1    3    3    0    0 -0.43695152573E+01 -0.78145195711E+00  0.71343177250E+01  0.84024889412E+01  0.51100000000E-03 0. -1.
        -11    1    3    3    0    0 -0.11330001857E+02  0.18729039712E+02  0.25670886270E+02  0.33736334608E+02  0.51100000000E-03 0.  1.
         12    1    3    3    0    0  0.31259667686E+01  0.40137090339E+01  0.24542696424E+01  0.56484482758E+01  0.00000000000E+00 0. -1.
</event>
<event>
 7    1  0.1736465E-010  0.4778724E+02  0.7816164E-02  0.1312668E+00
        -11   -1    0    0    0    0  0.00000000000E+00  0.00000000000E+00  0.45593999997E+02  0.45594000000E+02  0.51100000000E-03 0.  1.
         11   -1    0    0    0    0 -0.00000000000E+00 -0.00000000000E+00 -0.45593999997E+02  0.45594000000E+02  0.51100000000E-03 0. -1.
    9900012    2    1    2    0    0 -0.47323984102E+00 -0.21373838842E+01  0.43345511569E+02  0.47787242645E+02  0.19999870514E+02 0.  0.
         12    1    1    2    0    0  0.47323984102E+00  0.21373838842E+01 -0.43345511569E+02  0.43400757355E+02  0.00000000000E+00 0. -1.
         11    1    3    3    0    0  0.30311698712E+01  0.20001477357E+00  0.11260542535E+01  0.32397523270E+01  0.51100000000E-03 0. -1.
        -11    1    3    3    0    0  0.98737701719E+00  0.32336621900E+01  0.31362166560E+02  0.31543889680E+02  0.51100000000E-03 0.  1.
        -12    1    3    3    0    0 -0.44917867294E+01 -0.55710608478E+01  0.10857290755E+02  0.13003600638E+02  0.00000000000E+00 0.  1.
</event>
<event>
 7    1  0.1736465E-010  0.4778726E+02  0.7816164E-02  0.1312668E+00
        -11   -1    0    0    0    0  0.00000000000E+00  0.00000000000E+00  0.45593999997E+02  0.45594000000E+02  0.51100000000E-03 0.  1.
         11   -1    0    0    0    0 -0.00000000000E+00 -0.00000000000E+00 -0.45593999997E+02  0.45594000000E+02  0.51100000000E-03 0. -1.
    9900012    2    1    2    0    0  0.32528290374E+02  0.22471476764E+02 -0.17904381473E+02  0.47787264770E+02  0.19999971391E+02 0.  0.
         12    1    1    2    0    0 -0.32528290374E+02 -0.22471476764E+02  0.17904381473E+02  0.43400735230E+02  0.00000000000E+00 0. -1.
         11    1    3    3    0    0  0.13216551005E+02  0.81532262991E+01 -0.10284159608E+01  0.15563096068E+02  0.51100000000E-03 0. -1.
        -11    1    3    3    0    0  0.10734417732E+02  0.21635221043E+01 -0.18975175481E+01  0.11113465934E+02  0.51100000000E-03 0.  1.
         12    1    3    3    0    0  0.85773216360E+01  0.12154728361E+02 -0.14978447964E+02  0.21110702769E+02  0.00000000000E+00 0. -1.
</event>
<event>
 7    1  0.1736465E-010  0.4778727E+02  0.7816164E-02  0.1312668E+00
        -11   -1    0    0    0    0  0.00000000000E+00  0.00000000000E+00  0.45593999997E+02  0.45594000000E+02  0.51100000000E-03 0.  1.
         11   -1    0    0    0    0 -0.00000000000E+00 -0.00000000000E+00 -0.45593999997E+02  0.45594000000E+02  0.51100000000E-03 0. -1.
    9900012    2    1    2    0    0 -0.40692107482E+02 -0.14917028753E+02 -0.22930348397E+01  0.47787269972E+02  0.19999995111E+02 0.  0.
         12    1    1    2    0    0  0.40692107482E+02  0.14917028753E+02  0.22930348397E+01  0.43400730028E+02  0.00000000000E+00 0. -1.
         11    1    3    3    0    0 -0.95324526560E+01 -0.38934872483E+01 -0.23183772951E+01  0.10554703697E+02  0.51100000000E-03 0. -1.
        -11    1    3    3    0    0 -0.29172156641E+02 -0.90595624538E+01 -0.55029647648E+01  0.31038250859E+02  0.51100000000E-03 0.  1.
         12    1    3    3    0    0 -0.19874981854E+01 -0.19639790513E+01  0.55283072202E+01  0.61943154159E+01  0.00000000000E+00 0. -1.
</event>
<event>
 7    1  0.1736465E-010  0.4778727E+02  0.7816164E-02  0.1312668E+00
        -11   -1    0    0    0    0  0.00000000000E+00  0.00000000000E+00  0.45593999997E+02  0.45594000000E+02  0.51100000000E-03 0.  1.
         11   -1    0    0    0    0 -0.00000000000E+00 -0.00000000000E+00 -0.45593999997E+02  0.45594000000E+02  0.51100000000E-03 0. -1.
    9900012    2    1    2    0    0  0.16887067129E+02  0.38900652770E+02  0.92298135238E+01  0.47787270976E+02  0.19999999686E+02 0.  0.
         12    1    1    2    0    0 -0.16887067129E+02 -0.38900652770E+02 -0.92298135238E+01  0.43400729024E+02  0.00000000000E+00 0. -1.
         11    1    3    3    0    0  0.16591318124E+02  0.33207005945E+02  0.14267698380E+01  0.37148522896E+02  0.51100000000E-03 0. -1.
        -11    1    3    3    0    0  0.10112016631E+01  0.18191719963E+01  0.21961175259E+00  0.20928796283E+01  0.51100000000E-03 0.  1.
        -12    1    3    3    0    0 -0.71545265809E+00  0.38744748293E+01  0.75834319332E+01  0.85458684517E+01  0.00000000000E+00 0.  1.
</event>
<event>
 7    1  0.1736465E-010  0.4778729E+02  0.7816164E-02  0.1312668E+00
        -11   -1    0    0    0    0  0.00000000000E+00  0.00000000000E+00  0.45593999997E+02  0.45594000000E+02  0.51100000000E-03 0.  1.
         11   -1    0    0    0    0 -0.00000000000E+00 -0.00000000000E+00 -0.45593999997E+02  0.45594000000E+02  0.51100000000E-03 0. -1.
    9900012    2    1    2    0    0  0.16374135745E+01  0.30008667152E+02  0.31311664001E+02  0.47787291135E+02  0.20000091602E+02 0.  0.
         12    1    1    2    0    0 -0.16374135745E+01 -0.30008667152E+02 -0.31311664001E+02  0.43400708865E+02  0.00000000000E+00 0. -1.
         11    1    3    3    0    0 -0.48612652826E+01  0.12291854793E+02  0.49144961233E+01  0.14102264598E+02  0.51100000000E-03 0. -1.
        -11    1    3    3    0    0 -0.14220059786E+01  0.14302862409E+01  0.49029029255E+00  0.20756214892E+01  0.51100000000E-03 0.  1.
        -12    1    3    3    0    0  0.79206848357E+01  0.16286526119E+02  0.25906877585E+02  0.31609405048E+02  0.00000000000E+00 0.  1.
</event>
<event>
 7    1  0.1736465E-010  0.4778727E+02  0.7816164E-02  0.1312668E+00
        -11   -1    0    0    0    0  0.00000000000E+00  0.00000000000E+00  0.45593999997E+02  0.45594000000E+02  0.51100000000E-03 0.  1.
         11   -1    0    0    0    0 -0.00000000000E+00 -0.00000000000E+00 -0.45593999997E+02  0.45594000000E+02  0.51100000000E-03 0. -1.
    9900012    2    1    2    0    0 -0.36408524431E+02 -0.26995807358E+01  0.23468166498E+02  0.47787271594E+02  0.20000002507E+02 0.  0.
         12    1    1    2    0    0  0.36408524431E+02  0.26995807358E+01 -0.23468166498E+02  0.43400728406E+02  0.00000000000E+00 0. -1.
         11    1    3    3    0    0 -0.91088071085E+01 -0.20895553482E+01 -0.37907992255E+00  0.93530909512E+01  0.51100000000E-03 0. -1.
        -11    1    3    3    0    0 -0.95715080432E+01  0.26029825800E+01  0.20046761470E+01  0.10119684345E+02  0.51100000000E-03 0.  1.
        -12    1    3    3    0    0 -0.17728209279E+02 -0.32130079676E+01  0.21842570274E+02  0.28314496298E+02  0.00000000000E+00 0.  1.
</event>
<event>
 7    1  0.1999155E-010  0.4778728E+02  0.7816164E-02  0.1312668E+00
        -11   -1    0    0    0    0  0.00000000000E+00  0.00000000000E+00  0.45593999997E+02  0.45594000000E+02  0.51100000000E-03 0.  1.
         11   -1    0    0    0    0 -0.00000000000E+00 -0.00000000000E+00 -0.45593999997E+02  0.45594000000E+02  0.51100000000E-03 0. -1.
    9900012    2    1    2    0    0 -0.35819893188E+02  0.14102385134E+02  0.20041964966E+02  0.47787281410E+02  0.20000047260E+02 0.  0.
         12    1    1    2    0    0  0.35819893188E+02 -0.14102385134E+02 -0.20041964966E+02  0.43400718590E+02  0.00000000000E+00 0. -1.
         11    1    3    3    0    0 -0.66849324386E+01 -0.11542409347E+01 -0.10047623109E+01  0.68578525361E+01  0.51100000000E-03 0. -1.
        -11    1    3    3    0    0 -0.26151491753E+02  0.95705725294E+01  0.13280389505E+02  0.30852311504E+02  0.51100000000E-03 0.  1.
        -12    1    3    3    0    0 -0.29834689958E+01  0.56860535393E+01  0.77663377718E+01  0.10077117370E+02  0.00000000000E+00 0.  1.
</event>
<event>
 7    1  0.1736465E-010  0.4778726E+02  0.7816164E-02  0.1312668E+00
        -11   -1    0    0    0    0  0.00000000000E+00  0.00000000000E+00  0.45593999997E+02  0.45594000000E+02  0.51100000000E-03 0.  1.
         11   -1    0    0    0    0 -0.00000000000E+00 -0.00000000000E+00 -0.45593999997E+02  0.45594000000E+02  0.51100000000E-03 0. -1.
    9900012    2    1    2    0    0  0.23339011485E+02  0.34218515833E+02  0.12961802633E+02  0.47787255647E+02  0.19999929795E+02 0.  0.
         12    1    1    2    0    0 -0.23339011485E+02 -0.34218515833E+02 -0.12961802633E+02  0.43400744353E+02  0.00000000000E+00 0. -1.
         11    1    3    3    0    0  0.23203546529E+01  0.37774054203E+01  0.61227948891E+01  0.75591967126E+01  0.51100000000E-03 0. -1.
        -11    1    3    3    0    0  0.98996298857E+01  0.64249255848E+01 -0.26812401020E+01  0.12102536486E+02  0.51100000000E-03 0.  1.
        -12    1    3    3    0    0  0.11119026946E+02  0.24016184828E+02  0.95202478463E+01  0.28125522448E+02  0.00000000000E+00 0.  1.
</event>
<event>
 7    1  0.1736465E-010  0.4778727E+02  0.7816164E-02  0.1312668E+00
        -11   -1    0    0    0    0  0.00000000000E+00  0.00000000000E+00  0.45593999997E+02  0.45594000000E+02  0.51100000000E-03 0.  1.
         11   -1    0    0    0    0 -0.00000000000E+00 -0.00000000000E+00 -0.45593999997E+02  0.45594000000E+02  0.51100000000E-03 0. -1.
    9900012    2    1    2    0    0  0.13063613657E+02 -0.16248218970E+01  0.41356079611E+02  0.47787269951E+02  0.19999995014E+02 0.  0.
         12    1    1    2    0    0 -0.13063613657E+02  0.16248218970E+01 -0.41356079611E+02  0.43400730049E+02  0.00000000000E+00 0. -1.
         11    1    3    3    0    0  0.72230192006E+01  0.50379746533E+01  0.56102520855E+01  0.10441653303E+02  0.51100000000E-03 0. -1.
        -11    1    3    3    0    0 -0.23472873225E+00 -0.16084502462E+01  0.15919199404E+02  0.16001972369E+02  0.51100000000E-03 0.  1.
         12    1    3    3    0    0  0.60753231887E+01 -0.50543463041E+01  0.19826628122E+02  0.21343644279E+02  0.00000000000E+00 0. -1.
</event>
<event>
 7    1  0.1736465E-010  0.4778726E+02  0.7816164E-02  0.1312668E+00
        -11   -1    0    0    0    0  0.00000000000E+00  0.00000000000E+00  0.45593999997E+02  0.45594000000E+02  0.51100000000E-03 0.  1.
         11   -1    0    0    0    0 -0.00000000000E+00 -0.00000000000E+00 -0.45593999997E+02  0.45594000000E+02  0.51100000000E-03 0. -1.
    9900012    2    1    2    0    0  0.11238098623E+02  0.71910498315E+01  0.41299128415E+02  0.47787261917E+02  0.19999958382E+02 0.  0.
         12    1    1    2    0    0 -0.11238098623E+02 -0.71910498315E+01 -0.41299128415E+02  0.43400738083E+02  0.00000000000E+00 0. -1.
         11    1    3    3    0    0  0.64443801538E+01  0.25181945885E+01  0.17348313335E+02  0.18677133489E+02  0.51100000000E-03 0. -1.
        -11    1    3    3    0    0  0.76398397095E+01 -0.29318352675E+01  0.95365922724E+01  0.12566200749E+02  0.51100000000E-03 0.  1.
         12    1    3    3    0    0 -0.28461212407E+01  0.76046905104E+01  0.14414222808E+02  0.16543927679E+02  0.00000000000E+00 0. -1.
</event>
<event>
 7    1  0.1736465E-010  0.4778728E+02  0.7816164E-02  0.1312668E+00
        -11   -1    0    0    0    0  0.00000000000E+00  0.00000000000E+00  0.45593999997E+02  0.45594000000E+02  0.51100000000E-03 0.  1.
         11   -1    0    0    0    0 -0.00000000000E+00 -0.00000000000E+00 -0.45593999997E+02  0.45594000000E+02  0.51100000000E-03 0. -1.
    9900012    2    1    2    0    0 -0.17270037467E+02  0.16951060930E+02  0.36028185862E+02  0.47787276074E+02  0.20000022933E+02 0.  0.
         12    1    1    2    0    0  0.17270037467E+02 -0.16951060930E+02 -0.36028185862E+02  0.43400723926E+02  0.00000000000E+00 0. -1.
         11    1    3    3    0    0 -0.63937413642E+00  0.98558266753E+01  0.18683940055E+02  0.21133758184E+02  0.51100000000E-03 0.  1.
        -11    1    3    3    0    0 -0.20740284749E+01 -0.20816844072E+01  0.16861609628E+01  0.33879408406E+01  0.51100000000E-03 0. -1.
        -12    1    3    3    0    0 -0.14556634856E+02  0.91769186622E+01  0.15658084843E+02  0.23265577049E+02  0.00000000000E+00 0.  1.
</event>
<event>
 7    1  0.1736465E-010  0.4778726E+02  0.7816164E-02  0.1312668E+00
        -11   -1    0    0    0    0  0.00000000000E+00  0.00000000000E+00  0.45593999997E+02  0.45594000000E+02  0.51100000000E-03 0.  1.
         11   -1    0    0    0    0 -0.00000000000E+00 -0.00000000000E+00 -0.45593999997E+02  0.45594000000E+02  0.51100000000E-03 0. -1.
    9900012    2    1    2    0    0 -0.16127903727E+02  0.11566356621E+02  0.38597082209E+02  0.47787255315E+02  0.19999928285E+02 0.  0.
         12    1    1    2    0    0  0.16127903727E+02 -0.11566356621E+02 -0.38597082209E+02  0.43400744685E+02  0.00000000000E+00 0. -1.
         11    1    3    3    0    0 -0.20278382085E+01 -0.27312129961E+01  0.19696078684E+01  0.39307769774E+01  0.51100000000E-03 0. -1.
        -11    1    3    3    0    0 -0.14548800423E+02  0.11967803761E+02  0.21677914487E+02  0.28719817154E+02  0.51100000000E-03 0.  1.
         12    1    3    3    0    0  0.44873490448E+00  0.23297658556E+01  0.14949559854E+02  0.15136661184E+02  0.00000000000E+00 0. -1.
</event>
<event>
 7    1  0.1736465E-010  0.4778727E+02  0.7816164E-02  0.1312668E+00
        -11   -1    0    0    0    0  0.00000000000E+00  0.00000000000E+00  0.45593999997E+02  0.45594000000E+02  0.51100000000E-03 0.  1.
         11   -1    0    0    0    0 -0.00000000000E+00 -0.00000000000E+00 -0.45593999997E+02  0.45594000000E+02  0.51100000000E-03 0. -1.
    9900012    2    1    2    0    0 -0.49012231617E+01  0.32143093490E+02  0.28747571776E+02  0.47787270390E+02  0.19999997018E+02 0.  0.
         12    1    1    2    0    0  0.49012231617E+01 -0.32143093490E+02 -0.28747571776E+02  0.43400729610E+02  0.00000000000E+00 0. -1.
         11    1    3    3    0    0 -0.59158368517E+01  0.90616430066E+01  0.82455240932E+01  0.13605115489E+02  0.51100000000E-03 0. -1.
        -11    1    3    3    0    0  0.34677162832E+01  0.24236006107E+02  0.19471219098E+02  0.31281582787E+02  0.51100000000E-03 0.  1.
         12    1    3    3    0    0 -0.24531025932E+01 -0.11545556232E+01  0.10308285848E+01  0.29005721144E+01  0.00000000000E+00 0. -1.
</event>
<event>
 7    1  0.1736465E-010  0.4778727E+02  0.7816164E-02  0.1312668E+00
        -11   -1    0    0    0    0  0.00000000000E+00  0.00000000000E+00  0.45593999997E+02  0.45594000000E+02  0.51100000000E-03 0.  1.
         11   -1    0    0    0    0 -0.00000000000E+00 -0.00000000000E+00 -0.45593999997E+02  0.45594000000E+02  0.51100000000E-03 0. -1.
    9900012    2    1    2    0    0 -0.24030593821E+02  0.32287593975E+02  0.16237770524E+02  0.47787270102E+02  0.19999995705E+02 0.  0.
         12    1    1    2    0    0  0.24030593821E+02 -0.32287593975E+02 -0.16237770524E+02  0.43400729898E+02  0.00000000000E+00 0. -1.
         11    1    3    3    0    0 -0.13004614236E+02  0.53643435855E+01  0.49651656623E+01  0.14918077753E+02  0.51100000000E-03 0. -1.
        -11    1    3    3    0    0 -0.42469049213E+01  0.97733468097E+01  0.96165937324E+01  0.14353863053E+02  0.51100000000E-03 0.  1.
        -12    1    3    3    0    0 -0.67790746635E+01  0.17149903579E+02  0.16560111292E+01  0.18515329296E+02  0.00000000000E+00 0.  1.
</event>
<event>
 7    1  0.1736465E-010  0.4778727E+02  0.7816164E-02  0.1312668E+00
        -11   -1    0    0    0    0  0.00000000000E+00  0.00000000000E+00  0.45593999997E+02  0.45594000000E+02  0.51100000000E-03 0.  1.
         11   -1    0    0    0    0 -0.00000000000E+00 -0.00000000000E+00 -0.45593999997E+02  0.45594000000E+02  0.51100000000E-03 0. -1.
    9900012    2    1    2    0    0  0.14812143859E+02  0.31159057886E+02  0.26331294773E+02  0.47787267535E+02  0.19999983999E+02 0.  0.
         12    1    1    2    0    0 -0.14812143859E+02 -0.31159057886E+02 -0.26331294773E+02  0.43400732465E+02  0.00000000000E+00 0. -1.
         11    1    3    3    0    0  0.29421346359E+00  0.61293866748E+01  0.97473054679E+01  0.11518068706E+02  0.51100000000E-03 0. -1.
        -11    1    3    3    0    0  0.10451382365E+02  0.16560077040E+02  0.30870039333E+01  0.19824155428E+02  0.51100000000E-03 0.  1.
        -12    1    3    3    0    0  0.40665480307E+01  0.84695941717E+01  0.13496985372E+02  0.16445043401E+02  0.00000000000E+00 0.  1.
</event>
<event>
 7    1  0.1736465E-010  0.4778728E+02  0.7816164E-02  0.1312668E+00
        -11   -1    0    0    0    0  0.00000000000E+00  0.00000000000E+00  0.45593999997E+02  0.45594000000E+02  0.51100000000E-03 0.  1.
         11   -1    0    0    0    0 -0.00000000000E+00 -0.00000000000E+00 -0.45593999997E+02  0.45594000000E+02  0.51100000000E-03 0. -1.
    9900012    2    1    2    0    0 -0.29894853815E+02 -0.21298375027E+02  0.23158146292E+02  0.47787276469E+02  0.20000024731E+02 0.  0.
         12    1    1    2    0    0  0.29894853815E+02  0.21298375027E+02 -0.23158146292E+02  0.43400723531E+02  0.00000000000E+00 0. -1.
         11    1    3    3    0    0 -0.98197553591E+01 -0.12659892698E+02  0.16142964324E+02  0.22744137176E+02  0.51100000000E-03 0. -1.
        -11    1    3    3    0    0 -0.30587570368E+01  0.21767399589E+01  0.20535398081E+01  0.42791608364E+01  0.51100000000E-03 0.  1.
         12    1    3    3    0    0 -0.17016341419E+02 -0.10815222288E+02  0.49616421591E+01  0.20763978456E+02  0.00000000000E+00 0. -1.
</event>
<event>
 7    1  0.1736465E-010  0.4778727E+02  0.7816164E-02  0.1312668E+00
        -11   -1    0    0    0    0  0.00000000000E+00  0.00000000000E+00  0.45593999997E+02  0.45594000000E+02  0.51100000000E-03 0. -1.
         11   -1    0    0    0    0 -0.00000000000E+00 -0.00000000000E+00 -0.45593999997E+02  0.45594000000E+02  0.51100000000E-03 0.  1.
    9900012    2    1    2    0    0  0.12278227447E+02 -0.91670896644E+01 -0.40605822392E+02  0.47787271731E+02  0.20000003132E+02 0.  0.
         12    1    1    2    0    0 -0.12278227447E+02  0.91670896644E+01  0.40605822392E+02  0.43400728269E+02  0.00000000000E+00 0. -1.
         11    1    3    3    0    0  0.71488174912E+00  0.13246748067E+01  0.17015617916E+01  0.22718125033E+01  0.51100000000E-03 0. -1.
        -11    1    3    3    0    0  0.11577153636E+01 -0.46029295165E+01 -0.14146686489E+02  0.14921662236E+02  0.51100000000E-03 0.  1.
        -12    1    3    3    0    0  0.10405630334E+02 -0.58888349546E+01 -0.28160697694E+02  0.30593796992E+02  0.00000000000E+00 0.  1.
</event>
<event>
 7    1  0.1736465E-010  0.4778727E+02  0.7816164E-02  0.1312668E+00
        -11   -1    0    0    0    0  0.00000000000E+00  0.00000000000E+00  0.45593999997E+02  0.45594000000E+02  0.51100000000E-03 0.  1.
         11   -1    0    0    0    0 -0.00000000000E+00 -0.00000000000E+00 -0.45593999997E+02  0.45594000000E+02  0.51100000000E-03 0. -1.
    9900012    2    1    2    0    0  0.40353745806E+02  0.11512619883E+02 -0.11075115299E+02  0.47787269638E+02  0.19999993586E+02 0.  0.
         12    1    1    2    0    0 -0.40353745806E+02 -0.11512619883E+02  0.11075115299E+02  0.43400730362E+02  0.00000000000E+00 0. -1.
         11    1    3    3    0    0  0.59805445917E+01  0.15782697908E-01 -0.79796703723E+01  0.99720761238E+01  0.51100000000E-03 0. -1.
        -11    1    3    3    0    0  0.27363612983E+02  0.50988609378E+01 -0.45813995801E+01  0.28209128323E+02  0.51100000000E-03 0.  1.
         12    1    3    3    0    0  0.70095882307E+01  0.63979762470E+01  0.14859546539E+01  0.96060651910E+01  0.00000000000E+00 0. -1.
</event>
<event>
 7    1  0.1736465E-010  0.4778724E+02  0.7816164E-02  0.1312668E+00
        -11   -1    0    0    0    0  0.00000000000E+00  0.00000000000E+00  0.45593999997E+02  0.45594000000E+02  0.51100000000E-03 0.  1.
         11   -1    0    0    0    0 -0.00000000000E+00 -0.00000000000E+00 -0.45593999997E+02  0.45594000000E+02  0.51100000000E-03 0. -1.
    9900012    2    1    2    0    0 -0.32695640641E+01  0.22129053375E+02  0.37191945883E+02  0.47787240894E+02  0.19999862530E+02 0.  0.
         12    1    1    2    0    0  0.32695640641E+01 -0.22129053375E+02 -0.37191945883E+02  0.43400759106E+02  0.00000000000E+00 0. -1.
         11    1    3    3    0    0 -0.58979940902E+01  0.25785222866E+01  0.19555185304E+02  0.20587384099E+02  0.51100000000E-03 0. -1.
        -11    1    3    3    0    0 -0.19834742483E+01  0.85810636264E+01  0.75387387798E+01  0.11593162024E+02  0.51100000000E-03 0.  1.
         12    1    3    3    0    0  0.46119042744E+01  0.10969467462E+02  0.10098021799E+02  0.15606694771E+02  0.00000000000E+00 0. -1.
</event>
<event>
 7    1  0.1940890E-010  0.4778727E+02  0.7816164E-02  0.1312668E+00
        -11   -1    0    0    0    0  0.00000000000E+00  0.00000000000E+00  0.45593999997E+02  0.45594000000E+02  0.51100000000E-03 0.  1.
         11   -1    0    0    0    0 -0.00000000000E+00 -0.00000000000E+00 -0.45593999997E+02  0.45594000000E+02  0.51100000000E-03 0. -1.
    9900012    2    1    2    0    0  0.81638022000E+01  0.36805587242E+02  0.21501730985E+02  0.47787270122E+02  0.19999995794E+02 0.  0.
         12    1    1    2    0    0 -0.81638022000E+01 -0.36805587242E+02 -0.21501730985E+02  0.43400729878E+02  0.00000000000E+00 0. -1.
         11    1    3    3    0    0  0.68128095542E+01  0.11164851174E+02 -0.23313589497E+00  0.13081384803E+02  0.51100000000E-03 0. -1.
        -11    1    3    3    0    0  0.26016817686E+01  0.73318901756E+01  0.10909642829E+02  0.13399465231E+02  0.51100000000E-03 0.  1.
        -12    1    3    3    0    0 -0.12506891229E+01  0.18308845892E+02  0.10825224051E+02  0.21306420087E+02  0.00000000000E+00 0.  1.
</event>
<event>
 7    1  0.1736465E-010  0.4778727E+02  0.7816164E-02  0.1312668E+00
        -11   -1    0    0    0    0  0.00000000000E+00  0.00000000000E+00  0.45593999997E+02  0.45594000000E+02  0.51100000000E-03 0.  1.
         11   -1    0    0    0    0 -0.00000000000E+00 -0.00000000000E+00 -0.45593999997E+02  0.45594000000E+02  0.51100000000E-03 0. -1.
    9900012    2    1    2    0    0 -0.30722163953E+02  0.30503757521E+02  0.30483774609E+01  0.47787272057E+02  0.20000004618E+02 0.  0.
         12    1    1    2    0    0  0.30722163953E+02 -0.30503757521E+02 -0.30483774609E+01  0.43400727943E+02  0.00000000000E+00 0. -1.
         11    1    3    3    0    0 -0.95695730601E+01  0.18783783107E+02  0.30780652421E+01  0.21304500048E+02  0.51100000000E-03 0. -1.
        -11    1    3    3    0    0 -0.11764479638E+02  0.11987790402E+02 -0.19102672376E+01  0.16904414248E+02  0.51100000000E-03 0.  1.
        -12    1    3    3    0    0 -0.93881112542E+01 -0.26781598861E+00  0.18805794564E+01  0.95783577620E+01  0.00000000000E+00 0.  1.
</event>
<event>
 7    1  0.1736465E-010  0.4778727E+02  0.7816164E-02  0.1312668E+00
        -11   -1    0    0    0    0  0.00000000000E+00  0.00000000000E+00  0.45593999997E+02  0.45594000000E+02  0.51100000000E-03 0.  1.
         11   -1    0    0    0    0 -0.00000000000E+00 -0.00000000000E+00 -0.45593999997E+02  0.45594000000E+02  0.51100000000E-03 0. -1.
    9900012    2    1    2    0    0 -0.10687821277E+02  0.41324533618E+02  0.78534419878E+01  0.47787272432E+02  0.20000006327E+02 0.  0.
         12    1    1    2    0    0  0.10687821277E+02 -0.41324533618E+02 -0.78534419878E+01  0.43400727568E+02  0.00000000000E+00 0. -1.
         11    1    3    3    0    0 -0.22455456583E+01  0.62054554306E+01 -0.43337982221E+01  0.78950591951E+01  0.51100000000E-03 0. -1.
        -11    1    3    3    0    0  0.21436457329E+01  0.10775960372E+02  0.64282837568E+01  0.12729468617E+02  0.51100000000E-03 0.  1.
        -12    1    3    3    0    0 -0.10585921351E+02  0.24343117816E+02  0.57589564531E+01  0.27162744620E+02  0.00000000000E+00 0.  1.
</event>
<event>
 7    1  0.1736465E-010  0.4778727E+02  0.7816164E-02  0.1312668E+00
        -11   -1    0    0    0    0  0.00000000000E+00  0.00000000000E+00  0.45593999997E+02  0.45594000000E+02  0.51100000000E-03 0.  1.
         11   -1    0    0    0    0 -0.00000000000E+00 -0.00000000000E+00 -0.45593999997E+02  0.45594000000E+02  0.51100000000E-03 0. -1.
    9900012    2    1    2    0    0  0.23563913263E+02 -0.74888712854E+01  0.35669061022E+02  0.47787272867E+02  0.20000008312E+02 0.  0.
         12    1    1    2    0    0 -0.23563913263E+02  0.74888712854E+01 -0.35669061022E+02  0.43400727133E+02  0.00000000000E+00 0. -1.
         11    1    3    3    0    0  0.51167232282E+01  0.29402950662E+01  0.14264265081E+02  0.15436821248E+02  0.51100000000E-03 0.  1.
        -11    1    3    3    0    0  0.86430097015E+01 -0.86237505829E+01  0.18128891814E+02  0.21856976220E+02  0.51100000000E-03 0. -1.
        -12    1    3    3    0    0  0.98041803337E+01 -0.18054157687E+01  0.32759041272E+01  0.10493475400E+02  0.00000000000E+00 0.  1.
</event>
<event>
 7    1  0.1736465E-010  0.4778727E+02  0.7816164E-02  0.1312668E+00
        -11   -1    0    0    0    0  0.00000000000E+00  0.00000000000E+00  0.45593999997E+02  0.45594000000E+02  0.51100000000E-03 0.  1.
         11   -1    0    0    0    0 -0.00000000000E+00 -0.00000000000E+00 -0.45593999997E+02  0.45594000000E+02  0.51100000000E-03 0. -1.
    9900012    2    1    2    0    0  0.51143683783E+01 -0.50400258284E+00  0.43095386877E+02  0.47787272441E+02  0.20000006368E+02 0.  0.
         12    1    1    2    0    0 -0.51143683783E+01  0.50400258284E+00 -0.43095386877E+02  0.43400727559E+02  0.00000000000E+00 0. -1.
         11    1    3    3    0    0  0.11215463362E+01  0.85552536634E+01  0.24573639722E+02  0.26044462000E+02  0.51100000000E-03 0. -1.
        -11    1    3    3    0    0 -0.63599221396E+00 -0.33961392855E+01  0.29671043153E+01  0.45543338066E+01  0.51100000000E-03 0.  1.
        -12    1    3    3    0    0  0.46288142561E+01 -0.56631169608E+01  0.15554642840E+02  0.17188476635E+02  0.00000000000E+00 0.  1.
</event>
<event>
 7    1  0.1736465E-010  0.4778728E+02  0.7816164E-02  0.1312668E+00
        -11   -1    0    0    0    0  0.00000000000E+00  0.00000000000E+00  0.45593999997E+02  0.45594000000E+02  0.51100000000E-03 0.  1.
         11   -1    0    0    0    0 -0.00000000000E+00 -0.00000000000E+00 -0.45593999997E+02  0.45594000000E+02  0.51100000000E-03 0. -1.
    9900012    2    1    2    0    0 -0.27313650558E+02  0.54182403878E+01  0.33290084311E+02  0.47787279394E+02  0.20000038070E+02 0.  0.
         12    1    1    2    0    0  0.27313650558E+02 -0.54182403878E+01 -0.33290084311E+02  0.43400720606E+02  0.00000000000E+00 0. -1.
         11    1    3    3    0    0 -0.14495421639E+02  0.23138686930E+01  0.55986407931E+01  0.15710379239E+02  0.51100000000E-03 0. -1.
        -11    1    3    3    0    0 -0.53789506789E+01  0.61292430789E+01  0.14322439711E+02  0.16481292749E+02  0.51100000000E-03 0.  1.
        -12    1    3    3    0    0 -0.74392782395E+01 -0.30248713841E+01  0.13369003806E+02  0.15595607407E+02  0.00000000000E+00 0.  1.
</event>
<event>
 7    1  0.1736465E-010  0.4778727E+02  0.7816164E-02  0.1312668E+00
        -11   -1    0    0    0    0  0.00000000000E+00  0.00000000000E+00  0.45593999997E+02  0.45594000000E+02  0.51100000000E-03 0. -1.
         11   -1    0    0    0    0 -0.00000000000E+00 -0.00000000000E+00 -0.45593999997E+02  0.45594000000E+02  0.51100000000E-03 0.  1.
    9900012    2    1    2    0    0 -0.10153324082E+02 -0.31515702498E+02 -0.28058757626E+02  0.47787269898E+02  0.19999994773E+02 0.  0.
         12    1    1    2    0    0  0.10153324082E+02  0.31515702498E+02  0.28058757626E+02  0.43400730102E+02  0.00000000000E+00 0. -1.
         11    1    3    3    0    0  0.29893901271E+01 -0.66678692484E+01 -0.98380100114E+01  0.12254932676E+02  0.51100000000E-03 0. -1.
        -11    1    3    3    0    0 -0.90144277312E+01 -0.10713980218E+02 -0.14883474518E+02  0.20434458481E+02  0.51100000000E-03 0.  1.
        -12    1    3    3    0    0 -0.41282864776E+01 -0.14133853031E+02 -0.33372730971E+01  0.15097878741E+02  0.00000000000E+00 0.  1.
</event>
<event>
 7    1  0.1736465E-010  0.4778727E+02  0.7816164E-02  0.1312668E+00
        -11   -1    0    0    0    0  0.00000000000E+00  0.00000000000E+00  0.45593999997E+02  0.45594000000E+02  0.51100000000E-03 0.  1.
         11   -1    0    0    0    0 -0.00000000000E+00 -0.00000000000E+00 -0.45593999997E+02  0.45594000000E+02  0.51100000000E-03 0. -1.
    9900012    2    1    2    0    0 -0.24576398863E+01  0.49191558671E+01  0.43050965166E+02  0.47787266251E+02  0.19999978143E+02 0.  0.
         12    1    1    2    0    0  0.24576398863E+01 -0.49191558671E+01 -0.43050965166E+02  0.43400733749E+02  0.00000000000E+00 0. -1.
         11    1    3    3    0    0  0.28337525587E+01  0.37818232312E+01  0.22827403595E+01  0.52481658059E+01  0.51100000000E-03 0. -1.
        -11    1    3    3    0    0 -0.69061338199E+01  0.43907930286E+00  0.13103910249E+02  0.14818904785E+02  0.51100000000E-03 0.  1.
        -12    1    3    3    0    0  0.16147413749E+01  0.69825333307E+00  0.27664314558E+02  0.27720195659E+02  0.00000000000E+00 0.  1.
</event>
<event>
 7    1  0.1736465E-010  0.4778727E+02  0.7816164E-02  0.1312668E+00
        -11   -1    0    0    0    0  0.00000000000E+00  0.00000000000E+00  0.45593999997E+02  0.45594000000E+02  0.51100000000E-03 0. -1.
         11   -1    0    0    0    0 -0.00000000000E+00 -0.00000000000E+00 -0.45593999997E+02  0.45594000000E+02  0.51100000000E-03 0.  1.
    9900012    2    1    2    0    0 -0.27126043815E+02  0.31982665533E+02  0.11176322810E+02  0.47787270292E+02  0.19999996568E+02 0.  0.
         12    1    1    2    0    0  0.27126043815E+02 -0.31982665533E+02 -0.11176322810E+02  0.43400729708E+02  0.00000000000E+00 0. -1.
         11    1    3    3    0    0 -0.83317155614E+01  0.20231035628E+02  0.10583923955E+02  0.24304973428E+02  0.51100000000E-03 0. -1.
        -11    1    3    3    0    0 -0.42918199208E+01  0.37828126789E+01 -0.31298790917E+01  0.65211604324E+01  0.51100000000E-03 0.  1.
        -12    1    3    3    0    0 -0.14502508333E+02  0.79688172254E+01  0.37222779477E+01  0.16961136432E+02  0.00000000000E+00 0.  1.
</event>
<event>
 7    1  0.1736465E-010  0.4778727E+02  0.7816164E-02  0.1312668E+00
        -11   -1    0    0    0    0  0.00000000000E+00  0.00000000000E+00  0.45593999997E+02  0.45594000000E+02  0.51100000000E-03 0.  1.
         11   -1    0    0    0    0 -0.00000000000E+00 -0.00000000000E+00 -0.45593999997E+02  0.45594000000E+02  0.51100000000E-03 0. -1.
    9900012    2    1    2    0    0 -0.13989464026E+02  0.59171038957E+01  0.40655951657E+02  0.47787266972E+02  0.19999981432E+02 0.  0.
         12    1    1    2    0    0  0.13989464026E+02 -0.59171038957E+01 -0.40655951657E+02  0.43400733028E+02  0.00000000000E+00 0. -1.
         11    1    3    3    0    0  0.52791415467E+00  0.13126754171E+00  0.87350923625E+00  0.10290496437E+01  0.51100000000E-03 0. -1.
        -11    1    3    3    0    0 -0.19256489676E+01  0.90160667293E+01  0.26985177127E+02  0.28516615648E+02  0.51100000000E-03 0.  1.
        -12    1    3    3    0    0 -0.12591729213E+02 -0.32302303753E+01  0.12797265294E+02  0.18241601680E+02  0.00000000000E+00 0.  1.
</event>
<event>
 7    1  0.1736465E-010  0.4778727E+02  0.7816164E-02  0.1312668E+00
        -11   -1    0    0    0    0  0.00000000000E+00  0.00000000000E+00  0.45593999997E+02  0.45594000000E+02  0.51100000000E-03 0. -1.
         11   -1    0    0    0    0 -0.00000000000E+00 -0.00000000000E+00 -0.45593999997E+02  0.45594000000E+02  0.51100000000E-03 0.  1.
    9900012    2    1    2    0    0 -0.24782613303E+02 -0.31203416794E+02 -0.17198620482E+02  0.47787266271E+02  0.19999978236E+02 0.  0.
         12    1    1    2    0    0  0.24782613303E+02  0.31203416794E+02  0.17198620482E+02  0.43400733729E+02  0.00000000000E+00 0. -1.
         11    1    3    3    0    0 -0.41446816264E+01 -0.14255049071E+02 -0.96226549999E+01  0.17691249230E+02  0.51100000000E-03 0. -1.
        -11    1    3    3    0    0 -0.15504345108E+02 -0.88922562756E+01 -0.96626100196E+01  0.20318045466E+02  0.51100000000E-03 0.  1.
         12    1    3    3    0    0 -0.51335865686E+01 -0.80561114470E+01  0.20866445374E+01  0.97779715754E+01  0.00000000000E+00 0. -1.
</event>
<event>
 7    1  0.1736465E-010  0.4778727E+02  0.7816164E-02  0.1312668E+00
        -11   -1    0    0    0    0  0.00000000000E+00  0.00000000000E+00  0.45593999997E+02  0.45594000000E+02  0.51100000000E-03 0.  1.
         11   -1    0    0    0    0 -0.00000000000E+00 -0.00000000000E+00 -0.45593999997E+02  0.45594000000E+02  0.51100000000E-03 0. -1.
    9900012    2    1    2    0    0  0.33794718422E+02  0.27187963516E+02  0.15346509172E+01  0.47787268361E+02  0.19999987764E+02 0.  0.
         12    1    1    2    0    0 -0.33794718422E+02 -0.27187963516E+02 -0.15346509172E+01  0.43400731639E+02  0.00000000000E+00 0. -1.
         11    1    3    3    0    0  0.12972710099E+02  0.13902812263E+02  0.14858401144E+01  0.19073204168E+02  0.51100000000E-03 0. -1.
        -11    1    3    3    0    0  0.20009590765E+02  0.16129832454E+02 -0.49522858273E+00  0.25706039546E+02  0.51100000000E-03 0.  1.
         12    1    3    3    0    0  0.81241755879E+00 -0.28446812004E+01  0.54403938560E+00  0.30080246467E+01  0.00000000000E+00 0. -1.
</event>
<event>
 7    1  0.1736465E-010  0.4778727E+02  0.7816164E-02  0.1312668E+00
        -11   -1    0    0    0    0  0.00000000000E+00  0.00000000000E+00  0.45593999997E+02  0.45594000000E+02  0.51100000000E-03 0.  1.
         11   -1    0    0    0    0 -0.00000000000E+00 -0.00000000000E+00 -0.45593999997E+02  0.45594000000E+02  0.51100000000E-03 0. -1.
    9900012    2    1    2    0    0 -0.32781743733E+02  0.20476193670E+00  0.28441853659E+02  0.47787266260E+02  0.19999978185E+02 0.  0.
         12    1    1    2    0    0  0.32781743733E+02 -0.20476193670E+00 -0.28441853659E+02  0.43400733740E+02  0.00000000000E+00 0. -1.
         11    1    3    3    0    0 -0.11451665895E+02  0.21240551147E+01  0.69609793335E+01  0.13568621722E+02  0.51100000000E-03 0. -1.
        -11    1    3    3    0    0 -0.16970665314E+02  0.18750621577E+01  0.22607423478E+02  0.28330459507E+02  0.51100000000E-03 0.  1.
         12    1    3    3    0    0 -0.43594125237E+01 -0.37943553357E+01 -0.11265491520E+01  0.58881850309E+01  0.00000000000E+00 0. -1.
</event>
<event>
 7    1  0.1736465E-010  0.4778727E+02  0.7816164E-02  0.1312668E+00
        -11   -1    0    0    0    0  0.00000000000E+00  0.00000000000E+00  0.45593999997E+02  0.45594000000E+02  0.51100000000E-03 0.  1.
         11   -1    0    0    0    0 -0.00000000000E+00 -0.00000000000E+00 -0.45593999997E+02  0.45594000000E+02  0.51100000000E-03 0. -1.
    9900012    2    1    2    0    0 -0.75758982555E+01 -0.76740720857E+00  0.42727511182E+02  0.47787270052E+02  0.19999995475E+02 0.  0.
         12    1    1    2    0    0  0.75758982555E+01  0.76740720857E+00 -0.42727511182E+02  0.43400729948E+02  0.00000000000E+00 0. -1.
         11    1    3    3    0    0 -0.17939031761E+01 -0.61775450590E+01  0.66402454454E+01  0.92451615128E+01  0.51100000000E-03 0. -1.
        -11    1    3    3    0    0 -0.12701740650E+01  0.74131201440E+01  0.28611699749E+02  0.29583729569E+02  0.51100000000E-03 0.  1.
        -12    1    3    3    0    0 -0.45118210144E+01 -0.20029822936E+01  0.74755659877E+01  0.89583789700E+01  0.00000000000E+00 0.  1.
</event>
<event>
 7    1  0.1736465E-010  0.4778727E+02  0.7816164E-02  0.1312668E+00
        -11   -1    0    0    0    0  0.00000000000E+00  0.00000000000E+00  0.45593999997E+02  0.45594000000E+02  0.51100000000E-03 0.  1.
         11   -1    0    0    0    0 -0.00000000000E+00 -0.00000000000E+00 -0.45593999997E+02  0.45594000000E+02  0.51100000000E-03 0. -1.
    9900012    2    1    2    0    0  0.14660206622E+02  0.12957283495E+02  0.38740294694E+02  0.47787270896E+02  0.19999999324E+02 0.  0.
         12    1    1    2    0    0 -0.14660206622E+02 -0.12957283495E+02 -0.38740294694E+02  0.43400729104E+02  0.00000000000E+00 0. -1.
         11    1    3    3    0    0  0.11153882755E+02  0.91214284962E+01  0.35965536105E+02  0.38744410512E+02  0.51100000000E-03 0. -1.
        -11    1    3    3    0    0  0.13434751958E+01  0.10892433535E+01  0.47306820004E+01  0.50369364831E+01  0.51100000000E-03 0.  1.
         12    1    3    3    0    0  0.21628486717E+01  0.27466116457E+01 -0.19559234117E+01  0.40059239011E+01  0.00000000000E+00 0. -1.
</event>
<event>
 7    1  0.1736465E-010  0.4778727E+02  0.7816164E-02  0.1312668E+00
        -11   -1    0    0    0    0  0.00000000000E+00  0.00000000000E+00  0.45593999997E+02  0.45594000000E+02  0.51100000000E-03 0. -1.
         11   -1    0    0    0    0 -0.00000000000E+00 -0.00000000000E+00 -0.45593999997E+02  0.45594000000E+02  0.51100000000E-03 0.  1.
    9900012    2    1    2    0    0  0.12521671743E+02  0.39447234868E+02  0.13067010649E+02  0.47787269945E+02  0.19999994987E+02 0.  0.
         12    1    1    2    0    0 -0.12521671743E+02 -0.39447234868E+02 -0.13067010649E+02  0.43400730055E+02  0.00000000000E+00 0. -1.
         11    1    3    3    0    0  0.80731772434E+01  0.98729578365E+01  0.59222452815E+01  0.14061453576E+02  0.51100000000E-03 0. -1.
        -11    1    3    3    0    0 -0.12464514951E+01  0.22007329014E+01 -0.30529257935E+01  0.39644952761E+01  0.51100000000E-03 0.  1.
        -12    1    3    3    0    0  0.56949459951E+01  0.27373544131E+02  0.10197691161E+02  0.29761321092E+02  0.00000000000E+00 0.  1.
</event>
<event>
 7    1  0.1736465E-010  0.4778727E+02  0.7816164E-02  0.1312668E+00
        -11   -1    0    0    0    0  0.00000000000E+00  0.00000000000E+00  0.45593999997E+02  0.45594000000E+02  0.51100000000E-03 0. -1.
         11   -1    0    0    0    0 -0.00000000000E+00 -0.00000000000E+00 -0.45593999997E+02  0.45594000000E+02  0.51100000000E-03 0.  1.
    9900012    2    1    2    0    0  0.20517266631E+02 -0.83759080378E+01 -0.37316337780E+02  0.47787272694E+02  0.20000007519E+02 0.  0.
         12    1    1    2    0    0 -0.20517266631E+02  0.83759080378E+01  0.37316337780E+02  0.43400727306E+02  0.00000000000E+00 0. -1.
         11    1    3    3    0    0  0.71108991364E+01  0.28003996759E+01 -0.12182664031E+02  0.14381391728E+02  0.51100000000E-03 0. -1.
        -11    1    3    3    0    0  0.10593160718E+02 -0.88910730102E+01 -0.26201497708E+02  0.29627431810E+02  0.51100000000E-03 0.  1.
         12    1    3    3    0    0  0.28132067763E+01 -0.22852347036E+01  0.10678239591E+01  0.37784491559E+01  0.00000000000E+00 0. -1.
</event>
<event>
 7    1  0.1736465E-010  0.4778727E+02  0.7816164E-02  0.1312668E+00
        -11   -1    0    0    0    0  0.00000000000E+00  0.00000000000E+00  0.45593999997E+02  0.45594000000E+02  0.51100000000E-03 0. -1.
         11   -1    0    0    0    0 -0.00000000000E+00 -0.00000000000E+00 -0.45593999997E+02  0.45594000000E+02  0.51100000000E-03 0.  1.
    9900012    2    1    2    0    0 -0.23873739636E+02  0.20987865755E+02  0.29549576253E+02  0.47787269477E+02  0.19999992854E+02 0.  0.
         12    1    1    2    0    0  0.23873739636E+02 -0.20987865755E+02 -0.29549576253E+02  0.43400730523E+02  0.00000000000E+00 0. -1.
         11    1    3    3    0    0 -0.78524600706E+00  0.57512167755E+01  0.59781842106E+01  0.83325741765E+01  0.51100000000E-03 0. -1.
        -11    1    3    3    0    0 -0.27385196213E+01  0.17736264016E+01 -0.22229775336E+01  0.39480209859E+01  0.51100000000E-03 0.  1.
        -12    1    3    3    0    0 -0.20349974008E+02  0.13463022578E+02  0.25794369576E+02  0.35506674315E+02  0.00000000000E+00 0.  1.
</event>
<event>
 7    1  0.1736465E-010  0.4778727E+02  0.7816164E-02  0.1312668E+00
        -11   -1    0    0    0    0  0.00000000000E+00  0.00000000000E+00  0.45593999997E+02  0.45594000000E+02  0.51100000000E-03 0. -1.
         11   -1    0    0    0    0 -0.00000000000E+00 -0.00000000000E+00 -0.45593999997E+02  0.45594000000E+02  0.51100000000E-03 0.  1.
    9900012    2    1    2    0    0  0.13351814942E+00 -0.42163652753E+02  0.10287456976E+02  0.47787271762E+02  0.20000003273E+02 0.  0.
         12    1    1    2    0    0 -0.13351814942E+00  0.42163652753E+02 -0.10287456976E+02  0.43400728238E+02  0.00000000000E+00 0. -1.
         11    1    3    3    0    0  0.39913621052E+01 -0.20607736305E+02  0.23652578930E+01  0.21123546394E+02  0.51100000000E-03 0. -1.
        -11    1    3    3    0    0 -0.91252974824E+00 -0.22293201791E+02  0.77614279578E+01  0.23623279215E+02  0.51100000000E-03 0.  1.
         12    1    3    3    0    0 -0.29453142076E+01  0.73728534407E+00  0.16077112501E+00  0.30404461539E+01  0.00000000000E+00 0. -1.
</event>
<event>
 7    1  0.1736465E-010  0.4778727E+02  0.7816164E-02  0.1312668E+00
        -11   -1    0    0    0    0  0.00000000000E+00  0.00000000000E+00  0.45593999997E+02  0.45594000000E+02  0.51100000000E-03 0. -1.
         11   -1    0    0    0    0 -0.00000000000E+00 -0.00000000000E+00 -0.45593999997E+02  0.45594000000E+02  0.51100000000E-03 0.  1.
    9900012    2    1    2    0    0  0.24224381190E+02 -0.28745043353E+02 -0.21691587801E+02  0.47787272555E+02  0.20000006889E+02 0.  0.
         12    1    1    2    0    0 -0.24224381190E+02  0.28745043353E+02  0.21691587801E+02  0.43400727445E+02  0.00000000000E+00 0. -1.
         11    1    3    3    0    0  0.84353019449E+01 -0.62802480231E+01  0.24411266644E+00  0.10519288255E+02  0.51100000000E-03 0. -1.
        -11    1    3    3    0    0  0.56720065840E+01 -0.98424093449E+01 -0.19008180861E+01  0.11517716356E+02  0.51100000000E-03 0.  1.
         12    1    3    3    0    0  0.10117072661E+02 -0.12622385985E+02 -0.20034882381E+02  0.25750267944E+02  0.00000000000E+00 0. -1.
</event>
<event>
 7    1  0.1837349E-010  0.4778728E+02  0.7816164E-02  0.1312668E+00
        -11   -1    0    0    0    0  0.00000000000E+00  0.00000000000E+00  0.45593999997E+02  0.45594000000E+02  0.51100000000E-03 0. -1.
         11   -1    0    0    0    0 -0.00000000000E+00 -0.00000000000E+00 -0.45593999997E+02  0.45594000000E+02  0.51100000000E-03 0.  1.
    9900012    2    1    2    0    0  0.28408845882E+02 -0.13710217036E+02  0.29809229987E+02  0.47787276873E+02  0.20000026574E+02 0.  0.
         12    1    1    2    0    0 -0.28408845882E+02  0.13710217036E+02 -0.29809229987E+02  0.43400723127E+02  0.00000000000E+00 0. -1.
         11    1    3    3    0    0  0.18891746242E+01  0.26752135588E+01  0.40216558731E+01  0.51864693741E+01  0.51100000000E-03 0.  1.
        -11    1    3    3    0    0  0.14699537307E+02 -0.10577437441E+02  0.22762940391E+02  0.29087970630E+02  0.51100000000E-03 0. -1.
        -12    1    3    3    0    0  0.11820133950E+02 -0.58079931538E+01  0.30246337232E+01  0.13512836869E+02  0.00000000000E+00 0.  1.
</event>
<event>
 7    1  0.1736465E-010  0.4778727E+02  0.7816164E-02  0.1312668E+00
        -11   -1    0    0    0    0  0.00000000000E+00  0.00000000000E+00  0.45593999997E+02  0.45594000000E+02  0.51100000000E-03 0.  1.
         11   -1    0    0    0    0 -0.00000000000E+00 -0.00000000000E+00 -0.45593999997E+02  0.45594000000E+02  0.51100000000E-03 0. -1.
    9900012    2    1    2    0    0 -0.21679481894E+01 -0.78849227861E+01  0.42623365719E+02  0.47787270606E+02  0.19999998001E+02 0.  0.
         12    1    1    2    0    0  0.21679481894E+01  0.78849227861E+01 -0.42623365719E+02  0.43400729394E+02  0.00000000000E+00 0. -1.
         11    1    3    3    0    0  0.53338542492E+01 -0.13881909141E+01  0.10703242305E+02  0.12038956403E+02  0.51100000000E-03 0. -1.
        -11    1    3    3    0    0 -0.42442314265E+01 -0.97060769808E+00  0.27767402778E+02  0.28106658233E+02  0.51100000000E-03 0.  1.
        -12    1    3    3    0    0 -0.32575710122E+01 -0.55261241739E+01  0.41527206355E+01  0.76416559698E+01  0.00000000000E+00 0.  1.
</event>
<event>
 7    1  0.1825551E-010  0.4778727E+02  0.7816164E-02  0.1312668E+00
        -11   -1    0    0    0    0  0.00000000000E+00  0.00000000000E+00  0.45593999997E+02  0.45594000000E+02  0.51100000000E-03 0.  1.
         11   -1    0    0    0    0 -0.00000000000E+00 -0.00000000000E+00 -0.45593999997E+02  0.45594000000E+02  0.51100000000E-03 0. -1.
    9900012    2    1    2    0    0 -0.20951141779E+02  0.91291363072E+01  0.36896229778E+02  0.47787271396E+02  0.20000001601E+02 0.  0.
         12    1    1    2    0    0  0.20951141779E+02 -0.91291363072E+01 -0.36896229778E+02  0.43400728604E+02  0.00000000000E+00 0. -1.
         11    1    3    3    0    0  0.14603725173E+01 -0.61756513860E+00  0.11559721543E+02  0.11667957705E+02  0.51100000000E-03 0. -1.
        -11    1    3    3    0    0 -0.12773218042E+02  0.47309697873E+01  0.19498191558E+02  0.23784798687E+02  0.51100000000E-03 0.  1.
        -12    1    3    3    0    0 -0.96382962542E+01  0.50157316585E+01  0.58383166767E+01  0.12334515003E+02  0.00000000000E+00 0.  1.
</event>
<event>
 7    1  0.1736465E-010  0.4778727E+02  0.7816164E-02  0.1312668E+00
        -11   -1    0    0    0    0  0.00000000000E+00  0.00000000000E+00  0.45593999997E+02  0.45594000000E+02  0.51100000000E-03 0.  1.
         11   -1    0    0    0    0 -0.00000000000E+00 -0.00000000000E+00 -0.45593999997E+02  0.45594000000E+02  0.51100000000E-03 0. -1.
    9900012    2    1    2    0    0  0.38748884009E+02  0.60528197232E+01 -0.18587915733E+02  0.47787271321E+02  0.20000001262E+02 0.  0.
         12    1    1    2    0    0 -0.38748884009E+02 -0.60528197232E+01  0.18587915733E+02  0.43400728679E+02  0.00000000000E+00 0. -1.
         11    1    3    3    0    0  0.47177776669E+01 -0.11813224010E+01  0.31540186072E+01  0.57966181835E+01  0.51100000000E-03 0. -1.
        -11    1    3    3    0    0  0.17191067590E+02 -0.81381071225E+00 -0.93368494672E+01  0.19579883835E+02  0.51100000000E-03 0.  1.
        -12    1    3    3    0    0  0.16840038752E+02  0.80479528364E+01 -0.12405084873E+02  0.22410769302E+02  0.00000000000E+00 0.  1.
</event>
<event>
 7    1  0.1736465E-010  0.4778727E+02  0.7816164E-02  0.1312668E+00
        -11   -1    0    0    0    0  0.00000000000E+00  0.00000000000E+00  0.45593999997E+02  0.45594000000E+02  0.51100000000E-03 0. -1.
         11   -1    0    0    0    0 -0.00000000000E+00 -0.00000000000E+00 -0.45593999997E+02  0.45594000000E+02  0.51100000000E-03 0.  1.
    9900012    2    1    2    0    0  0.39948918983E+02 -0.16589009513E+02  0.35372237857E+01  0.47787270552E+02  0.19999997753E+02 0.  0.
         12    1    1    2    0    0 -0.39948918983E+02  0.16589009513E+02 -0.35372237857E+01  0.43400729448E+02  0.00000000000E+00 0. -1.
         11    1    3    3    0    0  0.13729396802E+02  0.12529175675E+01  0.13151400655E+01  0.13849033635E+02  0.51100000000E-03 0. -1.
        -11    1    3    3    0    0  0.11402598060E+02 -0.14617260943E+02 -0.43312040827E+00  0.18543763197E+02  0.51100000000E-03 0.  1.
        -12    1    3    3    0    0  0.14816924122E+02 -0.32246661376E+01  0.26552041285E+01  0.15394473719E+02  0.00000000000E+00 0.  1.
</event>
<event>
 7    1  0.1736465E-010  0.4778726E+02  0.7816164E-02  0.1312668E+00
        -11   -1    0    0    0    0  0.00000000000E+00  0.00000000000E+00  0.45593999997E+02  0.45594000000E+02  0.51100000000E-03 0.  1.
         11   -1    0    0    0    0 -0.00000000000E+00 -0.00000000000E+00 -0.45593999997E+02  0.45594000000E+02  0.51100000000E-03 0. -1.
    9900012    2    1    2    0    0 -0.18489399892E+02 -0.28117201191E+02  0.27407832060E+02  0.47787260727E+02  0.19999952961E+02 0.  0.
         12    1    1    2    0    0  0.18489399892E+02  0.28117201191E+02 -0.27407832060E+02  0.43400739273E+02  0.00000000000E+00 0. -1.
         11    1    3    3    0    0 -0.73064904173E+01 -0.43978123869E+01  0.18324380710E+01  0.87225790655E+01  0.51100000000E-03 0. -1.
        -11    1    3    3    0    0 -0.69310155542E+01 -0.65811074959E+01  0.16842375752E+02  0.19365318839E+02  0.51100000000E-03 0.  1.
         12    1    3    3    0    0 -0.42518939205E+01 -0.17138281309E+02  0.87330182362E+01  0.19699362823E+02  0.00000000000E+00 0. -1.
</event>
<event>
 7    1  0.1736465E-010  0.4778727E+02  0.7816164E-02  0.1312668E+00
        -11   -1    0    0    0    0  0.00000000000E+00  0.00000000000E+00  0.45593999997E+02  0.45594000000E+02  0.51100000000E-03 0. -1.
         11   -1    0    0    0    0 -0.00000000000E+00 -0.00000000000E+00 -0.45593999997E+02  0.45594000000E+02  0.51100000000E-03 0.  1.
    9900012    2    1    2    0    0 -0.10847547545E+02 -0.26752558148E+02 -0.32407639771E+02  0.47787265320E+02  0.19999973899E+02 0.  0.
         12    1    1    2    0    0  0.10847547545E+02  0.26752558148E+02  0.32407639771E+02  0.43400734680E+02  0.00000000000E+00 0. -1.
         11    1    3    3    0    0 -0.27382007185E+01 -0.10749403195E+01  0.21511700154E+01  0.36442794296E+01  0.51100000000E-03 0. -1.
        -11    1    3    3    0    0  0.12363563440E-01 -0.78686392516E+01 -0.10724286512E+02  0.13301351735E+02  0.51100000000E-03 0.  1.
         12    1    3    3    0    0 -0.81217103899E+01 -0.17808978577E+02 -0.23834523275E+02  0.30841634155E+02  0.00000000000E+00 0. -1.
</event>
<event>
 7    1  0.1736465E-010  0.4778727E+02  0.7816164E-02  0.1312668E+00
        -11   -1    0    0    0    0  0.00000000000E+00  0.00000000000E+00  0.45593999997E+02  0.45594000000E+02  0.51100000000E-03 0.  1.
         11   -1    0    0    0    0 -0.00000000000E+00 -0.00000000000E+00 -0.45593999997E+02  0.45594000000E+02  0.51100000000E-03 0. -1.
    9900012    2    1    2    0    0 -0.36870122301E+02 -0.16272570227E+02 -0.16106547918E+02  0.47787270212E+02  0.19999996205E+02 0.  0.
         12    1    1    2    0    0  0.36870122301E+02  0.16272570227E+02  0.16106547918E+02  0.43400729788E+02  0.00000000000E+00 0. -1.
         11    1    3    3    0    0 -0.69820909559E+01 -0.72352264580E+01 -0.11780521945E+00  0.10055445010E+02  0.51100000000E-03 0. -1.
        -11    1    3    3    0    0 -0.30061407354E+02 -0.93292620364E+01 -0.11932921210E+02  0.33661817407E+02  0.51100000000E-03 0.  1.
        -12    1    3    3    0    0  0.17337600833E+00  0.29191826791E+00 -0.40558214879E+01  0.40700077957E+01  0.00000000000E+00 0.  1.
</event>
<event>
 7    1  0.1736465E-010  0.4778727E+02  0.7816164E-02  0.1312668E+00
        -11   -1    0    0    0    0  0.00000000000E+00  0.00000000000E+00  0.45593999997E+02  0.45594000000E+02  0.51100000000E-03 0.  1.
         11   -1    0    0    0    0 -0.00000000000E+00 -0.00000000000E+00 -0.45593999997E+02  0.45594000000E+02  0.51100000000E-03 0. -1.
    9900012    2    1    2    0    0  0.29192434910E+02  0.29884825274E+02  0.11761041372E+02  0.47787272681E+02  0.20000007463E+02 0.  0.
         12    1    1    2    0    0 -0.29192434910E+02 -0.29884825274E+02 -0.11761041372E+02  0.43400727319E+02  0.00000000000E+00 0. -1.
         11    1    3    3    0    0  0.13651334355E+01  0.44536269428E+01  0.66513919911E+01  0.81203077480E+01  0.51100000000E-03 0.  1.
        -11    1    3    3    0    0  0.48367364551E+01  0.10624842520E+02  0.38489248691E+01  0.12292091808E+02  0.51100000000E-03 0. -1.
        -12    1    3    3    0    0  0.22990565019E+02  0.14806355811E+02  0.12607245119E+01  0.27374873125E+02  0.00000000000E+00 0.  1.
</event>
<event>
 7    1  0.1736465E-010  0.4778727E+02  0.7816164E-02  0.1312668E+00
        -11   -1    0    0    0    0  0.00000000000E+00  0.00000000000E+00  0.45593999997E+02  0.45594000000E+02  0.51100000000E-03 0.  1.
         11   -1    0    0    0    0 -0.00000000000E+00 -0.00000000000E+00 -0.45593999997E+02  0.45594000000E+02  0.51100000000E-03 0. -1.
    9900012    2    1    2    0    0  0.41016309872E+02  0.12250713177E+02 -0.71557967440E+01  0.47787273325E+02  0.20000010398E+02 0.  0.
         12    1    1    2    0    0 -0.41016309872E+02 -0.12250713177E+02  0.71557967440E+01  0.43400726675E+02  0.00000000000E+00 0. -1.
         11    1    3    3    0    0  0.36623348205E+02  0.15771658463E+02 -0.25317956425E+01  0.39955285431E+02  0.51100000000E-03 0. -1.
        -11    1    3    3    0    0  0.27218233937E+01 -0.63786721431E+00 -0.30792540052E+01  0.41589665374E+01  0.51100000000E-03 0.  1.
         12    1    3    3    0    0  0.16711382731E+01 -0.28830780716E+01 -0.15447470963E+01  0.36730213566E+01  0.00000000000E+00 0. -1.
</event>
<event>
 7    1  0.1736465E-010  0.4778727E+02  0.7816164E-02  0.1312668E+00
        -11   -1    0    0    0    0  0.00000000000E+00  0.00000000000E+00  0.45593999997E+02  0.45594000000E+02  0.51100000000E-03 0.  1.
         11   -1    0    0    0    0 -0.00000000000E+00 -0.00000000000E+00 -0.45593999997E+02  0.45594000000E+02  0.51100000000E-03 0. -1.
    9900012    2    1    2    0    0 -0.27205522216E+02 -0.10840815429E+01  0.33798041346E+02  0.47787271082E+02  0.20000000169E+02 0.  0.
         12    1    1    2    0    0  0.27205522216E+02  0.10840815429E+01 -0.33798041346E+02  0.43400728918E+02  0.00000000000E+00 0. -1.
         11    1    3    3    0    0 -0.28629302805E+01 -0.27525165172E+01  0.18022641562E+01  0.43612926201E+01  0.51100000000E-03 0. -1.
        -11    1    3    3    0    0 -0.70716725463E+01 -0.56113356465E+01  0.43374101454E+01  0.10015426470E+02  0.51100000000E-03 0.  1.
         12    1    3    3    0    0 -0.17270919389E+02  0.72797706208E+01  0.27658367044E+02  0.33410551992E+02  0.00000000000E+00 0. -1.
</event>
<event>
 7    1  0.2583824E-010  0.4778727E+02  0.7816164E-02  0.1312668E+00
        -11   -1    0    0    0    0  0.00000000000E+00  0.00000000000E+00  0.45593999997E+02  0.45594000000E+02  0.51100000000E-03 0.  1.
         11   -1    0    0    0    0 -0.00000000000E+00 -0.00000000000E+00 -0.45593999997E+02  0.45594000000E+02  0.51100000000E-03 0. -1.
    9900012    2    1    2    0    0 -0.53051159246E+00 -0.40610612090E+02  0.15300991200E+02  0.47787267419E+02  0.19999983472E+02 0.  0.
         12    1    1    2    0    0  0.53051159246E+00  0.40610612090E+02 -0.15300991200E+02  0.43400732581E+02  0.00000000000E+00 0. -1.
         11    1    3    3    0    0  0.52292820272E+00  0.21946214018E+00  0.33003359053E+01  0.33487064496E+01  0.51100000000E-03 0. -1.
        -11    1    3    3    0    0  0.56626093127E+01 -0.24168636274E+02  0.68853600583E+01  0.25760363098E+02  0.51100000000E-03 0.  1.
        -12    1    3    3    0    0 -0.67160491079E+01 -0.16661437956E+02  0.51152952359E+01  0.18678197872E+02  0.00000000000E+00 0.  1.
</event>
<event>
 7    1  0.1736465E-010  0.4778727E+02  0.7816164E-02  0.1312668E+00
        -11   -1    0    0    0    0  0.00000000000E+00  0.00000000000E+00  0.45593999997E+02  0.45594000000E+02  0.51100000000E-03 0.  1.
         11   -1    0    0    0    0 -0.00000000000E+00 -0.00000000000E+00 -0.45593999997E+02  0.45594000000E+02  0.51100000000E-03 0. -1.
    9900012    2    1    2    0    0  0.11475303116E+02 -0.22359700047E+02  0.35383393445E+02  0.47787270750E+02  0.19999998656E+02 0.  0.
         12    1    1    2    0    0 -0.11475303116E+02  0.22359700047E+02 -0.35383393445E+02  0.43400729250E+02  0.00000000000E+00 0. -1.
         11    1    3    3    0    0 -0.31792409994E+01 -0.62536551726E+00  0.44731533778E+01  0.55233827285E+01  0.51100000000E-03 0. -1.
        -11    1    3    3    0    0  0.61562110585E+01 -0.13691204793E+02  0.24985742126E+02  0.29148504818E+02  0.51100000000E-03 0.  1.
         12    1    3    3    0    0  0.84983330573E+01 -0.80431297362E+01  0.59244979410E+01  0.13115383203E+02  0.00000000000E+00 0. -1.
</event>
<event>
 7    1  0.1736465E-010  0.4778727E+02  0.7816164E-02  0.1312668E+00
        -11   -1    0    0    0    0  0.00000000000E+00  0.00000000000E+00  0.45593999997E+02  0.45594000000E+02  0.51100000000E-03 0.  1.
         11   -1    0    0    0    0 -0.00000000000E+00 -0.00000000000E+00 -0.45593999997E+02  0.45594000000E+02  0.51100000000E-03 0. -1.
    9900012    2    1    2    0    0  0.80072988109E+01 -0.38276947385E+02  0.18825026013E+02  0.47787272589E+02  0.20000007044E+02 0.  0.
         12    1    1    2    0    0 -0.80072988109E+01  0.38276947385E+02 -0.18825026013E+02  0.43400727411E+02  0.00000000000E+00 0. -1.
         11    1    3    3    0    0  0.94824409713E+01 -0.28319370028E+02  0.19580682090E+02  0.35711433980E+02  0.51100000000E-03 0. -1.
        -11    1    3    3    0    0 -0.16156784410E+01 -0.10090005262E+02  0.10386302376E+01  0.10271191559E+02  0.51100000000E-03 0.  1.
         12    1    3    3    0    0  0.14053628055E+00  0.13242790443E+00 -0.17942863148E+01  0.18046470501E+01  0.00000000000E+00 0. -1.
</event>
<event>
 7    1  0.1736465E-010  0.4778727E+02  0.7816164E-02  0.1312668E+00
        -11   -1    0    0    0    0  0.00000000000E+00  0.00000000000E+00  0.45593999997E+02  0.45594000000E+02  0.51100000000E-03 0. -1.
         11   -1    0    0    0    0 -0.00000000000E+00 -0.00000000000E+00 -0.45593999997E+02  0.45594000000E+02  0.51100000000E-03 0.  1.
    9900012    2    1    2    0    0 -0.28110323094E+02  0.24653523394E+02 -0.22037162492E+02  0.47787274074E+02  0.20000013812E+02 0.  0.
         12    1    1    2    0    0  0.28110323094E+02 -0.24653523394E+02  0.22037162492E+02  0.43400725926E+02  0.00000000000E+00 0. -1.
         11    1    3    3    0    0 -0.13349463469E+02  0.11030682416E+02 -0.13162801807E+02  0.21751861556E+02  0.51100000000E-03 0. -1.
        -11    1    3    3    0    0 -0.10057585929E+02  0.91536899041E+00 -0.51058626999E+00  0.10112053882E+02  0.51100000000E-03 0.  1.
         12    1    3    3    0    0 -0.47032736960E+01  0.12707471988E+02 -0.83637744154E+01  0.15923358636E+02  0.00000000000E+00 0. -1.
</event>
<event>
 7    1  0.1736465E-010  0.4778727E+02  0.7816164E-02  0.1312668E+00
        -11   -1    0    0    0    0  0.00000000000E+00  0.00000000000E+00  0.45593999997E+02  0.45594000000E+02  0.51100000000E-03 0.  1.
         11   -1    0    0    0    0 -0.00000000000E+00 -0.00000000000E+00 -0.45593999997E+02  0.45594000000E+02  0.51100000000E-03 0. -1.
    9900012    2    1    2    0    0 -0.13876581356E+02  0.20120390143E+02  0.35864098377E+02  0.47787272333E+02  0.20000005873E+02 0.  0.
         12    1    1    2    0    0  0.13876581356E+02 -0.20120390143E+02 -0.35864098377E+02  0.43400727667E+02  0.00000000000E+00 0. -1.
         11    1    3    3    0    0 -0.82015578326E+01  0.18757544197E+02  0.24141949943E+02  0.31653511061E+02  0.51100000000E-03 0.  1.
        -11    1    3    3    0    0  0.29562383693E+00  0.38417876235E+01  0.74424024749E+01  0.83806968957E+01  0.51100000000E-03 0. -1.
        -12    1    3    3    0    0 -0.59706473604E+01 -0.24789416770E+01  0.42797459591E+01  0.77530643758E+01  0.00000000000E+00 0.  1.
</event>
<event>
 7    1  0.1736465E-010  0.4778726E+02  0.7816164E-02  0.1312668E+00
        -11   -1    0    0    0    0  0.00000000000E+00  0.00000000000E+00  0.45593999997E+02  0.45594000000E+02  0.51100000000E-03 0.  1.
         11   -1    0    0    0    0 -0.00000000000E+00 -0.00000000000E+00 -0.45593999997E+02  0.45594000000E+02  0.51100000000E-03 0. -1.
    9900012    2    1    2    0    0 -0.35904393223E+02 -0.83218732404E+01  0.22918223073E+02  0.47787262958E+02  0.19999963132E+02 0.  0.
         12    1    1    2    0    0  0.35904393223E+02  0.83218732404E+01 -0.22918223073E+02  0.43400737042E+02  0.00000000000E+00 0. -1.
         11    1    3    3    0    0 -0.28742532113E+02 -0.87935790984E+01  0.93237920233E+01  0.31470514510E+02  0.51100000000E-03 0. -1.
        -11    1    3    3    0    0  0.89947170061E+00  0.36372424331E-01  0.90169668099E+00  0.12741387127E+01  0.51100000000E-03 0.  1.
         12    1    3    3    0    0 -0.80613328110E+01  0.43533343360E+00  0.12692734369E+02  0.15042609735E+02  0.00000000000E+00 0. -1.
</event>
<event>
 7    1  0.1736465E-010  0.4778726E+02  0.7816164E-02  0.1312668E+00
        -11   -1    0    0    0    0  0.00000000000E+00  0.00000000000E+00  0.45593999997E+02  0.45594000000E+02  0.51100000000E-03 0. -1.
         11   -1    0    0    0    0 -0.00000000000E+00 -0.00000000000E+00 -0.45593999997E+02  0.45594000000E+02  0.51100000000E-03 0.  1.
    9900012    2    1    2    0    0 -0.35929560568E+02  0.20723986306E+02  0.12775261607E+02  0.47787259913E+02  0.19999949246E+02 0.  0.
         12    1    1    2    0    0  0.35929560568E+02 -0.20723986306E+02 -0.12775261607E+02  0.43400740087E+02  0.00000000000E+00 0. -1.
         11    1    3    3    0    0 -0.48857765808E+01  0.53183821754E+01  0.45080142147E+01  0.85134126050E+01  0.51100000000E-03 0. -1.
        -11    1    3    3    0    0 -0.21543680427E+02  0.52098249354E+01 -0.15631827738E+01  0.22219720584E+02  0.51100000000E-03 0.  1.
        -12    1    3    3    0    0 -0.95001035601E+01  0.10195779195E+02  0.98304301664E+01  0.17054126723E+02  0.00000000000E+00 0.  1.
</event>
<event>
 7    1  0.1736465E-010  0.4778729E+02  0.7816164E-02  0.1312668E+00
        -11   -1    0    0    0    0  0.00000000000E+00  0.00000000000E+00  0.45593999997E+02  0.45594000000E+02  0.51100000000E-03 0.  1.
         11   -1    0    0    0    0 -0.00000000000E+00 -0.00000000000E+00 -0.45593999997E+02  0.45594000000E+02  0.51100000000E-03 0. -1.
    9900012    2    1    2    0    0  0.35739048980E+02  0.11698445990E+02  0.21667683081E+02  0.47787288592E+02  0.20000080008E+02 0.  0.
         12    1    1    2    0    0 -0.35739048980E+02 -0.11698445990E+02 -0.21667683081E+02  0.43400711408E+02  0.00000000000E+00 0. -1.
         11    1    3    3    0    0  0.45106328108E+01 -0.47068118109E+01  0.37860045651E+01  0.75388140052E+01  0.51100000000E-03 0. -1.
        -11    1    3    3    0    0  0.16961554471E+02  0.53703507788E+01  0.66100433032E+01  0.18979664652E+02  0.51100000000E-03 0.  1.
        -12    1    3    3    0    0  0.14266861698E+02  0.11034907022E+02  0.11271635213E+02  0.21268809935E+02  0.00000000000E+00 0.  1.
</event>
<event>
 7    1  0.1736465E-010  0.4778727E+02  0.7816164E-02  0.1312668E+00
        -11   -1    0    0    0    0  0.00000000000E+00  0.00000000000E+00  0.45593999997E+02  0.45594000000E+02  0.51100000000E-03 0.  1.
         11   -1    0    0    0    0 -0.00000000000E+00 -0.00000000000E+00 -0.45593999997E+02  0.45594000000E+02  0.51100000000E-03 0. -1.
    9900012    2    1    2    0    0  0.18720877291E+02  0.32069001885E+02  0.22466226970E+02  0.47787268638E+02  0.19999989030E+02 0.  0.
         12    1    1    2    0    0 -0.18720877291E+02 -0.32069001885E+02 -0.22466226970E+02  0.43400731362E+02  0.00000000000E+00 0. -1.
         11    1    3    3    0    0  0.69826300300E+00  0.15643368002E+01  0.50073282877E+01  0.52922639473E+01  0.51100000000E-03 0. -1.
        -11    1    3    3    0    0  0.13403052827E+02  0.24132158449E+02  0.54509754892E+01  0.28137448898E+02  0.51100000000E-03 0.  1.
        -12    1    3    3    0    0  0.46195614611E+01  0.63725066363E+01  0.12007923193E+02  0.14357555793E+02  0.00000000000E+00 0.  1.
</event>
<event>
 7    1  0.1736465E-010  0.4778727E+02  0.7816164E-02  0.1312668E+00
        -11   -1    0    0    0    0  0.00000000000E+00  0.00000000000E+00  0.45593999997E+02  0.45594000000E+02  0.51100000000E-03 0.  1.
         11   -1    0    0    0    0 -0.00000000000E+00 -0.00000000000E+00 -0.45593999997E+02  0.45594000000E+02  0.51100000000E-03 0. -1.
    9900012    2    1    2    0    0 -0.31868604411E+01  0.11521571748E+02  0.41721940737E+02  0.47787273810E+02  0.20000012607E+02 0.  0.
         12    1    1    2    0    0  0.31868604411E+01 -0.11521571748E+02 -0.41721940737E+02  0.43400726190E+02  0.00000000000E+00 0. -1.
         11    1    3    3    0    0 -0.16835617554E+01  0.11001969817E+02  0.11774474685E+02  0.16202344719E+02  0.51100000000E-03 0. -1.
        -11    1    3    3    0    0 -0.45185116713E+01  0.26357092567E+01  0.24195495073E+02  0.24754512580E+02  0.51100000000E-03 0.  1.
        -12    1    3    3    0    0  0.30152129856E+01 -0.21161073249E+01  0.57519709792E+01  0.68304165103E+01  0.00000000000E+00 0.  1.
</event>
<event>
 7    1  0.1832887E-010  0.4778727E+02  0.7816164E-02  0.1312668E+00
        -11   -1    0    0    0    0  0.00000000000E+00  0.00000000000E+00  0.45593999997E+02  0.45594000000E+02  0.51100000000E-03 0. -1.
         11   -1    0    0    0    0 -0.00000000000E+00 -0.00000000000E+00 -0.45593999997E+02  0.45594000000E+02  0.51100000000E-03 0.  1.
    9900012    2    1    2    0    0  0.17404445473E+02 -0.11013127738E+02 -0.38202349008E+02  0.47787272189E+02  0.20000005219E+02 0.  0.
         12    1    1    2    0    0 -0.17404445473E+02  0.11013127738E+02  0.38202349008E+02  0.43400727811E+02  0.00000000000E+00 0. -1.
         11    1    3    3    0    0  0.24669169351E+01  0.31914360228E+01 -0.66175105189E+01  0.77499928246E+01  0.51100000000E-03 0. -1.
        -11    1    3    3    0    0  0.93196688366E+01 -0.95537820830E+01 -0.29613867962E+02  0.32482489979E+02  0.51100000000E-03 0.  1.
         12    1    3    3    0    0  0.56178597016E+01 -0.46507816779E+01 -0.19709705269E+01  0.75547893856E+01  0.00000000000E+00 0. -1.
</event>
<event>
 7    1  0.1736465E-010  0.4778727E+02  0.7816164E-02  0.1312668E+00
        -11   -1    0    0    0    0  0.00000000000E+00  0.00000000000E+00  0.45593999997E+02  0.45594000000E+02  0.51100000000E-03 0.  1.
         11   -1    0    0    0    0 -0.00000000000E+00 -0.00000000000E+00 -0.45593999997E+02  0.45594000000E+02  0.51100000000E-03 0. -1.
    9900012    2    1    2    0    0  0.66939727768E+01 -0.52337312158E+01  0.42560810163E+02  0.47787265263E+02  0.19999973639E+02 0.  0.
         12    1    1    2    0    0 -0.66939727768E+01  0.52337312158E+01 -0.42560810163E+02  0.43400734737E+02  0.00000000000E+00 0. -1.
         11    1    3    3    0    0 -0.95531194866E+00 -0.63082760316E+01  0.10693082178E+02  0.12451866291E+02  0.51100000000E-03 0. -1.
        -11    1    3    3    0    0  0.56505324682E+00 -0.10425384710E+01  0.25642492673E+02  0.25669896813E+02  0.51100000000E-03 0.  1.
         12    1    3    3    0    0  0.70842314786E+01  0.21170832868E+01  0.62252353120E+01  0.96655021585E+01  0.00000000000E+00 0. -1.
</event>
<event>
 7    1  0.1736465E-010  0.4778727E+02  0.7816164E-02  0.1312668E+00
        -11   -1    0    0    0    0  0.00000000000E+00  0.00000000000E+00  0.45593999997E+02  0.45594000000E+02  0.51100000000E-03 0.  1.
         11   -1    0    0    0    0 -0.00000000000E+00 -0.00000000000E+00 -0.45593999997E+02  0.45594000000E+02  0.51100000000E-03 0. -1.
    9900012    2    1    2    0    0 -0.31433140350E+02 -0.26438762086E+01 -0.29809238014E+02  0.47787273455E+02  0.20000010990E+02 0.  0.
         12    1    1    2    0    0  0.31433140350E+02  0.26438762086E+01  0.29809238014E+02  0.43400726545E+02  0.00000000000E+00 0. -1.
         11    1    3    3    0    0 -0.20384681106E+01  0.36486199519E+01 -0.29486799977E+01  0.51149285216E+01  0.51100000000E-03 0. -1.
        -11    1    3    3    0    0 -0.26394617033E+02 -0.25628759680E+01 -0.27051893186E+02  0.37882041481E+02  0.51100000000E-03 0.  1.
         12    1    3    3    0    0 -0.30000552060E+01 -0.37296201925E+01  0.19133516921E+00  0.47903034524E+01  0.00000000000E+00 0. -1.
</event>
<event>
 7    1  0.1736465E-010  0.4778727E+02  0.7816164E-02  0.1312668E+00
        -11   -1    0    0    0    0  0.00000000000E+00  0.00000000000E+00  0.45593999997E+02  0.45594000000E+02  0.51100000000E-03 0. -1.
         11   -1    0    0    0    0 -0.00000000000E+00 -0.00000000000E+00 -0.45593999997E+02  0.45594000000E+02  0.51100000000E-03 0.  1.
    9900012    2    1    2    0    0 -0.42535519316E+02 -0.17802515711E+01  0.84370335678E+01  0.47787271497E+02  0.20000002065E+02 0.  0.
         12    1    1    2    0    0  0.42535519316E+02  0.17802515711E+01 -0.84370335678E+01  0.43400728503E+02  0.00000000000E+00 0. -1.
         11    1    3    3    0    0 -0.69599797408E+01  0.72643452584E+00  0.14984531775E+01  0.71564228005E+01  0.51100000000E-03 0. -1.
        -11    1    3    3    0    0 -0.34217514461E+02  0.21016820417E+01  0.29900371991E+01  0.34412144455E+02  0.51100000000E-03 0.  1.
         12    1    3    3    0    0 -0.13580251142E+01 -0.46083681386E+01  0.39485431912E+01  0.62187042416E+01  0.00000000000E+00 0. -1.
</event>
<event>
 7    1  0.1736465E-010  0.4778727E+02  0.7816164E-02  0.1312668E+00
        -11   -1    0    0    0    0  0.00000000000E+00  0.00000000000E+00  0.45593999997E+02  0.45594000000E+02  0.51100000000E-03 0.  1.
         11   -1    0    0    0    0 -0.00000000000E+00 -0.00000000000E+00 -0.45593999997E+02  0.45594000000E+02  0.51100000000E-03 0. -1.
    9900012    2    1    2    0    0 -0.42617649149E+02  0.74987553028E+01  0.33358759867E+01  0.47787269377E+02  0.19999992396E+02 0.  0.
         12    1    1    2    0    0  0.42617649149E+02 -0.74987553028E+01 -0.33358759867E+01  0.43400730623E+02  0.00000000000E+00 0. -1.
         11    1    3    3    0    0 -0.33595454642E+02  0.69118152053E+00  0.42192071675E+01  0.33866414246E+02  0.51100000000E-03 0.  1.
        -11    1    3    3    0    0 -0.14144158981E+01 -0.12211095173E+01 -0.20794976786E+01  0.27957095061E+01  0.51100000000E-03 0. -1.
        -12    1    3    3    0    0 -0.76077786088E+01  0.80286832995E+01  0.11961664978E+01  0.11125145625E+02  0.00000000000E+00 0.  1.
</event>
<event>
 7    1  0.1736465E-010  0.4778733E+02  0.7816164E-02  0.1312668E+00
        -11   -1    0    0    0    0  0.00000000000E+00  0.00000000000E+00  0.45593999997E+02  0.45594000000E+02  0.51100000000E-03 0.  1.
         11   -1    0    0    0    0 -0.00000000000E+00 -0.00000000000E+00 -0.45593999997E+02  0.45594000000E+02  0.51100000000E-03 0. -1.
    9900012    2    1    2    0    0  0.22410412360E+02  0.35608963529E+02  0.10648645190E+02  0.47787325925E+02  0.20000250222E+02 0.  0.
         12    1    1    2    0    0 -0.22410412360E+02 -0.35608963529E+02 -0.10648645190E+02  0.43400674075E+02  0.00000000000E+00 0. -1.
         11    1    3    3    0    0  0.45969286059E+01  0.12577391443E+02 -0.35749211890E+01  0.13860107860E+02  0.51100000000E-03 0. -1.
        -11    1    3    3    0    0  0.76008118765E+01  0.17735186104E+02  0.87212751744E+01  0.21174744585E+02  0.51100000000E-03 0.  1.
        -12    1    3    3    0    0  0.10212671878E+02  0.52963859820E+01  0.55022912049E+01  0.12752473480E+02  0.00000000000E+00 0.  1.
</event>
<event>
 7    1  0.1736465E-010  0.4778727E+02  0.7816164E-02  0.1312668E+00
        -11   -1    0    0    0    0  0.00000000000E+00  0.00000000000E+00  0.45593999997E+02  0.45594000000E+02  0.51100000000E-03 0.  1.
         11   -1    0    0    0    0 -0.00000000000E+00 -0.00000000000E+00 -0.45593999997E+02  0.45594000000E+02  0.51100000000E-03 0. -1.
    9900012    2    1    2    0    0 -0.17961976604E+02  0.96726293864E+01  0.38307063373E+02  0.47787268820E+02  0.19999989856E+02 0.  0.
         12    1    1    2    0    0  0.17961976604E+02 -0.96726293864E+01 -0.38307063373E+02  0.43400731180E+02  0.00000000000E+00 0. -1.
         11    1    3    3    0    0  0.24065132213E+00  0.60308728196E+01  0.69735836343E+01  0.92228091703E+01  0.51100000000E-03 0. -1.
        -11    1    3    3    0    0 -0.87140519823E+01  0.74197537367E+01  0.11329731235E+02  0.16104355237E+02  0.51100000000E-03 0.  1.
         12    1    3    3    0    0 -0.94885759433E+01 -0.37779971698E+01  0.20003748503E+02  0.22460104413E+02  0.00000000000E+00 0. -1.
</event>
<event>
 7    1  0.1736465E-010  0.4778728E+02  0.7816164E-02  0.1312668E+00
        -11   -1    0    0    0    0  0.00000000000E+00  0.00000000000E+00  0.45593999997E+02  0.45594000000E+02  0.51100000000E-03 0. -1.
         11   -1    0    0    0    0 -0.00000000000E+00 -0.00000000000E+00 -0.45593999997E+02  0.45594000000E+02  0.51100000000E-03 0.  1.
    9900012    2    1    2    0    0  0.31064419475E+02  0.30245948247E+02  0.19512296335E+01  0.47787276046E+02  0.20000022802E+02 0.  0.
         12    1    1    2    0    0 -0.31064419475E+02 -0.30245948247E+02 -0.19512296335E+01  0.43400723954E+02  0.00000000000E+00 0. -1.
         11    1    3    3    0    0  0.21040448351E+02  0.20975331205E+02  0.34094544800E+00  0.29711634590E+02  0.51100000000E-03 0. -1.
        -11    1    3    3    0    0  0.11579734594E+02  0.83238294774E+01  0.42389960207E+01  0.14877683891E+02  0.51100000000E-03 0.  1.
         12    1    3    3    0    0 -0.15557634703E+01  0.94678756437E+00 -0.26287118352E+01  0.31979575638E+01  0.00000000000E+00 0. -1.
</event>
<event>
 7    1  0.1736465E-010  0.4778726E+02  0.7816164E-02  0.1312668E+00
        -11   -1    0    0    0    0  0.00000000000E+00  0.00000000000E+00  0.45593999997E+02  0.45594000000E+02  0.51100000000E-03 0. -1.
         11   -1    0    0    0    0 -0.00000000000E+00 -0.00000000000E+00 -0.45593999997E+02  0.45594000000E+02  0.51100000000E-03 0.  1.
    9900012    2    1    2    0    0 -0.27537650726E+01 -0.42593023768E+02 -0.78660691662E+01  0.47787263371E+02  0.19999965016E+02 0.  0.
         12    1    1    2    0    0  0.27537650726E+01  0.42593023768E+02  0.78660691662E+01  0.43400736629E+02  0.00000000000E+00 0. -1.
         11    1    3    3    0    0  0.75361060372E-01 -0.82552515728E+00  0.34268333130E+01  0.35256712681E+01  0.51100000000E-03 0. -1.
        -11    1    3    3    0    0 -0.29789434430E+01 -0.19905002588E+02 -0.11476713945E+01  0.20159374543E+02  0.51100000000E-03 0.  1.
        -12    1    3    3    0    0  0.14981730994E+00 -0.21862496023E+02 -0.10145231085E+02  0.24102217560E+02  0.00000000000E+00 0.  1.
</event>
<event>
 7    1  0.1736465E-010  0.4778727E+02  0.7816164E-02  0.1312668E+00
        -11   -1    0    0    0    0  0.00000000000E+00  0.00000000000E+00  0.45593999997E+02  0.45594000000E+02  0.51100000000E-03 0.  1.
         11   -1    0    0    0    0 -0.00000000000E+00 -0.00000000000E+00 -0.45593999997E+02  0.45594000000E+02  0.51100000000E-03 0. -1.
    9900012    2    1    2    0    0 -0.16242474772E+02  0.13046485179E+02  0.38073539627E+02  0.47787272103E+02  0.20000004827E+02 0.  0.
         12    1    1    2    0    0  0.16242474772E+02 -0.13046485179E+02 -0.38073539627E+02  0.43400727897E+02  0.00000000000E+00 0. -1.
         11    1    3    3    0    0 -0.36120074461E+01 -0.17149636649E+01  0.29163496303E+01  0.49490194574E+01  0.51100000000E-03 0. -1.
        -11    1    3    3    0    0 -0.86925913520E+01  0.80435343206E+01  0.32531984460E+02  0.34620652824E+02  0.51100000000E-03 0.  1.
         12    1    3    3    0    0 -0.39378759743E+01  0.67179145228E+01  0.26252055369E+01  0.82175998221E+01  0.00000000000E+00 0. -1.
</event>
<event>
 7    1  0.1736465E-010  0.4778727E+02  0.7816164E-02  0.1312668E+00
        -11   -1    0    0    0    0  0.00000000000E+00  0.00000000000E+00  0.45593999997E+02  0.45594000000E+02  0.51100000000E-03 0.  1.
         11   -1    0    0    0    0 -0.00000000000E+00 -0.00000000000E+00 -0.45593999997E+02  0.45594000000E+02  0.51100000000E-03 0. -1.
    9900012    2    1    2    0    0 -0.85332398669E+01 -0.71416706539E+01  0.41950011534E+02  0.47787272931E+02  0.20000008603E+02 0.  0.
         12    1    1    2    0    0  0.85332398669E+01  0.71416706539E+01 -0.41950011534E+02  0.43400727069E+02  0.00000000000E+00 0. -1.
         11    1    3    3    0    0 -0.54419007505E+01 -0.50026002942E+01  0.21353405398E+02  0.22596641694E+02  0.51100000000E-03 0.  1.
        -11    1    3    3    0    0  0.24869084890E+01  0.49135713739E+01  0.75281059754E+01  0.93273939189E+01  0.51100000000E-03 0. -1.
         12    1    3    3    0    0 -0.55782476055E+01 -0.70526417337E+01  0.13068500161E+02  0.15863237319E+02  0.00000000000E+00 0. -1.
</event>
<event>
 7    1  0.1736465E-010  0.4778727E+02  0.7816164E-02  0.1312668E+00
        -11   -1    0    0    0    0  0.00000000000E+00  0.00000000000E+00  0.45593999997E+02  0.45594000000E+02  0.51100000000E-03 0. -1.
         11   -1    0    0    0    0 -0.00000000000E+00 -0.00000000000E+00 -0.45593999997E+02  0.45594000000E+02  0.51100000000E-03 0.  1.
    9900012    2    1    2    0    0 -0.38104585963E+02  0.16863073703E+02  0.12136749423E+02  0.47787269445E+02  0.19999992708E+02 0.  0.
         12    1    1    2    0    0  0.38104585963E+02 -0.16863073703E+02 -0.12136749423E+02  0.43400730555E+02  0.00000000000E+00 0. -1.
         11    1    3    3    0    0 -0.82305811989E+01  0.65990894323E+01  0.74659462836E+01  0.12924039708E+02  0.51100000000E-03 0. -1.
        -11    1    3    3    0    0 -0.23761019786E+02  0.11020479632E+02 -0.13802376027E+01  0.26228650150E+02  0.51100000000E-03 0.  1.
        -12    1    3    3    0    0 -0.61129849785E+01 -0.75649536112E+00  0.60510407426E+01  0.86345795872E+01  0.00000000000E+00 0.  1.
</event>
<event>
 7    1  0.1736465E-010  0.4778727E+02  0.7816164E-02  0.1312668E+00
        -11   -1    0    0    0    0  0.00000000000E+00  0.00000000000E+00  0.45593999997E+02  0.45594000000E+02  0.51100000000E-03 0.  1.
         11   -1    0    0    0    0 -0.00000000000E+00 -0.00000000000E+00 -0.45593999997E+02  0.45594000000E+02  0.51100000000E-03 0. -1.
    9900012    2    1    2    0    0  0.39349362878E+02  0.12567672964E+02  0.13315575038E+02  0.47787270729E+02  0.19999998562E+02 0.  0.
         12    1    1    2    0    0 -0.39349362878E+02 -0.12567672964E+02 -0.13315575038E+02  0.43400729271E+02  0.00000000000E+00 0. -1.
         11    1    3    3    0    0  0.18886375836E+02  0.56578199847E+01 -0.16349570017E+01  0.19783306191E+02  0.51100000000E-03 0. -1.
        -11    1    3    3    0    0  0.85960074281E+01 -0.20008550066E+01  0.60327386335E+01  0.10690589326E+02  0.51100000000E-03 0.  1.
        -12    1    3    3    0    0  0.11866979614E+02  0.89107079858E+01  0.89177934064E+01  0.17313375211E+02  0.00000000000E+00 0.  1.
</event>
<event>
 7    1  0.1736465E-010  0.4778727E+02  0.7816164E-02  0.1312668E+00
        -11   -1    0    0    0    0  0.00000000000E+00  0.00000000000E+00  0.45593999997E+02  0.45594000000E+02  0.51100000000E-03 0. -1.
         11   -1    0    0    0    0 -0.00000000000E+00 -0.00000000000E+00 -0.45593999997E+02  0.45594000000E+02  0.51100000000E-03 0.  1.
    9900012    2    1    2    0    0 -0.23863338119E+02 -0.36090693282E+02 -0.34097235689E+01  0.47787271175E+02  0.20000000594E+02 0.  0.
         12    1    1    2    0    0  0.23863338119E+02  0.36090693282E+02  0.34097235689E+01  0.43400728825E+02  0.00000000000E+00 0. -1.
         11    1    3    3    0    0 -0.65448508687E+01 -0.55325732270E+01  0.40170691634E+01  0.94647389996E+01  0.51100000000E-03 0. -1.
        -11    1    3    3    0    0 -0.17262036568E+02 -0.19820777929E+02 -0.21867794592E+01  0.26374668697E+02  0.51100000000E-03 0.  1.
         12    1    3    3    0    0 -0.56450682529E-01 -0.10737342125E+02 -0.52400132731E+01  0.11947863478E+02  0.00000000000E+00 0. -1.
</event>
<event>
 7    1  0.1736465E-010  0.4778727E+02  0.7816164E-02  0.1312668E+00
        -11   -1    0    0    0    0  0.00000000000E+00  0.00000000000E+00  0.45593999997E+02  0.45594000000E+02  0.51100000000E-03 0.  1.
         11   -1    0    0    0    0 -0.00000000000E+00 -0.00000000000E+00 -0.45593999997E+02  0.45594000000E+02  0.51100000000E-03 0. -1.
    9900012    2    1    2    0    0  0.30768725919E+02 -0.14702776044E+02  0.26846546087E+02  0.47787272415E+02  0.20000006248E+02 0.  0.
         12    1    1    2    0    0 -0.30768725919E+02  0.14702776044E+02 -0.26846546087E+02  0.43400727585E+02  0.00000000000E+00 0. -1.
         11    1    3    3    0    0 -0.20661822582E+01 -0.17828660063E+01 -0.22066503939E+00  0.27379579327E+01  0.51100000000E-03 0. -1.
        -11    1    3    3    0    0  0.92934623881E+01 -0.72354289383E+01  0.94751623387E+01  0.15116169379E+02  0.51100000000E-03 0.  1.
         12    1    3    3    0    0  0.23541445789E+02 -0.56844810999E+01  0.17592048788E+02  0.29933145103E+02  0.00000000000E+00 0. -1.
</event>
<event>
 7    1  0.1736465E-010  0.4778728E+02  0.7816164E-02  0.1312668E+00
        -11   -1    0    0    0    0  0.00000000000E+00  0.00000000000E+00  0.45593999997E+02  0.45594000000E+02  0.51100000000E-03 0.  1.
         11   -1    0    0    0    0 -0.00000000000E+00 -0.00000000000E+00 -0.45593999997E+02  0.45594000000E+02  0.51100000000E-03 0. -1.
    9900012    2    1    2    0    0 -0.35735750480E+02 -0.21775639285E+02  0.11506544306E+02  0.47787275461E+02  0.20000020137E+02 0.  0.
         12    1    1    2    0    0  0.35735750480E+02  0.21775639285E+02 -0.11506544306E+02  0.43400724539E+02  0.00000000000E+00 0. -1.
         11    1    3    3    0    0 -0.86315998045E+01 -0.13624501762E+00  0.82110322711E+01  0.11914030767E+02  0.51100000000E-03 0.  1.
        -11    1    3    3    0    0 -0.13921469094E+02 -0.13760624482E+02  0.55615999873E+01  0.20349287028E+02  0.51100000000E-03 0. -1.
        -12    1    3    3    0    0 -0.13182681581E+02 -0.78787697856E+01 -0.22660879527E+01  0.15523957666E+02  0.00000000000E+00 0.  1.
</event>
<event>
 7    1  0.1736465E-010  0.4778727E+02  0.7816164E-02  0.1312668E+00
        -11   -1    0    0    0    0  0.00000000000E+00  0.00000000000E+00  0.45593999997E+02  0.45594000000E+02  0.51100000000E-03 0. -1.
         11   -1    0    0    0    0 -0.00000000000E+00 -0.00000000000E+00 -0.45593999997E+02  0.45594000000E+02  0.51100000000E-03 0.  1.
    9900012    2    1    2    0    0  0.36735922017E+02  0.16146532144E+02 -0.16534361561E+02  0.47787267530E+02  0.19999983976E+02 0.  0.
         12    1    1    2    0    0 -0.36735922017E+02 -0.16146532144E+02  0.16534361561E+02  0.43400732470E+02  0.00000000000E+00 0. -1.
         11    1    3    3    0    0 -0.18520484544E+01  0.26584206790E+01 -0.83937826170E+00  0.33469150141E+01  0.51100000000E-03 0. -1.
        -11    1    3    3    0    0  0.23053656867E+02  0.11607371882E+02 -0.81385633692E+01  0.27063599001E+02  0.51100000000E-03 0.  1.
        -12    1    3    3    0    0  0.15534313605E+02  0.18807395836E+01 -0.75564199300E+01  0.17376753515E+02  0.00000000000E+00 0.  1.
</event>
<event>
 7    1  0.1736465E-010  0.4778727E+02  0.7816164E-02  0.1312668E+00
        -11   -1    0    0    0    0  0.00000000000E+00  0.00000000000E+00  0.45593999997E+02  0.45594000000E+02  0.51100000000E-03 0. -1.
         11   -1    0    0    0    0 -0.00000000000E+00 -0.00000000000E+00 -0.45593999997E+02  0.45594000000E+02  0.51100000000E-03 0.  1.
    9900012    2    1    2    0    0  0.38731755066E+02  0.94272757368E+01 -0.17163940480E+02  0.47787271537E+02  0.20000002245E+02 0.  0.
         12    1    1    2    0    0 -0.38731755066E+02 -0.94272757368E+01  0.17163940480E+02  0.43400728463E+02  0.00000000000E+00 0. -1.
         11    1    3    3    0    0  0.59950746258E+01  0.18257567353E+00  0.18116783195E+01  0.62654953707E+01  0.51100000000E-03 0. -1.
        -11    1    3    3    0    0  0.52538669813E+01  0.54952633409E+01 -0.95931411953E+01  0.12240481841E+02  0.51100000000E-03 0.  1.
        -12    1    3    3    0    0  0.27482813459E+02  0.37494367223E+01 -0.93824776042E+01  0.29281294325E+02  0.00000000000E+00 0.  1.
</event>
<event>
 7    1  0.1736465E-010  0.4778728E+02  0.7816164E-02  0.1312668E+00
        -11   -1    0    0    0    0  0.00000000000E+00  0.00000000000E+00  0.45593999997E+02  0.45594000000E+02  0.51100000000E-03 0. -1.
         11   -1    0    0    0    0 -0.00000000000E+00 -0.00000000000E+00 -0.45593999997E+02  0.45594000000E+02  0.51100000000E-03 0.  1.
    9900012    2    1    2    0    0 -0.17417782351E+01 -0.33455474358E+02 -0.27592033183E+02  0.47787275915E+02  0.20000022206E+02 0.  0.
         12    1    1    2    0    0  0.17417782351E+01  0.33455474358E+02  0.27592033183E+02  0.43400724085E+02  0.00000000000E+00 0. -1.
         11    1    3    3    0    0 -0.46170326384E+01 -0.13205062246E+02 -0.14190629290E+02  0.19926480352E+02  0.51100000000E-03 0. -1.
        -11    1    3    3    0    0  0.60773184587E+01 -0.58369048309E+01 -0.92728834797E+01  0.12529550109E+02  0.51100000000E-03 0.  1.
         12    1    3    3    0    0 -0.32020640554E+01 -0.14413507281E+02 -0.41285204132E+01  0.15331245454E+02  0.00000000000E+00 0. -1.
</event>
<event>
 7    1  0.2050353E-010  0.4778727E+02  0.7816164E-02  0.1312668E+00
        -11   -1    0    0    0    0  0.00000000000E+00  0.00000000000E+00  0.45593999997E+02  0.45594000000E+02  0.51100000000E-03 0.  1.
         11   -1    0    0    0    0 -0.00000000000E+00 -0.00000000000E+00 -0.45593999997E+02  0.45594000000E+02  0.51100000000E-03 0. -1.
    9900012    2    1    2    0    0  0.10711656812E+02  0.30651900779E+02  0.28798341407E+02  0.47787273269E+02  0.20000010141E+02 0.  0.
         12    1    1    2    0    0 -0.10711656812E+02 -0.30651900779E+02 -0.28798341407E+02  0.43400726731E+02  0.00000000000E+00 0. -1.
         11    1    3    3    0    0 -0.17365903425E+01  0.21654212192E+01 -0.86200398504E+00  0.29065178833E+01  0.51100000000E-03 0. -1.
        -11    1    3    3    0    0  0.11264515953E+02  0.17233814485E+02  0.11778236808E+02  0.23719623604E+02  0.51100000000E-03 0.  1.
        -12    1    3    3    0    0  0.11837312022E+01  0.11252665075E+02  0.17882108585E+02  0.21161131781E+02  0.00000000000E+00 0.  1.
</event>
<event>
 7    1  0.1736465E-010  0.4778727E+02  0.7816164E-02  0.1312668E+00
        -11   -1    0    0    0    0  0.00000000000E+00  0.00000000000E+00  0.45593999997E+02  0.45594000000E+02  0.51100000000E-03 0.  1.
         11   -1    0    0    0    0 -0.00000000000E+00 -0.00000000000E+00 -0.45593999997E+02  0.45594000000E+02  0.51100000000E-03 0. -1.
    9900012    2    1    2    0    0 -0.18429114138E+01 -0.29119843062E+02  0.32128826765E+02  0.47787273143E+02  0.20000009568E+02 0.  0.
         12    1    1    2    0    0  0.18429114138E+01  0.29119843062E+02 -0.32128826765E+02  0.43400726857E+02  0.00000000000E+00 0. -1.
         11    1    3    3    0    0 -0.74321495665E-01 -0.20946798225E+02  0.13445661098E+02  0.24890955831E+02  0.51100000000E-03 0. -1.
        -11    1    3    3    0    0  0.34730722910E+01 -0.62860408335E+01  0.13478373095E+02  0.15272297864E+02  0.51100000000E-03 0.  1.
         12    1    3    3    0    0 -0.52416622091E+01 -0.18870040038E+01  0.52047925721E+01  0.76240194479E+01  0.00000000000E+00 0. -1.
</event>
<event>
 7    1  0.2202435E-010  0.4778728E+02  0.7816164E-02  0.1312668E+00
        -11   -1    0    0    0    0  0.00000000000E+00  0.00000000000E+00  0.45593999997E+02  0.45594000000E+02  0.51100000000E-03 0. -1.
         11   -1    0    0    0    0 -0.00000000000E+00 -0.00000000000E+00 -0.45593999997E+02  0.45594000000E+02  0.51100000000E-03 0.  1.
    9900012    2    1    2    0    0  0.56071879651E+01  0.31019430578E+02 -0.29832482217E+02  0.47787278515E+02  0.20000034060E+02 0.  0.
         12    1    1    2    0    0 -0.56071879651E+01 -0.31019430578E+02  0.29832482217E+02  0.43400721485E+02  0.00000000000E+00 0. -1.
         11    1    3    3    0    0 -0.17926711301E+01  0.84022944961E+01 -0.76162169734E+00  0.86250965474E+01  0.51100000000E-03 0. -1.
        -11    1    3    3    0    0  0.21740584474E-01  0.32633477498E+01 -0.11647316499E+02  0.12095862643E+02  0.51100000000E-03 0.  1.
        -12    1    3    3    0    0  0.73781185107E+01  0.19353788332E+02 -0.17423544021E+02  0.27066319325E+02  0.00000000000E+00 0.  1.
</event>
<event>
 7    1  0.1736465E-010  0.4778727E+02  0.7816164E-02  0.1312668E+00
        -11   -1    0    0    0    0  0.00000000000E+00  0.00000000000E+00  0.45593999997E+02  0.45594000000E+02  0.51100000000E-03 0.  1.
         11   -1    0    0    0    0 -0.00000000000E+00 -0.00000000000E+00 -0.45593999997E+02  0.45594000000E+02  0.51100000000E-03 0. -1.
    9900012    2    1    2    0    0 -0.35783510995E+02 -0.22487097116E+02  0.98739062117E+01  0.47787271668E+02  0.20000002843E+02 0.  0.
         12    1    1    2    0    0  0.35783510995E+02  0.22487097116E+02 -0.98739062117E+01  0.43400728332E+02  0.00000000000E+00 0. -1.
         11    1    3    3    0    0 -0.26231427351E+02 -0.18328852783E+02  0.31946650403E+01  0.32159609920E+02  0.51100000000E-03 0. -1.
        -11    1    3    3    0    0 -0.11244236274E+02 -0.28460906091E+01  0.68652507498E+01  0.13478306616E+02  0.51100000000E-03 0.  1.
         12    1    3    3    0    0  0.16921526294E+01 -0.13121537241E+01 -0.18600957845E+00  0.21493551312E+01  0.00000000000E+00 0. -1.
</event>
<event>
 7    1  0.1736465E-010  0.4778727E+02  0.7816164E-02  0.1312668E+00
        -11   -1    0    0    0    0  0.00000000000E+00  0.00000000000E+00  0.45593999997E+02  0.45594000000E+02  0.51100000000E-03 0.  1.
         11   -1    0    0    0    0 -0.00000000000E+00 -0.00000000000E+00 -0.45593999997E+02  0.45594000000E+02  0.51100000000E-03 0. -1.
    9900012    2    1    2    0    0 -0.25060984600E+02  0.21517203513E+02  0.28152798774E+02  0.47787273336E+02  0.20000010449E+02 0.  0.
         12    1    1    2    0    0  0.25060984600E+02 -0.21517203513E+02 -0.28152798774E+02  0.43400726664E+02  0.00000000000E+00 0. -1.
         11    1    3    3    0    0 -0.13878921592E+02  0.88626326282E+01  0.15859981211E+02  0.22862845972E+02  0.51100000000E-03 0. -1.
        -11    1    3    3    0    0 -0.13709074728E+02  0.10353833370E+02  0.12860609167E+02  0.21460099342E+02  0.51100000000E-03 0.  1.
         12    1    3    3    0    0  0.25270117194E+01  0.23007375144E+01 -0.56779160458E+00  0.34643280224E+01  0.00000000000E+00 0. -1.
</event>
<event>
 7    1  0.1736465E-010  0.4778728E+02  0.7816164E-02  0.1312668E+00
        -11   -1    0    0    0    0  0.00000000000E+00  0.00000000000E+00  0.45593999997E+02  0.45594000000E+02  0.51100000000E-03 0.  1.
         11   -1    0    0    0    0 -0.00000000000E+00 -0.00000000000E+00 -0.45593999997E+02  0.45594000000E+02  0.51100000000E-03 0. -1.
    9900012    2    1    2    0    0 -0.12473981573E+02  0.41103224826E+02  0.62086632626E+01  0.47787276425E+02  0.20000024530E+02 0.  0.
         12    1    1    2    0    0  0.12473981573E+02 -0.41103224826E+02 -0.62086632626E+01  0.43400723575E+02  0.00000000000E+00 0. -1.
         11    1    3    3    0    0  0.12309355781E+01  0.15218715705E+02  0.62642130232E+00  0.15281260224E+02  0.51100000000E-03 0. -1.
        -11    1    3    3    0    0 -0.54917005289E+01  0.44271731518E+01 -0.34081235295E+01  0.78341523516E+01  0.51100000000E-03 0.  1.
        -12    1    3    3    0    0 -0.82132166220E+01  0.21457335969E+02  0.89903654898E+01  0.24671863849E+02  0.00000000000E+00 0.  1.
</event>
<event>
 7    1  0.1736465E-010  0.4778728E+02  0.7816164E-02  0.1312668E+00
        -11   -1    0    0    0    0  0.00000000000E+00  0.00000000000E+00  0.45593999997E+02  0.45594000000E+02  0.51100000000E-03 0.  1.
         11   -1    0    0    0    0 -0.00000000000E+00 -0.00000000000E+00 -0.45593999997E+02  0.45594000000E+02  0.51100000000E-03 0. -1.
    9900012    2    1    2    0    0 -0.37763172439E+02  0.58228544283E+01  0.20583002190E+02  0.47787276440E+02  0.20000024601E+02 0.  0.
         12    1    1    2    0    0  0.37763172439E+02 -0.58228544283E+01 -0.20583002190E+02  0.43400723560E+02  0.00000000000E+00 0. -1.
         11    1    3    3    0    0 -0.43892488443E+01 -0.37579316558E+01  0.50460367999E+01  0.76713781939E+01  0.51100000000E-03 0. -1.
        -11    1    3    3    0    0 -0.15530949904E+02  0.10217146383E+02  0.11336176129E+02  0.21774052783E+02  0.51100000000E-03 0.  1.
         12    1    3    3    0    0 -0.17842973691E+02 -0.63636029874E+00  0.42007892612E+01  0.18341845463E+02  0.00000000000E+00 0. -1.
</event>
<event>
 7    1  0.1736465E-010  0.4778728E+02  0.7816164E-02  0.1312668E+00
        -11   -1    0    0    0    0  0.00000000000E+00  0.00000000000E+00  0.45593999997E+02  0.45594000000E+02  0.51100000000E-03 0.  1.
         11   -1    0    0    0    0 -0.00000000000E+00 -0.00000000000E+00 -0.45593999997E+02  0.45594000000E+02  0.51100000000E-03 0. -1.
    9900012    2    1    2    0    0 -0.32429604520E+02 -0.14116946881E+02  0.25152638658E+02  0.47787278001E+02  0.20000031719E+02 0.  0.
         12    1    1    2    0    0  0.32429604520E+02  0.14116946881E+02 -0.25152638658E+02  0.43400721999E+02  0.00000000000E+00 0. -1.
         11    1    3    3    0    0 -0.22510158113E+02 -0.59204321805E+01  0.13264434005E+02  0.26789997111E+02  0.51100000000E-03 0. -1.
        -11    1    3    3    0    0 -0.86025199588E+01  0.33037535248E+00  0.68865297473E+01  0.11024372533E+02  0.51100000000E-03 0.  1.
         12    1    3    3    0    0 -0.13169264479E+01 -0.85268900530E+01  0.50016749057E+01  0.99729083576E+01  0.00000000000E+00 0. -1.
</event>
<event>
 7    1  0.1736465E-010  0.4778727E+02  0.7816164E-02  0.1312668E+00
        -11   -1    0    0    0    0  0.00000000000E+00  0.00000000000E+00  0.45593999997E+02  0.45594000000E+02  0.51100000000E-03 0. -1.
         11   -1    0    0    0    0 -0.00000000000E+00 -0.00000000000E+00 -0.45593999997E+02  0.45594000000E+02  0.51100000000E-03 0.  1.
    9900012    2    1    2    0    0  0.16518148672E+02 -0.22024699308E+02 -0.33551258545E+02  0.47787267690E+02  0.19999984704E+02 0.  0.
         12    1    1    2    0    0 -0.16518148672E+02  0.22024699308E+02  0.33551258545E+02  0.43400732310E+02  0.00000000000E+00 0. -1.
         11    1    3    3    0    0 -0.67950624002E+00 -0.14663330772E+01 -0.56973688121E+01  0.59221510506E+01  0.51100000000E-03 0. -1.
        -11    1    3    3    0    0  0.17908971590E+02 -0.21872129459E+02 -0.28584620869E+02  0.40202013145E+02  0.51100000000E-03 0.  1.
        -12    1    3    3    0    0 -0.71131667795E+00  0.13137632284E+01  0.73073113622E+00  0.16631034935E+01  0.00000000000E+00 0.  1.
</event>
<event>
 7    1  0.1736465E-010  0.4778727E+02  0.7816164E-02  0.1312668E+00
        -11   -1    0    0    0    0  0.00000000000E+00  0.00000000000E+00  0.45593999997E+02  0.45594000000E+02  0.51100000000E-03 0.  1.
         11   -1    0    0    0    0 -0.00000000000E+00 -0.00000000000E+00 -0.45593999997E+02  0.45594000000E+02  0.51100000000E-03 0. -1.
    9900012    2    1    2    0    0 -0.16765170210E+01 -0.39002889681E+02  0.18962783374E+02  0.47787271134E+02  0.20000000407E+02 0.  0.
         12    1    1    2    0    0  0.16765170210E+01  0.39002889681E+02 -0.18962783374E+02  0.43400728866E+02  0.00000000000E+00 0. -1.
         11    1    3    3    0    0  0.46051021563E+01 -0.58675067950E+01 -0.30676351986E+00  0.74651661722E+01  0.51100000000E-03 0. -1.
        -11    1    3    3    0    0  0.12009413536E+01 -0.20362408641E+02  0.13355723988E+02  0.24381249133E+02  0.51100000000E-03 0.  1.
         12    1    3    3    0    0 -0.74825605309E+01 -0.12772974246E+02  0.59138229064E+01  0.15940855829E+02  0.00000000000E+00 0. -1.
</event>
<event>
 7    1  0.1736465E-010  0.4778727E+02  0.7816164E-02  0.1312668E+00
        -11   -1    0    0    0    0  0.00000000000E+00  0.00000000000E+00  0.45593999997E+02  0.45594000000E+02  0.51100000000E-03 0. -1.
         11   -1    0    0    0    0 -0.00000000000E+00 -0.00000000000E+00 -0.45593999997E+02  0.45594000000E+02  0.51100000000E-03 0.  1.
    9900012    2    1    2    0    0 -0.50809744685E+00  0.62923016825E+01 -0.42939167425E+02  0.47787270483E+02  0.19999997440E+02 0.  0.
         12    1    1    2    0    0  0.50809744685E+00 -0.62923016825E+01  0.42939167425E+02  0.43400729517E+02  0.00000000000E+00 0. -1.
         11    1    3    3    0    0 -0.18290620063E+01 -0.30518075934E+01 -0.16601189876E+02  0.16978177257E+02  0.51100000000E-03 0. -1.
        -11    1    3    3    0    0 -0.28038231058E+01  0.18297674487E+01 -0.19659553473E+02  0.19942605546E+02  0.51100000000E-03 0.  1.
         12    1    3    3    0    0  0.41247876652E+01  0.75143418272E+01 -0.66784240761E+01  0.10866487681E+02  0.00000000000E+00 0. -1.
</event>
<event>
 7    1  0.1736465E-010  0.4778727E+02  0.7816164E-02  0.1312668E+00
        -11   -1    0    0    0    0  0.00000000000E+00  0.00000000000E+00  0.45593999997E+02  0.45594000000E+02  0.51100000000E-03 0. -1.
         11   -1    0    0    0    0 -0.00000000000E+00 -0.00000000000E+00 -0.45593999997E+02  0.45594000000E+02  0.51100000000E-03 0.  1.
    9900012    2    1    2    0    0  0.20570200978E+02  0.37032977715E+02 -0.94365599959E+01  0.47787271075E+02  0.20000000139E+02 0.  0.
         12    1    1    2    0    0 -0.20570200978E+02 -0.37032977715E+02  0.94365599959E+01  0.43400728925E+02  0.00000000000E+00 0. -1.
         11    1    3    3    0    0  0.12045430395E+02  0.77181035893E+01 -0.24620926530E+01  0.14516315542E+02  0.51100000000E-03 0. -1.
        -11    1    3    3    0    0  0.97971084195E+00 -0.34184283559E+00 -0.20201436470E+01  0.22710505220E+01  0.51100000000E-03 0.  1.
         12    1    3    3    0    0  0.75450597406E+01  0.29656716961E+02 -0.49543236959E+01  0.30999905011E+02  0.00000000000E+00 0. -1.
</event>
<event>
 7    1  0.1736465E-010  0.4778727E+02  0.7816164E-02  0.1312668E+00
        -11   -1    0    0    0    0  0.00000000000E+00  0.00000000000E+00  0.45593999997E+02  0.45594000000E+02  0.51100000000E-03 0. -1.
         11   -1    0    0    0    0 -0.00000000000E+00 -0.00000000000E+00 -0.45593999997E+02  0.45594000000E+02  0.51100000000E-03 0.  1.
    9900012    2    1    2    0    0  0.25357502879E+02 -0.30332381769E+02 -0.17904379836E+02  0.47787272433E+02  0.20000006329E+02 0.  0.
         12    1    1    2    0    0 -0.25357502879E+02  0.30332381769E+02  0.17904379836E+02  0.43400727567E+02  0.00000000000E+00 0. -1.
         11    1    3    3    0    0 -0.21427884463E+01 -0.14851107227E+01  0.74107138013E+00  0.27104027811E+01  0.51100000000E-03 0. -1.
        -11    1    3    3    0    0  0.14425351093E+02 -0.98520242491E+01 -0.45557086655E+01  0.18052911612E+02  0.51100000000E-03 0.  1.
        -12    1    3    3    0    0  0.13074940233E+02 -0.18995246797E+02 -0.14089742551E+02  0.27023958040E+02  0.00000000000E+00 0.  1.
</event>
<event>
 7    1  0.1736465E-010  0.4778727E+02  0.7816164E-02  0.1312668E+00
        -11   -1    0    0    0    0  0.00000000000E+00  0.00000000000E+00  0.45593999997E+02  0.45594000000E+02  0.51100000000E-03 0. -1.
         11   -1    0    0    0    0 -0.00000000000E+00 -0.00000000000E+00 -0.45593999997E+02  0.45594000000E+02  0.51100000000E-03 0.  1.
    9900012    2    1    2    0    0 -0.24331942994E+02 -0.30747730133E+02 -0.18605297452E+02  0.47787268998E+02  0.19999990670E+02 0.  0.
         12    1    1    2    0    0  0.24331942994E+02  0.30747730133E+02  0.18605297452E+02  0.43400731002E+02  0.00000000000E+00 0. -1.
         11    1    3    3    0    0 -0.61031551682E+01 -0.39318211713E+01 -0.92586444473E+01  0.11765637169E+02  0.51100000000E-03 0. -1.
        -11    1    3    3    0    0 -0.19201852159E+02 -0.27099288204E+02 -0.10149285587E+02  0.34728814343E+02  0.51100000000E-03 0.  1.
         12    1    3    3    0    0  0.97306433253E+00  0.28337924186E+00  0.80263258249E+00  0.12928174861E+01  0.00000000000E+00 0. -1.
</event>
<event>
 7    1  0.1736465E-010  0.4778728E+02  0.7816164E-02  0.1312668E+00
        -11   -1    0    0    0    0  0.00000000000E+00  0.00000000000E+00  0.45593999997E+02  0.45594000000E+02  0.51100000000E-03 0.  1.
         11   -1    0    0    0    0 -0.00000000000E+00 -0.00000000000E+00 -0.45593999997E+02  0.45594000000E+02  0.51100000000E-03 0. -1.
    9900012    2    1    2    0    0  0.10278123115E+02 -0.12415085660E+02  0.40297003031E+02  0.47787278578E+02  0.20000034348E+02 0.  0.
         12    1    1    2    0    0 -0.10278123115E+02  0.12415085660E+02 -0.40297003031E+02  0.43400721422E+02  0.00000000000E+00 0. -1.
         11    1    3    3    0    0 -0.23768812334E+01 -0.55791498544E+01  0.13217405066E+01  0.62067282624E+01  0.51100000000E-03 0. -1.
        -11    1    3    3    0    0  0.33697361887E+01 -0.23331968137E+01  0.12987459783E+02  0.13618848748E+02  0.51100000000E-03 0.  1.
         12    1    3    3    0    0  0.92852681594E+01 -0.45027389920E+01  0.25987802741E+02  0.27961701567E+02  0.00000000000E+00 0. -1.
</event>
<event>
 7    1  0.1736465E-010  0.4778727E+02  0.7816164E-02  0.1312668E+00
        -11   -1    0    0    0    0  0.00000000000E+00  0.00000000000E+00  0.45593999997E+02  0.45594000000E+02  0.51100000000E-03 0.  1.
         11   -1    0    0    0    0 -0.00000000000E+00 -0.00000000000E+00 -0.45593999997E+02  0.45594000000E+02  0.51100000000E-03 0. -1.
    9900012    2    1    2    0    0 -0.21254783704E+02 -0.32293311820E+02  0.19723077595E+02  0.47787267191E+02  0.19999982430E+02 0.  0.
         12    1    1    2    0    0  0.21254783704E+02  0.32293311820E+02 -0.19723077595E+02  0.43400732809E+02  0.00000000000E+00 0. -1.
         11    1    3    3    0    0 -0.80299828490E+00 -0.14809771980E+02  0.12366071384E+01  0.14882988605E+02  0.51100000000E-03 0. -1.
        -11    1    3    3    0    0 -0.10476017538E+02 -0.90806367149E+01  0.12006372324E+02  0.18340062248E+02  0.51100000000E-03 0.  1.
        -12    1    3    3    0    0 -0.99757678808E+01 -0.84029031247E+01  0.64800981321E+01  0.14564216338E+02  0.00000000000E+00 0.  1.
</event>
<event>
 7    1  0.1736465E-010  0.4778727E+02  0.7816164E-02  0.1312668E+00
        -11   -1    0    0    0    0  0.00000000000E+00  0.00000000000E+00  0.45593999997E+02  0.45594000000E+02  0.51100000000E-03 0.  1.
         11   -1    0    0    0    0 -0.00000000000E+00 -0.00000000000E+00 -0.45593999997E+02  0.45594000000E+02  0.51100000000E-03 0. -1.
    9900012    2    1    2    0    0 -0.17940868517E+02 -0.39505271158E+02 -0.10402136469E+01  0.47787271241E+02  0.20000000896E+02 0.  0.
         12    1    1    2    0    0  0.17940868517E+02  0.39505271158E+02  0.10402136469E+01  0.43400728759E+02  0.00000000000E+00 0. -1.
         11    1    3    3    0    0 -0.29019576127E+01 -0.44716691998E+01 -0.47208830974E+01  0.71206685710E+01  0.51100000000E-03 0. -1.
        -11    1    3    3    0    0 -0.33716386445E+00 -0.17985367478E+00 -0.23329225046E+01  0.23640123708E+01  0.51100000000E-03 0.  1.
        -12    1    3    3    0    0 -0.14701747039E+02 -0.34853748283E+02  0.60135919551E+01  0.38302590299E+02  0.00000000000E+00 0.  1.
</event>
<event>
 7    1  0.1736465E-010  0.4778731E+02  0.7816164E-02  0.1312668E+00
        -11   -1    0    0    0    0  0.00000000000E+00  0.00000000000E+00  0.45593999997E+02  0.45594000000E+02  0.51100000000E-03 0.  1.
         11   -1    0    0    0    0 -0.00000000000E+00 -0.00000000000E+00 -0.45593999997E+02  0.45594000000E+02  0.51100000000E-03 0. -1.
    9900012    2    1    2    0    0 -0.75456178442E+01  0.37097250671E+02  0.21224464310E+02  0.47787305982E+02  0.20000159293E+02 0.  0.
         12    1    1    2    0    0  0.75456178442E+01 -0.37097250671E+02 -0.21224464310E+02  0.43400694018E+02  0.00000000000E+00 0. -1.
         11    1    3    3    0    0 -0.13173488096E+01 -0.60995215018E+00 -0.26912370900E+00  0.14764407687E+01  0.51100000000E-03 0. -1.
        -11    1    3    3    0    0 -0.97878474259E+01  0.17868683584E+02  0.72283678227E+01  0.21618073732E+02  0.51100000000E-03 0.  1.
         12    1    3    3    0    0  0.35595783913E+01  0.19838519238E+02  0.14265220196E+02  0.24692791481E+02  0.00000000000E+00 0. -1.
</event>
<event>
 7    1  0.1736465E-010  0.4778727E+02  0.7816164E-02  0.1312668E+00
        -11   -1    0    0    0    0  0.00000000000E+00  0.00000000000E+00  0.45593999997E+02  0.45594000000E+02  0.51100000000E-03 0. -1.
         11   -1    0    0    0    0 -0.00000000000E+00 -0.00000000000E+00 -0.45593999997E+02  0.45594000000E+02  0.51100000000E-03 0.  1.
    9900012    2    1    2    0    0 -0.26479273789E+02 -0.34007818532E+02 -0.50930942836E+01  0.47787271077E+02  0.20000000146E+02 0.  0.
         12    1    1    2    0    0  0.26479273789E+02  0.34007818532E+02  0.50930942836E+01  0.43400728923E+02  0.00000000000E+00 0. -1.
         11    1    3    3    0    0 -0.14822542956E+02 -0.72782694532E+01 -0.55768463637E+01  0.17429348856E+02  0.51100000000E-03 0. -1.
        -11    1    3    3    0    0 -0.11181904491E+02 -0.15785425279E+02 -0.56930470699E+00  0.19353003576E+02  0.51100000000E-03 0.  1.
         12    1    3    3    0    0 -0.47482634280E+00 -0.10944123799E+02  0.10530567870E+01  0.11004918645E+02  0.00000000000E+00 0. -1.
</event>
<event>
 7    1  0.1736465E-010  0.4778727E+02  0.7816164E-02  0.1312668E+00
        -11   -1    0    0    0    0  0.00000000000E+00  0.00000000000E+00  0.45593999997E+02  0.45594000000E+02  0.51100000000E-03 0.  1.
         11   -1    0    0    0    0 -0.00000000000E+00 -0.00000000000E+00 -0.45593999997E+02  0.45594000000E+02  0.51100000000E-03 0. -1.
    9900012    2    1    2    0    0 -0.25310677477E+02 -0.32052270268E+02 -0.14684841614E+02  0.47787274235E+02  0.20000014548E+02 0.  0.
         12    1    1    2    0    0  0.25310677477E+02  0.32052270268E+02  0.14684841614E+02  0.43400725765E+02  0.00000000000E+00 0. -1.
         11    1    3    3    0    0 -0.16036807010E+01 -0.63776489941E+01 -0.59563925896E+01  0.88727003457E+01  0.51100000000E-03 0. -1.
        -11    1    3    3    0    0 -0.14953363384E+02 -0.21448349168E+02 -0.45577622460E+00  0.26150382229E+02  0.51100000000E-03 0.  1.
        -12    1    3    3    0    0 -0.87536333925E+01 -0.42262721060E+01 -0.82726728003E+01  0.12764191660E+02  0.00000000000E+00 0.  1.
</event>
<event>
 7    1  0.1736465E-010  0.4778727E+02  0.7816164E-02  0.1312668E+00
        -11   -1    0    0    0    0  0.00000000000E+00  0.00000000000E+00  0.45593999997E+02  0.45594000000E+02  0.51100000000E-03 0.  1.
         11   -1    0    0    0    0 -0.00000000000E+00 -0.00000000000E+00 -0.45593999997E+02  0.45594000000E+02  0.51100000000E-03 0. -1.
    9900012    2    1    2    0    0  0.61573523513E+01  0.82576151617E+01  0.42160673028E+02  0.47787267906E+02  0.19999985688E+02 0.  0.
         12    1    1    2    0    0 -0.61573523513E+01 -0.82576151617E+01 -0.42160673028E+02  0.43400732094E+02  0.00000000000E+00 0. -1.
         11    1    3    3    0    0 -0.26831652896E+01 -0.57220072336E-01  0.44813019228E+01  0.52234775095E+01  0.51100000000E-03 0. -1.
        -11    1    3    3    0    0  0.97323959905E+01  0.12003175472E+02  0.33651521483E+02  0.37029996645E+02  0.51100000000E-03 0.  1.
        -12    1    3    3    0    0 -0.89187834966E+00 -0.36883402378E+01  0.40278496226E+01  0.55337937514E+01  0.00000000000E+00 0.  1.
</event>
<event>
 7    1  0.1736465E-010  0.4778727E+02  0.7816164E-02  0.1312668E+00
        -11   -1    0    0    0    0  0.00000000000E+00  0.00000000000E+00  0.45593999997E+02  0.45594000000E+02  0.51100000000E-03 0.  1.
         11   -1    0    0    0    0 -0.00000000000E+00 -0.00000000000E+00 -0.45593999997E+02  0.45594000000E+02  0.51100000000E-03 0. -1.
    9900012    2    1    2    0    0 -0.22681934808E+02  0.11313388165E+02  0.35230105551E+02  0.47787271256E+02  0.20000000964E+02 0.  0.
         12    1    1    2    0    0  0.22681934808E+02 -0.11313388165E+02 -0.35230105551E+02  0.43400728744E+02  0.00000000000E+00 0. -1.
         11    1    3    3    0    0 -0.46648019528E+01  0.79252129573E+01  0.71304139974E+01  0.11636673997E+02  0.51100000000E-03 0. -1.
        -11    1    3    3    0    0 -0.17684774287E+02  0.65446458053E+01  0.26685991273E+02  0.32676073215E+02  0.51100000000E-03 0.  1.
         12    1    3    3    0    0 -0.33235856858E+00 -0.31564705972E+01  0.14137002805E+01  0.34745240440E+01  0.00000000000E+00 0. -1.
</event>
<event>
 7    1  0.1736465E-010  0.4778727E+02  0.7816164E-02  0.1312668E+00
        -11   -1    0    0    0    0  0.00000000000E+00  0.00000000000E+00  0.45593999997E+02  0.45594000000E+02  0.51100000000E-03 0.  1.
         11   -1    0    0    0    0 -0.00000000000E+00 -0.00000000000E+00 -0.45593999997E+02  0.45594000000E+02  0.51100000000E-03 0. -1.
    9900012    2    1    2    0    0  0.23473265615E+02  0.21441815989E+00  0.36504564521E+02  0.47787269538E+02  0.19999993132E+02 0.  0.
         12    1    1    2    0    0 -0.23473265615E+02 -0.21441815989E+00 -0.36504564521E+02  0.43400730462E+02  0.00000000000E+00 0. -1.
         11    1    3    3    0    0  0.33119657791E+01  0.43533334964E+01  0.25572058170E+01  0.60382060005E+01  0.51100000000E-03 0. -1.
        -11    1    3    3    0    0  0.18940699365E+02 -0.18413513442E+01  0.34197102905E+02  0.39135438091E+02  0.51100000000E-03 0.  1.
         12    1    3    3    0    0  0.12206004705E+01 -0.22975639923E+01 -0.24974420145E+00  0.26136254463E+01  0.00000000000E+00 0. -1.
</event>
<event>
 7    1  0.1736465E-010  0.4778728E+02  0.7816164E-02  0.1312668E+00
        -11   -1    0    0    0    0  0.00000000000E+00  0.00000000000E+00  0.45593999997E+02  0.45594000000E+02  0.51100000000E-03 0.  1.
         11   -1    0    0    0    0 -0.00000000000E+00 -0.00000000000E+00 -0.45593999997E+02  0.45594000000E+02  0.51100000000E-03 0. -1.
    9900012    2    1    2    0    0 -0.18516858553E+02 -0.15138020428E+02  0.36215869673E+02  0.47787275014E+02  0.20000018099E+02 0.  0.
         12    1    1    2    0    0  0.18516858553E+02  0.15138020428E+02 -0.36215869673E+02  0.43400724986E+02  0.00000000000E+00 0. -1.
         11    1    3    3    0    0 -0.52288944877E+00 -0.33530687231E+01  0.14875996216E+01  0.37053253747E+01  0.51100000000E-03 0. -1.
        -11    1    3    3    0    0 -0.13178407243E+01  0.28950933424E+01  0.42031093366E+00  0.32085715167E+01  0.51100000000E-03 0.  1.
         12    1    3    3    0    0 -0.16676128380E+02 -0.14680045047E+02  0.34307959118E+02  0.40873378123E+02  0.00000000000E+00 0. -1.
</event>
<event>
 7    1  0.1736465E-010  0.4778727E+02  0.7816164E-02  0.1312668E+00
        -11   -1    0    0    0    0  0.00000000000E+00  0.00000000000E+00  0.45593999997E+02  0.45594000000E+02  0.51100000000E-03 0.  1.
         11   -1    0    0    0    0 -0.00000000000E+00 -0.00000000000E+00 -0.45593999997E+02  0.45594000000E+02  0.51100000000E-03 0. -1.
    9900012    2    1    2    0    0  0.21396858986E+02 -0.59195260171E+01  0.37292859302E+02  0.47787265932E+02  0.19999976689E+02 0.  0.
         12    1    1    2    0    0 -0.21396858986E+02  0.59195260171E+01 -0.37292859302E+02  0.43400734068E+02  0.00000000000E+00 0. -1.
         11    1    3    3    0    0  0.95253861350E+01 -0.50972707414E+01  0.87239967984E+01  0.13886081896E+02  0.51100000000E-03 0. -1.
        -11    1    3    3    0    0  0.83278693163E+01  0.60562999650E+01  0.13686859754E+02  0.17127822593E+02  0.51100000000E-03 0.  1.
         12    1    3    3    0    0  0.35436035343E+01 -0.68785552406E+01  0.14882002750E+02  0.16773361442E+02  0.00000000000E+00 0. -1.
</event>
<event>
 7    1  0.1736465E-010  0.4778727E+02  0.7816164E-02  0.1312668E+00
        -11   -1    0    0    0    0  0.00000000000E+00  0.00000000000E+00  0.45593999997E+02  0.45594000000E+02  0.51100000000E-03 0.  1.
         11   -1    0    0    0    0 -0.00000000000E+00 -0.00000000000E+00 -0.45593999997E+02  0.45594000000E+02  0.51100000000E-03 0. -1.
    9900012    2    1    2    0    0 -0.59730748034E+01 -0.19823002650E+02  0.38144387981E+02  0.47787269694E+02  0.19999993842E+02 0.  0.
         12    1    1    2    0    0  0.59730748034E+01  0.19823002650E+02 -0.38144387981E+02  0.43400730306E+02  0.00000000000E+00 0. -1.
         11    1    3    3    0    0 -0.78520337911E+01 -0.25874165419E+01  0.87859964827E+01  0.12064115942E+02  0.51100000000E-03 0. -1.
        -11    1    3    3    0    0 -0.12121097849E+01 -0.14279571850E+02  0.15017853442E+02  0.20758403229E+02  0.51100000000E-03 0.  1.
         12    1    3    3    0    0  0.30910687727E+01 -0.29560142576E+01  0.14340538057E+02  0.14964750523E+02  0.00000000000E+00 0. -1.
</event>
<event>
 7    1  0.1736465E-010  0.4778728E+02  0.7816164E-02  0.1312668E+00
        -11   -1    0    0    0    0  0.00000000000E+00  0.00000000000E+00  0.45593999997E+02  0.45594000000E+02  0.51100000000E-03 0.  1.
         11   -1    0    0    0    0 -0.00000000000E+00 -0.00000000000E+00 -0.45593999997E+02  0.45594000000E+02  0.51100000000E-03 0. -1.
    9900012    2    1    2    0    0 -0.11664734833E+02 -0.81211030815E+01  0.41007371953E+02  0.47787275254E+02  0.20000019195E+02 0.  0.
         12    1    1    2    0    0  0.11664734833E+02  0.81211030815E+01 -0.41007371953E+02  0.43400724746E+02  0.00000000000E+00 0. -1.
         11    1    3    3    0    0 -0.18540729894E+01  0.27316657739E+01  0.11555792105E+01  0.34978490710E+01  0.51100000000E-03 0. -1.
        -11    1    3    3    0    0  0.69008787015E+00 -0.82806981584E+01  0.14201143698E+02  0.16453530498E+02  0.51100000000E-03 0.  1.
        -12    1    3    3    0    0 -0.10500749714E+02 -0.25720706969E+01  0.25650649045E+02  0.27835895686E+02  0.00000000000E+00 0.  1.
</event>
<event>
 7    1  0.1736465E-010  0.4778727E+02  0.7816164E-02  0.1312668E+00
        -11   -1    0    0    0    0  0.00000000000E+00  0.00000000000E+00  0.45593999997E+02  0.45594000000E+02  0.51100000000E-03 0. -1.
         11   -1    0    0    0    0 -0.00000000000E+00 -0.00000000000E+00 -0.45593999997E+02  0.45594000000E+02  0.51100000000E-03 0.  1.
    9900012    2    1    2    0    0  0.18928265934E+01 -0.19239154876E+02 -0.38857375064E+02  0.47787268788E+02  0.19999989713E+02 0.  0.
         12    1    1    2    0    0 -0.18928265934E+01  0.19239154876E+02  0.38857375064E+02  0.43400731212E+02  0.00000000000E+00 0. -1.
         11    1    3    3    0    0  0.51666535517E+01 -0.82001806961E+01 -0.11872521625E+02  0.15326253370E+02  0.51100000000E-03 0. -1.
        -11    1    3    3    0    0 -0.33700620364E+00 -0.12881086849E+01 -0.20155695286E+02  0.20199624994E+02  0.51100000000E-03 0.  1.
        -12    1    3    3    0    0 -0.29368207546E+01 -0.97508654952E+01 -0.68291581526E+01  0.12261390424E+02  0.00000000000E+00 0.  1.
</event>
<event>
 7    1  0.1736465E-010  0.4778727E+02  0.7816164E-02  0.1312668E+00
        -11   -1    0    0    0    0  0.00000000000E+00  0.00000000000E+00  0.45593999997E+02  0.45594000000E+02  0.51100000000E-03 0.  1.
         11   -1    0    0    0    0 -0.00000000000E+00 -0.00000000000E+00 -0.45593999997E+02  0.45594000000E+02  0.51100000000E-03 0. -1.
    9900012    2    1    2    0    0 -0.25454996314E+01 -0.62922783075E+01  0.42866662950E+02  0.47787272735E+02  0.20000007706E+02 0.  0.
         12    1    1    2    0    0  0.25454996314E+01  0.62922783075E+01 -0.42866662950E+02  0.43400727265E+02  0.00000000000E+00 0. -1.
         11    1    3    3    0    0 -0.77558858709E+01 -0.30301653477E+01  0.86559186477E+01  0.12010853241E+02  0.51100000000E-03 0. -1.
        -11    1    3    3    0    0  0.12120792857E+01  0.24063703393E+01  0.17134062370E+02  0.17344620144E+02  0.51100000000E-03 0.  1.
        -12    1    3    3    0    0  0.39983069538E+01 -0.56684832992E+01  0.17076681933E+02  0.18431799349E+02  0.00000000000E+00 0.  1.
</event>
<event>
 7    1  0.1736465E-010  0.4778727E+02  0.7816164E-02  0.1312668E+00
        -11   -1    0    0    0    0  0.00000000000E+00  0.00000000000E+00  0.45593999997E+02  0.45594000000E+02  0.51100000000E-03 0.  1.
         11   -1    0    0    0    0 -0.00000000000E+00 -0.00000000000E+00 -0.45593999997E+02  0.45594000000E+02  0.51100000000E-03 0. -1.
    9900012    2    1    2    0    0 -0.20330648516E+02  0.35538756071E+02  0.14397394085E+02  0.47787269493E+02  0.19999992926E+02 0.  0.
         12    1    1    2    0    0  0.20330648516E+02 -0.35538756071E+02 -0.14397394085E+02  0.43400730507E+02  0.00000000000E+00 0. -1.
         11    1    3    3    0    0 -0.70080082181E+01  0.98093706853E+01  0.10364140200E+02  0.15898155074E+02  0.51100000000E-03 0. -1.
        -11    1    3    3    0    0 -0.12939796279E+02  0.24971358649E+02  0.68501033383E+01  0.28947037785E+02  0.51100000000E-03 0.  1.
         12    1    3    3    0    0 -0.38284401888E+00  0.75802673677E+00 -0.28168494533E+01  0.29420766338E+01  0.00000000000E+00 0. -1.
</event>
<event>
 7    1  0.1736465E-010  0.4778727E+02  0.7816164E-02  0.1312668E+00
        -11   -1    0    0    0    0  0.00000000000E+00  0.00000000000E+00  0.45593999997E+02  0.45594000000E+02  0.51100000000E-03 0.  1.
         11   -1    0    0    0    0 -0.00000000000E+00 -0.00000000000E+00 -0.45593999997E+02  0.45594000000E+02  0.51100000000E-03 0. -1.
    9900012    2    1    2    0    0  0.15642011479E+02  0.39488821364E+02  0.89209757390E+01  0.47787270237E+02  0.19999996319E+02 0.  0.
         12    1    1    2    0    0 -0.15642011479E+02 -0.39488821364E+02 -0.89209757390E+01  0.43400729763E+02  0.00000000000E+00 0. -1.
         11    1    3    3    0    0 -0.18193492789E+01  0.20863857408E+01 -0.16366333574E+01  0.32158367909E+01  0.51100000000E-03 0. -1.
        -11    1    3    3    0    0  0.11162300534E+02  0.94362168768E+01  0.42035402454E+01  0.15208842593E+02  0.51100000000E-03 0.  1.
         12    1    3    3    0    0  0.62990602242E+01  0.27966218746E+02  0.63540688510E+01  0.29362590854E+02  0.00000000000E+00 0. -1.
</event>
<event>
 7    1  0.1736465E-010  0.4778727E+02  0.7816164E-02  0.1312668E+00
        -11   -1    0    0    0    0  0.00000000000E+00  0.00000000000E+00  0.45593999997E+02  0.45594000000E+02  0.51100000000E-03 0.  1.
         11   -1    0    0    0    0 -0.00000000000E+00 -0.00000000000E+00 -0.45593999997E+02  0.45594000000E+02  0.51100000000E-03 0. -1.
    9900012    2    1    2    0    0  0.38532782456E+02 -0.18209709288E+02 -0.82008751038E+01  0.47787272027E+02  0.20000004479E+02 0.  0.
         12    1    1    2    0    0 -0.38532782456E+02  0.18209709288E+02  0.82008751038E+01  0.43400727973E+02  0.00000000000E+00 0. -1.
         11    1    3    3    0    0  0.11891557204E+02 -0.13680200842E+02 -0.12475213943E+01  0.18169021375E+02  0.51100000000E-03 0. -1.
        -11    1    3    3    0    0  0.12785191888E+02 -0.47435942598E+01 -0.78442133720E+01  0.15731957977E+02  0.51100000000E-03 0.  1.
        -12    1    3    3    0    0  0.13856033364E+02  0.21408581395E+00  0.89085966244E+00  0.13886292675E+02  0.00000000000E+00 0.  1.
</event>
<event>
 7    1  0.1736465E-010  0.4778727E+02  0.7816164E-02  0.1312668E+00
        -11   -1    0    0    0    0  0.00000000000E+00  0.00000000000E+00  0.45593999997E+02  0.45594000000E+02  0.51100000000E-03 0. -1.
         11   -1    0    0    0    0 -0.00000000000E+00 -0.00000000000E+00 -0.45593999997E+02  0.45594000000E+02  0.51100000000E-03 0.  1.
    9900012    2    1    2    0    0 -0.21458626615E+02 -0.36816782499E+02  0.82264794087E+01  0.47787273126E+02  0.20000009490E+02 0.  0.
         12    1    1    2    0    0  0.21458626615E+02  0.36816782499E+02 -0.82264794087E+01  0.43400726874E+02  0.00000000000E+00 0. -1.
         11    1    3    3    0    0 -0.68973966185E+00  0.68378803967E+00  0.66565423535E+00  0.11774560317E+01  0.51100000000E-03 0. -1.
        -11    1    3    3    0    0 -0.71418039238E+01 -0.10425112644E+02  0.10121464419E+02  0.16190502746E+02  0.51100000000E-03 0.  1.
         12    1    3    3    0    0 -0.13627083029E+02 -0.27075457894E+02 -0.25606392457E+01  0.30419314348E+02  0.00000000000E+00 0. -1.
</event>
<event>
 7    1  0.1736465E-010  0.4778727E+02  0.7816164E-02  0.1312668E+00
        -11   -1    0    0    0    0  0.00000000000E+00  0.00000000000E+00  0.45593999997E+02  0.45594000000E+02  0.51100000000E-03 0.  1.
         11   -1    0    0    0    0 -0.00000000000E+00 -0.00000000000E+00 -0.45593999997E+02  0.45594000000E+02  0.51100000000E-03 0. -1.
    9900012    2    1    2    0    0 -0.32290811703E+02  0.94945155843E+01  0.27400381903E+02  0.47787271031E+02  0.19999999939E+02 0.  0.
         12    1    1    2    0    0  0.32290811703E+02 -0.94945155843E+01 -0.27400381903E+02  0.43400728969E+02  0.00000000000E+00 0. -1.
         11    1    3    3    0    0 -0.51479877597E+01  0.52822583139E+01  0.14320505656E+02  0.16108411262E+02  0.51100000000E-03 0. -1.
        -11    1    3    3    0    0 -0.11758931394E+02  0.61659385914E+01  0.49554152253E+01  0.14172064301E+02  0.51100000000E-03 0.  1.
        -12    1    3    3    0    0 -0.15383892550E+02 -0.19536813209E+01  0.81244610215E+01  0.17506795468E+02  0.00000000000E+00 0.  1.
</event>
<event>
 7    1  0.2136380E-010  0.4778727E+02  0.7816164E-02  0.1312668E+00
        -11   -1    0    0    0    0  0.00000000000E+00  0.00000000000E+00  0.45593999997E+02  0.45594000000E+02  0.51100000000E-03 0. -1.
         11   -1    0    0    0    0 -0.00000000000E+00 -0.00000000000E+00 -0.45593999997E+02  0.45594000000E+02  0.51100000000E-03 0.  1.
    9900012    2    1    2    0    0 -0.90360179875E+01 -0.29822462387E+02 -0.30209180901E+02  0.47787268502E+02  0.19999988408E+02 0.  0.
         12    1    1    2    0    0  0.90360179875E+01  0.29822462387E+02  0.30209180901E+02  0.43400731498E+02  0.00000000000E+00 0. -1.
         11    1    3    3    0    0 -0.46458487019E+00 -0.16759544177E+01  0.17926868553E+01  0.24976766673E+01  0.51100000000E-03 0. -1.
        -11    1    3    3    0    0 -0.31498134104E+01 -0.74623302783E+01 -0.17977282704E+02  0.19717768418E+02  0.51100000000E-03 0.  1.
        -12    1    3    3    0    0 -0.54216197070E+01 -0.20684177691E+02 -0.14024585052E+02  0.25571823417E+02  0.00000000000E+00 0.  1.
</event>
<event>
 7    1  0.2343378E-010  0.4778727E+02  0.7816164E-02  0.1312668E+00
        -11   -1    0    0    0    0  0.00000000000E+00  0.00000000000E+00  0.45593999997E+02  0.45594000000E+02  0.51100000000E-03 0.  1.
         11   -1    0    0    0    0 -0.00000000000E+00 -0.00000000000E+00 -0.45593999997E+02  0.45594000000E+02  0.51100000000E-03 0. -1.
    9900012    2    1    2    0    0  0.19401460264E+02  0.38270971267E+02  0.65222135202E+01  0.47787272226E+02  0.20000005387E+02 0.  0.
         12    1    1    2    0    0 -0.19401460264E+02 -0.38270971267E+02 -0.65222135202E+01  0.43400727774E+02  0.00000000000E+00 0. -1.
         11    1    3    3    0    0 -0.60074468210E-01  0.27258811716E+01 -0.32511207625E+01  0.42430912760E+01  0.51100000000E-03 0. -1.
        -11    1    3    3    0    0  0.75471652065E+01  0.26096232989E+02  0.51403773287E+01  0.27647722478E+02  0.51100000000E-03 0.  1.
        -12    1    3    3    0    0  0.11914369525E+02  0.94488571067E+01  0.46329569540E+01  0.15896458472E+02  0.00000000000E+00 0.  1.
</event>
<event>
 7    1  0.1736465E-010  0.4778727E+02  0.7816164E-02  0.1312668E+00
        -11   -1    0    0    0    0  0.00000000000E+00  0.00000000000E+00  0.45593999997E+02  0.45594000000E+02  0.51100000000E-03 0.  1.
         11   -1    0    0    0    0 -0.00000000000E+00 -0.00000000000E+00 -0.45593999997E+02  0.45594000000E+02  0.51100000000E-03 0. -1.
    9900012    2    1    2    0    0  0.46409970515E+01  0.37472066203E+02 -0.21399269799E+02  0.47787270201E+02  0.19999996157E+02 0.  0.
         12    1    1    2    0    0 -0.46409970515E+01 -0.37472066203E+02  0.21399269799E+02  0.43400729799E+02  0.00000000000E+00 0. -1.
         11    1    3    3    0    0  0.19232009872E+01  0.16033039233E+02 -0.10127438957E+02  0.19061009133E+02  0.51100000000E-03 0.  1.
        -11    1    3    3    0    0  0.69898276850E+01  0.34470375170E+01 -0.20318542549E+01  0.80540791332E+01  0.51100000000E-03 0. -1.
        -12    1    3    3    0    0 -0.42720316208E+01  0.17991989453E+02 -0.92399765865E+01  0.20672181935E+02  0.00000000000E+00 0.  1.
</event>
<event>
 7    1  0.1736465E-010  0.4778729E+02  0.7816164E-02  0.1312668E+00
        -11   -1    0    0    0    0  0.00000000000E+00  0.00000000000E+00  0.45593999997E+02  0.45594000000E+02  0.51100000000E-03 0.  1.
         11   -1    0    0    0    0 -0.00000000000E+00 -0.00000000000E+00 -0.45593999997E+02  0.45594000000E+02  0.51100000000E-03 0. -1.
    9900012    2    1    2    0    0  0.14639746067E+02  0.38398813267E+02  0.13958160303E+02  0.47787294196E+02  0.20000105558E+02 0.  0.
         12    1    1    2    0    0 -0.14639746067E+02 -0.38398813267E+02 -0.13958160303E+02  0.43400705804E+02  0.00000000000E+00 0. -1.
         11    1    3    3    0    0 -0.28496795108E+01  0.96184631665E+01 -0.11325559205E+01  0.10095453936E+02  0.51100000000E-03 0. -1.
        -11    1    3    3    0    0  0.70036625067E+01  0.18802868695E+02  0.87607769536E+01  0.21894071635E+02  0.51100000000E-03 0.  1.
         12    1    3    3    0    0  0.10485763071E+02  0.99774814057E+01  0.63299392699E+01  0.15797768626E+02  0.00000000000E+00 0. -1.
</event>
<event>
 7    1  0.1736465E-010  0.4778726E+02  0.7816164E-02  0.1312668E+00
        -11   -1    0    0    0    0  0.00000000000E+00  0.00000000000E+00  0.45593999997E+02  0.45594000000E+02  0.51100000000E-03 0.  1.
         11   -1    0    0    0    0 -0.00000000000E+00 -0.00000000000E+00 -0.45593999997E+02  0.45594000000E+02  0.51100000000E-03 0. -1.
    9900012    2    1    2    0    0  0.13753800611E+01  0.81148069025E+01  0.42613177271E+02  0.47787255323E+02  0.19999928320E+02 0.  0.
         12    1    1    2    0    0 -0.13753800611E+01 -0.81148069025E+01 -0.42613177271E+02  0.43400744677E+02  0.00000000000E+00 0. -1.
         11    1    3    3    0    0 -0.36547823033E+00 -0.41293380102E+01  0.76082215727E+01  0.86642969997E+01  0.51100000000E-03 0. -1.
        -11    1    3    3    0    0  0.53904003202E+01  0.69049115019E+01  0.99952181427E+01  0.13290545679E+02  0.51100000000E-03 0.  1.
         12    1    3    3    0    0 -0.36495420287E+01  0.53392334108E+01  0.25009737556E+02  0.25832412645E+02  0.00000000000E+00 0. -1.
</event>
<event>
 7    1  0.1736465E-010  0.4778727E+02  0.7816164E-02  0.1312668E+00
        -11   -1    0    0    0    0  0.00000000000E+00  0.00000000000E+00  0.45593999997E+02  0.45594000000E+02  0.51100000000E-03 0.  1.
         11   -1    0    0    0    0 -0.00000000000E+00 -0.00000000000E+00 -0.45593999997E+02  0.45594000000E+02  0.51100000000E-03 0. -1.
    9900012    2    1    2    0    0 -0.35860259906E+02 -0.13825783126E+02  0.20162155740E+02  0.47787273696E+02  0.20000012091E+02 0.  0.
         12    1    1    2    0    0  0.35860259906E+02  0.13825783126E+02 -0.20162155740E+02  0.43400726304E+02  0.00000000000E+00 0. -1.
         11    1    3    3    0    0 -0.58146731773E+01 -0.63805925682E+00  0.10396404209E+02  0.11929072240E+02  0.51100000000E-03 0. -1.
        -11    1    3    3    0    0 -0.13171658101E+02 -0.11180226807E+02  0.70027293322E+01  0.18642110045E+02  0.51100000000E-03 0.  1.
         12    1    3    3    0    0 -0.16873928628E+02 -0.20074970622E+01  0.27630221994E+01  0.17216091411E+02  0.00000000000E+00 0. -1.
</event>
<event>
 7    1  0.1736465E-010  0.4778728E+02  0.7816164E-02  0.1312668E+00
        -11   -1    0    0    0    0  0.00000000000E+00  0.00000000000E+00  0.45593999997E+02  0.45594000000E+02  0.51100000000E-03 0.  1.
         11   -1    0    0    0    0 -0.00000000000E+00 -0.00000000000E+00 -0.45593999997E+02  0.45594000000E+02  0.51100000000E-03 0. -1.
    9900012    2    1    2    0    0  0.29228694302E+02 -0.39488187086E+01  0.31838849373E+02  0.47787284923E+02  0.20000063278E+02 0.  0.
         12    1    1    2    0    0 -0.29228694302E+02  0.39488187086E+01 -0.31838849373E+02  0.43400715077E+02  0.00000000000E+00 0. -1.
         11    1    3    3    0    0  0.99596550087E+01  0.18505952767E+01  0.63980487163E+01  0.11981421385E+02  0.51100000000E-03 0. -1.
        -11    1    3    3    0    0  0.16478759091E+02 -0.49029162035E+01  0.27352246393E+02  0.32306864154E+02  0.51100000000E-03 0.  1.
         12    1    3    3    0    0  0.27902802030E+01 -0.89649778190E+00 -0.19114457367E+01  0.34989993839E+01  0.00000000000E+00 0. -1.
</event>
<event>
 7    1  0.2683408E-010  0.4778727E+02  0.7816164E-02  0.1312668E+00
        -11   -1    0    0    0    0  0.00000000000E+00  0.00000000000E+00  0.45593999997E+02  0.45594000000E+02  0.51100000000E-03 0.  1.
         11   -1    0    0    0    0 -0.00000000000E+00 -0.00000000000E+00 -0.45593999997E+02  0.45594000000E+02  0.51100000000E-03 0. -1.
    9900012    2    1    2    0    0 -0.39932414433E+01 -0.43216582510E+02  0.66237554585E-01  0.47787269955E+02  0.19999995031E+02 0.  0.
         12    1    1    2    0    0  0.39932414433E+01  0.43216582510E+02 -0.66237554585E-01  0.43400730045E+02  0.00000000000E+00 0. -1.
         11    1    3    3    0    0  0.45737534720E+00 -0.33709187918E+01  0.41532185500E+01  0.53685668753E+01  0.51100000000E-03 0. -1.
        -11    1    3    3    0    0  0.25216153216E+01 -0.29403425166E+02 -0.12034509774E+01  0.29535880719E+02  0.51100000000E-03 0.  1.
         12    1    3    3    0    0 -0.69722321121E+01 -0.10442238552E+02 -0.28835300180E+01  0.12882822361E+02  0.00000000000E+00 0. -1.
</event>
<event>
 7    1  0.1736465E-010  0.4778728E+02  0.7816164E-02  0.1312668E+00
        -11   -1    0    0    0    0  0.00000000000E+00  0.00000000000E+00  0.45593999997E+02  0.45594000000E+02  0.51100000000E-03 0.  1.
         11   -1    0    0    0    0 -0.00000000000E+00 -0.00000000000E+00 -0.45593999997E+02  0.45594000000E+02  0.51100000000E-03 0. -1.
    9900012    2    1    2    0    0  0.40515951451E+02  0.10864496066E+02  0.11137470496E+02  0.47787275976E+02  0.20000022483E+02 0.  0.
         12    1    1    2    0    0 -0.40515951451E+02 -0.10864496066E+02 -0.11137470496E+02  0.43400724024E+02  0.00000000000E+00 0. -1.
         11    1    3    3    0    0  0.10639876170E+02  0.83328680840E+01  0.89512145642E+01  0.16210117145E+02  0.51100000000E-03 0. -1.
        -11    1    3    3    0    0  0.19366744356E+02  0.12831699719E+01  0.60193517870E+01  0.20321168970E+02  0.51100000000E-03 0.  1.
         12    1    3    3    0    0  0.10509330926E+02  0.12484580103E+01 -0.38330958548E+01  0.11255989860E+02  0.00000000000E+00 0. -1.
</event>
<event>
 7    1  0.1736465E-010  0.4778726E+02  0.7816164E-02  0.1312668E+00
        -11   -1    0    0    0    0  0.00000000000E+00  0.00000000000E+00  0.45593999997E+02  0.45594000000E+02  0.51100000000E-03 0. -1.
         11   -1    0    0    0    0 -0.00000000000E+00 -0.00000000000E+00 -0.45593999997E+02  0.45594000000E+02  0.51100000000E-03 0.  1.
    9900012    2    1    2    0    0 -0.16936825577E+02  0.29446997284E+02  0.27011890939E+02  0.47787263120E+02  0.19999963868E+02 0.  0.
         12    1    1    2    0    0  0.16936825577E+02 -0.29446997284E+02 -0.27011890939E+02  0.43400736880E+02  0.00000000000E+00 0. -1.
         11    1    3    3    0    0 -0.10685155030E+02  0.14789559582E+02  0.75192683774E+01  0.19734310422E+02  0.51100000000E-03 0. -1.
        -11    1    3    3    0    0 -0.78148941668E+01  0.15539777939E+02  0.19659907306E+02  0.26250128091E+02  0.51100000000E-03 0.  1.
         12    1    3    3    0    0  0.15632236193E+01 -0.88234023715E+00 -0.16728474467E+00  0.18028246070E+01  0.00000000000E+00 0. -1.
</event>
<event>
 7    1  0.1736465E-010  0.4778728E+02  0.7816164E-02  0.1312668E+00
        -11   -1    0    0    0    0  0.00000000000E+00  0.00000000000E+00  0.45593999997E+02  0.45594000000E+02  0.51100000000E-03 0.  1.
         11   -1    0    0    0    0 -0.00000000000E+00 -0.00000000000E+00 -0.45593999997E+02  0.45594000000E+02  0.51100000000E-03 0. -1.
    9900012    2    1    2    0    0 -0.84126842663E-02 -0.29482547158E+02  0.31849678419E+02  0.47787277966E+02  0.20000031556E+02 0.  0.
         12    1    1    2    0    0  0.84126842663E-02  0.29482547158E+02 -0.31849678419E+02  0.43400722034E+02  0.00000000000E+00 0. -1.
         11    1    3    3    0    0  0.24134226882E+01 -0.88809047663E+01  0.60059493678E+01  0.10989381539E+02  0.51100000000E-03 0. -1.
        -11    1    3    3    0    0  0.17270341487E+01 -0.13775626667E+02  0.54841595270E+01  0.14927375624E+02  0.51100000000E-03 0.  1.
         12    1    3    3    0    0 -0.41488695211E+01 -0.68260157244E+01  0.20359569524E+02  0.21870520803E+02  0.00000000000E+00 0. -1.
</event>
<event>
 7    1  0.1736465E-010  0.4778727E+02  0.7816164E-02  0.1312668E+00
        -11   -1    0    0    0    0  0.00000000000E+00  0.00000000000E+00  0.45593999997E+02  0.45594000000E+02  0.51100000000E-03 0. -1.
         11   -1    0    0    0    0 -0.00000000000E+00 -0.00000000000E+00 -0.45593999997E+02  0.45594000000E+02  0.51100000000E-03 0.  1.
    9900012    2    1    2    0    0  0.53374844807E+01 -0.43061722617E+02 -0.90708695377E+00  0.47787268415E+02  0.19999988012E+02 0.  0.
         12    1    1    2    0    0 -0.53374844807E+01  0.43061722617E+02  0.90708695377E+00  0.43400731585E+02  0.00000000000E+00 0. -1.
         11    1    3    3    0    0  0.25177654233E+01 -0.72050426177E+01  0.30936854124E+01  0.82354521152E+01  0.51100000000E-03 0. -1.
        -11    1    3    3    0    0  0.35007669436E+01 -0.28339686319E+02 -0.96308969631E+01  0.30135483511E+02  0.51100000000E-03 0.  1.
        -12    1    3    3    0    0 -0.68104788626E+00 -0.75169936809E+01  0.56301245969E+01  0.94163327893E+01  0.00000000000E+00 0.  1.
</event>
<event>
 7    1  0.1736465E-010  0.4778727E+02  0.7816164E-02  0.1312668E+00
        -11   -1    0    0    0    0  0.00000000000E+00  0.00000000000E+00  0.45593999997E+02  0.45594000000E+02  0.51100000000E-03 0.  1.
         11   -1    0    0    0    0 -0.00000000000E+00 -0.00000000000E+00 -0.45593999997E+02  0.45594000000E+02  0.51100000000E-03 0. -1.
    9900012    2    1    2    0    0 -0.40820686122E+02 -0.81999461920E+01  0.12249745136E+02  0.47787265111E+02  0.19999972948E+02 0.  0.
         12    1    1    2    0    0  0.40820686122E+02  0.81999461920E+01 -0.12249745136E+02  0.43400734889E+02  0.00000000000E+00 0. -1.
         11    1    3    3    0    0 -0.20576064330E+01 -0.95868687452E+00 -0.38754054727E+01  0.44912796167E+01  0.51100000000E-03 0. -1.
        -11    1    3    3    0    0 -0.20539926606E+02 -0.33255812713E+01  0.43751389304E+01  0.21262406184E+02  0.51100000000E-03 0.  1.
         12    1    3    3    0    0 -0.18223153082E+02 -0.39156780462E+01  0.11750011678E+02  0.22033579311E+02  0.00000000000E+00 0. -1.
</event>
<event>
 7    1  0.1736465E-010  0.4778728E+02  0.7816164E-02  0.1312668E+00
        -11   -1    0    0    0    0  0.00000000000E+00  0.00000000000E+00  0.45593999997E+02  0.45594000000E+02  0.51100000000E-03 0. -1.
         11   -1    0    0    0    0 -0.00000000000E+00 -0.00000000000E+00 -0.45593999997E+02  0.45594000000E+02  0.51100000000E-03 0.  1.
    9900012    2    1    2    0    0 -0.11247695558E+02  0.39284398436E+02  0.14623539882E+02  0.47787279562E+02  0.20000038835E+02 0.  0.
         12    1    1    2    0    0  0.11247695558E+02 -0.39284398436E+02 -0.14623539882E+02  0.43400720438E+02  0.00000000000E+00 0. -1.
         11    1    3    3    0    0  0.44895660988E+01  0.14117291074E+02  0.83894764842E+01  0.17024612388E+02  0.51100000000E-03 0. -1.
        -11    1    3    3    0    0 -0.56587538625E+01  0.13786303984E+02  0.25261897588E+01  0.15115068897E+02  0.51100000000E-03 0.  1.
         12    1    3    3    0    0 -0.10078507795E+02  0.11380803379E+02  0.37078736387E+01  0.15647598277E+02  0.00000000000E+00 0. -1.
</event>
<event>
 7    1  0.1736465E-010  0.4778728E+02  0.7816164E-02  0.1312668E+00
        -11   -1    0    0    0    0  0.00000000000E+00  0.00000000000E+00  0.45593999997E+02  0.45594000000E+02  0.51100000000E-03 0.  1.
         11   -1    0    0    0    0 -0.00000000000E+00 -0.00000000000E+00 -0.45593999997E+02  0.45594000000E+02  0.51100000000E-03 0. -1.
    9900012    2    1    2    0    0  0.17722632644E+02 -0.26677003343E+02  0.29289392250E+02  0.47787277500E+02  0.20000029433E+02 0.  0.
         12    1    1    2    0    0 -0.17722632644E+02  0.26677003343E+02 -0.29289392250E+02  0.43400722500E+02  0.00000000000E+00 0. -1.
         11    1    3    3    0    0  0.12176066345E+02 -0.16917663766E+02  0.15365512541E+02  0.25895229577E+02  0.51100000000E-03 0. -1.
        -11    1    3    3    0    0 -0.15479103294E+01 -0.85856842432E+01  0.11213098949E+02  0.14207166804E+02  0.51100000000E-03 0.  1.
         12    1    3    3    0    0  0.70944766283E+01 -0.11736553334E+01  0.27107807593E+01  0.76848811179E+01  0.00000000000E+00 0. -1.
</event>
<event>
 7    1  0.1736465E-010  0.4778724E+02  0.7816164E-02  0.1312668E+00
        -11   -1    0    0    0    0  0.00000000000E+00  0.00000000000E+00  0.45593999997E+02  0.45594000000E+02  0.51100000000E-03 0.  1.
         11   -1    0    0    0    0 -0.00000000000E+00 -0.00000000000E+00 -0.45593999997E+02  0.45594000000E+02  0.51100000000E-03 0. -1.
    9900012    2    1    2    0    0  0.27203557727E+02  0.11857093465E+02  0.31670197962E+02  0.47787243584E+02  0.19999874798E+02 0.  0.
         12    1    1    2    0    0 -0.27203557727E+02 -0.11857093465E+02 -0.31670197962E+02  0.43400756416E+02  0.00000000000E+00 0. -1.
         11    1    3    3    0    0  0.38564393359E+01  0.22168923797E+01 -0.12116851632E+01  0.46103055615E+01  0.51100000000E-03 0. -1.
        -11    1    3    3    0    0  0.21512774608E+02  0.87003023356E+01  0.21581077122E+02  0.31689708457E+02  0.51100000000E-03 0.  1.
         12    1    3    3    0    0  0.18343437837E+01  0.93989874972E+00  0.11300806003E+02  0.11487229566E+02  0.00000000000E+00 0. -1.
</event>
<event>
 7    1  0.1736465E-010  0.4778727E+02  0.7816164E-02  0.1312668E+00
        -11   -1    0    0    0    0  0.00000000000E+00  0.00000000000E+00  0.45593999997E+02  0.45594000000E+02  0.51100000000E-03 0. -1.
         11   -1    0    0    0    0 -0.00000000000E+00 -0.00000000000E+00 -0.45593999997E+02  0.45594000000E+02  0.51100000000E-03 0.  1.
    9900012    2    1    2    0    0  0.10768201439E+02 -0.70637544198E+01 -0.41446018296E+02  0.47787271650E+02  0.20000002759E+02 0.  0.
         12    1    1    2    0    0 -0.10768201439E+02  0.70637544198E+01  0.41446018296E+02  0.43400728350E+02  0.00000000000E+00 0. -1.
         11    1    3    3    0    0 -0.33594380186E+00  0.18891437860E+01 -0.81775068075E+01  0.83996035818E+01  0.51100000000E-03 0. -1.
        -11    1    3    3    0    0  0.15070560893E+02 -0.64470494914E+01 -0.25632629528E+02  0.30425613381E+02  0.51100000000E-03 0.  1.
         12    1    3    3    0    0 -0.39664156524E+01 -0.25058487144E+01 -0.76358819602E+01  0.89620546873E+01  0.00000000000E+00 0. -1.
</event>
<event>
 7    1  0.1736465E-010  0.4778727E+02  0.7816164E-02  0.1312668E+00
        -11   -1    0    0    0    0  0.00000000000E+00  0.00000000000E+00  0.45593999997E+02  0.45594000000E+02  0.51100000000E-03 0.  1.
         11   -1    0    0    0    0 -0.00000000000E+00 -0.00000000000E+00 -0.45593999997E+02  0.45594000000E+02  0.51100000000E-03 0. -1.
    9900012    2    1    2    0    0  0.32045885226E+02  0.27905233346E+02  0.88307556061E+01  0.47787273593E+02  0.20000011622E+02 0.  0.
         12    1    1    2    0    0 -0.32045885226E+02 -0.27905233346E+02 -0.88307556061E+01  0.43400726407E+02  0.00000000000E+00 0. -1.
         11    1    3    3    0    0  0.52285139792E-01  0.35202135889E+01  0.10694656719E+01  0.36794557386E+01  0.51100000000E-03 0. -1.
        -11    1    3    3    0    0  0.31297728675E+02  0.17392342201E+02  0.91237224146E+01  0.36949745580E+02  0.51100000000E-03 0.  1.
         12    1    3    3    0    0  0.69587141128E+00  0.69926775562E+01 -0.13624324804E+01  0.71580722747E+01  0.00000000000E+00 0. -1.
</event>
<event>
 7    1  0.1736465E-010  0.4778727E+02  0.7816164E-02  0.1312668E+00
        -11   -1    0    0    0    0  0.00000000000E+00  0.00000000000E+00  0.45593999997E+02  0.45594000000E+02  0.51100000000E-03 0.  1.
         11   -1    0    0    0    0 -0.00000000000E+00 -0.00000000000E+00 -0.45593999997E+02  0.45594000000E+02  0.51100000000E-03 0. -1.
    9900012    2    1    2    0    0  0.62013109356E+01  0.99272070761E+01  0.41792554813E+02  0.47787270335E+02  0.19999996767E+02 0.  0.
         12    1    1    2    0    0 -0.62013109356E+01 -0.99272070761E+01 -0.41792554813E+02  0.43400729665E+02  0.00000000000E+00 0. -1.
         11    1    3    3    0    0  0.47247807803E+01  0.28981602844E+01  0.12519053717E+01  0.56824425890E+01  0.51100000000E-03 0. -1.
        -11    1    3    3    0    0  0.39583206127E+01  0.24615651493E+00  0.18143059832E+02  0.18571470470E+02  0.51100000000E-03 0.  1.
        -12    1    3    3    0    0 -0.24817904574E+01  0.67828902767E+01  0.22397589609E+02  0.23533357276E+02  0.00000000000E+00 0.  1.
</event>
<event>
 7    1  0.1736465E-010  0.4778727E+02  0.7816164E-02  0.1312668E+00
        -11   -1    0    0    0    0  0.00000000000E+00  0.00000000000E+00  0.45593999997E+02  0.45594000000E+02  0.51100000000E-03 0.  1.
         11   -1    0    0    0    0 -0.00000000000E+00 -0.00000000000E+00 -0.45593999997E+02  0.45594000000E+02  0.51100000000E-03 0. -1.
    9900012    2    1    2    0    0  0.37042964049E+02 -0.21830669968E+02 -0.59045879088E+01  0.47787268495E+02  0.19999988375E+02 0.  0.
         12    1    1    2    0    0 -0.37042964049E+02  0.21830669968E+02  0.59045879088E+01  0.43400731505E+02  0.00000000000E+00 0. -1.
         11    1    3    3    0    0 -0.79984357360E+00 -0.16138222085E+01 -0.23700788313E+01  0.29768180647E+01  0.51100000000E-03 0. -1.
        -11    1    3    3    0    0  0.10390217268E+01 -0.41018548917E+01  0.10855585750E+01  0.43684342026E+01  0.51100000000E-03 0.  1.
        -12    1    3    3    0    0  0.36803785896E+02 -0.16114992868E+02 -0.46200676526E+01  0.40442016227E+02  0.00000000000E+00 0.  1.
</event>
<event>
 7    1  0.1736465E-010  0.4778727E+02  0.7816164E-02  0.1312668E+00
        -11   -1    0    0    0    0  0.00000000000E+00  0.00000000000E+00  0.45593999997E+02  0.45594000000E+02  0.51100000000E-03 0.  1.
         11   -1    0    0    0    0 -0.00000000000E+00 -0.00000000000E+00 -0.45593999997E+02  0.45594000000E+02  0.51100000000E-03 0. -1.
    9900012    2    1    2    0    0  0.29284904243E+02 -0.23910366054E+02  0.21314595351E+02  0.47787271938E+02  0.20000004073E+02 0.  0.
         12    1    1    2    0    0 -0.29284904243E+02  0.23910366054E+02 -0.21314595351E+02  0.43400728062E+02  0.00000000000E+00 0. -1.
         11    1    3    3    0    0  0.91830146729E+01 -0.34078002159E+01 -0.13690379775E+01  0.98901529836E+01  0.51100000000E-03 0. -1.
        -11    1    3    3    0    0  0.59013063909E+01 -0.10056060701E+02  0.43019023914E+01  0.12428038397E+02  0.51100000000E-03 0.  1.
        -12    1    3    3    0    0  0.14200583179E+02 -0.10446505137E+02  0.18381730937E+02  0.25469080557E+02  0.00000000000E+00 0.  1.
</event>
<event>
 7    1  0.1736465E-010  0.4778727E+02  0.7816164E-02  0.1312668E+00
        -11   -1    0    0    0    0  0.00000000000E+00  0.00000000000E+00  0.45593999997E+02  0.45594000000E+02  0.51100000000E-03 0.  1.
         11   -1    0    0    0    0 -0.00000000000E+00 -0.00000000000E+00 -0.45593999997E+02  0.45594000000E+02  0.51100000000E-03 0. -1.
    9900012    2    1    2    0    0  0.25791976312E+02 -0.30666006196E+02  0.16673133065E+02  0.47787270234E+02  0.19999996304E+02 0.  0.
         12    1    1    2    0    0 -0.25791976312E+02  0.30666006196E+02 -0.16673133065E+02  0.43400729766E+02  0.00000000000E+00 0. -1.
         11    1    3    3    0    0  0.18861465149E+02 -0.23172507051E+02  0.28876020773E+01  0.30017631429E+02  0.51100000000E-03 0. -1.
        -11    1    3    3    0    0  0.60912193490E+01 -0.53675886448E+01  0.73917248214E+01  0.10979597311E+02  0.51100000000E-03 0.  1.
        -12    1    3    3    0    0  0.83929181372E+00 -0.21259105002E+01  0.63938061659E+01  0.67900414940E+01  0.00000000000E+00 0.  1.
</event>
<event>
 7    1  0.1736465E-010  0.4778727E+02  0.7816164E-02  0.1312668E+00
        -11   -1    0    0    0    0  0.00000000000E+00  0.00000000000E+00  0.45593999997E+02  0.45594000000E+02  0.51100000000E-03 0.  1.
         11   -1    0    0    0    0 -0.00000000000E+00 -0.00000000000E+00 -0.45593999997E+02  0.45594000000E+02  0.51100000000E-03 0. -1.
    9900012    2    1    2    0    0  0.10649768579E+01  0.29291670533E+02  0.32007612233E+02  0.47787269831E+02  0.19999994467E+02 0.  0.
         12    1    1    2    0    0 -0.10649768579E+01 -0.29291670533E+02 -0.32007612233E+02  0.43400730169E+02  0.00000000000E+00 0. -1.
         11    1    3    3    0    0  0.18163652643E+01  0.97769626566E+00  0.70743475306E+01  0.73689528433E+01  0.51100000000E-03 0. -1.
        -11    1    3    3    0    0  0.23920804527E+01  0.43520310620E+01  0.12046345795E+02  0.13029837702E+02  0.51100000000E-03 0.  1.
         12    1    3    3    0    0 -0.31434688591E+01  0.23961943206E+02  0.12886918908E+02  0.27388479286E+02  0.00000000000E+00 0. -1.
</event>
<event>
 7    1  0.1736465E-010  0.4778727E+02  0.7816164E-02  0.1312668E+00
        -11   -1    0    0    0    0  0.00000000000E+00  0.00000000000E+00  0.45593999997E+02  0.45594000000E+02  0.51100000000E-03 0.  1.
         11   -1    0    0    0    0 -0.00000000000E+00 -0.00000000000E+00 -0.45593999997E+02  0.45594000000E+02  0.51100000000E-03 0. -1.
    9900012    2    1    2    0    0  0.89584093914E+01  0.19740371234E+02  0.37599040217E+02  0.47787272120E+02  0.20000004903E+02 0.  0.
         12    1    1    2    0    0 -0.89584093914E+01 -0.19740371234E+02 -0.37599040217E+02  0.43400727880E+02  0.00000000000E+00 0. -1.
         11    1    3    3    0    0  0.57697391830E+01  0.10028661413E+02  0.19190197813E+02  0.22408204577E+02  0.51100000000E-03 0.  1.
        -11    1    3    3    0    0 -0.44884512610E+01  0.75871840244E+01  0.61095278707E+01  0.10725571649E+02  0.51100000000E-03 0. -1.
         12    1    3    3    0    0  0.76771214694E+01  0.21245257964E+01  0.12299314533E+02  0.14653495894E+02  0.00000000000E+00 0. -1.
</event>
<event>
 7    1  0.1736465E-010  0.4778727E+02  0.7816164E-02  0.1312668E+00
        -11   -1    0    0    0    0  0.00000000000E+00  0.00000000000E+00  0.45593999997E+02  0.45594000000E+02  0.51100000000E-03 0.  1.
         11   -1    0    0    0    0 -0.00000000000E+00 -0.00000000000E+00 -0.45593999997E+02  0.45594000000E+02  0.51100000000E-03 0. -1.
    9900012    2    1    2    0    0 -0.23659181054E+02  0.34167432896E+02  0.12508118939E+02  0.47787270073E+02  0.19999995569E+02 0.  0.
         12    1    1    2    0    0  0.23659181054E+02 -0.34167432896E+02 -0.12508118939E+02  0.43400729927E+02  0.00000000000E+00 0. -1.
         11    1    3    3    0    0 -0.20824734289E+02  0.19184043317E+02  0.41105893153E+01  0.28611082136E+02  0.51100000000E-03 0. -1.
        -11    1    3    3    0    0 -0.27759344924E+01  0.11897578545E+02  0.24280843514E+01  0.12456074078E+02  0.51100000000E-03 0.  1.
         12    1    3    3    0    0 -0.58512272752E-01  0.30858110334E+01  0.59694452726E+01  0.67201138594E+01  0.00000000000E+00 0. -1.
</event>
<event>
 7    1  0.1736465E-010  0.4778728E+02  0.7816164E-02  0.1312668E+00
        -11   -1    0    0    0    0  0.00000000000E+00  0.00000000000E+00  0.45593999997E+02  0.45594000000E+02  0.51100000000E-03 0. -1.
         11   -1    0    0    0    0 -0.00000000000E+00 -0.00000000000E+00 -0.45593999997E+02  0.45594000000E+02  0.51100000000E-03 0.  1.
    9900012    2    1    2    0    0 -0.38868707595E+02 -0.10274228909E+02 -0.16348901082E+02  0.47787276776E+02  0.20000026132E+02 0.  0.
         12    1    1    2    0    0  0.38868707595E+02  0.10274228909E+02  0.16348901082E+02  0.43400723224E+02  0.00000000000E+00 0. -1.
         11    1    3    3    0    0 -0.14474440480E+01  0.25461901352E+01 -0.59074086067E+01  0.65936071451E+01  0.51100000000E-03 0. -1.
        -11    1    3    3    0    0 -0.12303184666E+02 -0.66364143761E+01 -0.35022217150E+01  0.14410964781E+02  0.51100000000E-03 0.  1.
        -12    1    3    3    0    0 -0.25118078881E+02 -0.61840046676E+01 -0.69392707599E+01  0.26782704850E+02  0.00000000000E+00 0.  1.
</event>
<event>
 7    1  0.1736465E-010  0.4778727E+02  0.7816164E-02  0.1312668E+00
        -11   -1    0    0    0    0  0.00000000000E+00  0.00000000000E+00  0.45593999997E+02  0.45594000000E+02  0.51100000000E-03 0.  1.
         11   -1    0    0    0    0 -0.00000000000E+00 -0.00000000000E+00 -0.45593999997E+02  0.45594000000E+02  0.51100000000E-03 0. -1.
    9900012    2    1    2    0    0  0.11651125768E+02 -0.41805500295E+02  0.41801821377E+00  0.47787270446E+02  0.19999997271E+02 0.  0.
         12    1    1    2    0    0 -0.11651125768E+02  0.41805500295E+02 -0.41801821377E+00  0.43400729554E+02  0.00000000000E+00 0. -1.
         11    1    3    3    0    0 -0.22887153204E+01 -0.13659331709E+02  0.37819658063E+01  0.14356839004E+02  0.51100000000E-03 0. -1.
        -11    1    3    3    0    0  0.71433390409E+01 -0.63516779483E+01  0.24586934838E+01  0.98699685572E+01  0.51100000000E-03 0.  1.
        -12    1    3    3    0    0  0.67965020476E+01 -0.21794490638E+02 -0.58226410764E+01  0.23560462885E+02  0.00000000000E+00 0.  1.
</event>
<event>
 7    1  0.1736465E-010  0.4778727E+02  0.7816164E-02  0.1312668E+00
        -11   -1    0    0    0    0  0.00000000000E+00  0.00000000000E+00  0.45593999997E+02  0.45594000000E+02  0.51100000000E-03 0. -1.
         11   -1    0    0    0    0 -0.00000000000E+00 -0.00000000000E+00 -0.45593999997E+02  0.45594000000E+02  0.51100000000E-03 0.  1.
    9900012    2    1    2    0    0 -0.11586755568E+02  0.85187462405E+01 -0.40948761532E+02  0.47787274049E+02  0.20000013697E+02 0.  0.
         12    1    1    2    0    0  0.11586755568E+02 -0.85187462405E+01  0.40948761532E+02  0.43400725951E+02  0.00000000000E+00 0. -1.
         11    1    3    3    0    0 -0.21582775264E+01  0.29497628617E+01  0.69393214630E+00  0.37203232260E+01  0.51100000000E-03 0. -1.
        -11    1    3    3    0    0 -0.13890528874E+01 -0.25366676950E+01 -0.64464273872E+01  0.70654495425E+01  0.51100000000E-03 0.  1.
        -12    1    3    3    0    0 -0.80394251544E+01  0.81056510738E+01 -0.35196266291E+02  0.37001501280E+02  0.00000000000E+00 0.  1.
</event>
<event>
 7    1  0.1736465E-010  0.4778727E+02  0.7816164E-02  0.1312668E+00
        -11   -1    0    0    0    0  0.00000000000E+00  0.00000000000E+00  0.45593999997E+02  0.45594000000E+02  0.51100000000E-03 0.  1.
         11   -1    0    0    0    0 -0.00000000000E+00 -0.00000000000E+00 -0.45593999997E+02  0.45594000000E+02  0.51100000000E-03 0. -1.
    9900012    2    1    2    0    0 -0.25094129212E+02 -0.10836050174E+02  0.33711838768E+02  0.47787269852E+02  0.19999994562E+02 0.  0.
         12    1    1    2    0    0  0.25094129212E+02  0.10836050174E+02 -0.33711838768E+02  0.43400730148E+02  0.00000000000E+00 0. -1.
         11    1    3    3    0    0 -0.15744925117E+01 -0.50720340981E+01  0.12472937093E+02  0.13556500896E+02  0.51100000000E-03 0. -1.
        -11    1    3    3    0    0 -0.18944979513E+02 -0.49674995624E+01  0.22076839014E+02  0.29512287640E+02  0.51100000000E-03 0.  1.
         12    1    3    3    0    0 -0.45746571877E+01 -0.79651651372E+00 -0.83793733879E+00  0.47184813155E+01  0.00000000000E+00 0. -1.
</event>
<event>
 7    1  0.1736465E-010  0.4778727E+02  0.7816164E-02  0.1312668E+00
        -11   -1    0    0    0    0  0.00000000000E+00  0.00000000000E+00  0.45593999997E+02  0.45594000000E+02  0.51100000000E-03 0.  1.
         11   -1    0    0    0    0 -0.00000000000E+00 -0.00000000000E+00 -0.45593999997E+02  0.45594000000E+02  0.51100000000E-03 0. -1.
    9900012    2    1    2    0    0  0.35597059083E+01 -0.42083728477E+02 -0.99955772828E+01  0.47787271044E+02  0.19999999998E+02 0.  0.
         12    1    1    2    0    0 -0.35597059083E+01  0.42083728477E+02  0.99955772828E+01  0.43400728956E+02  0.00000000000E+00 0. -1.
         11    1    3    3    0    0 -0.66539411858E+01 -0.13003611587E+02 -0.34602548884E+01  0.15011402725E+02  0.51100000000E-03 0. -1.
        -11    1    3    3    0    0  0.36145497772E+01 -0.21728335789E+02 -0.62342686352E+01  0.22892174469E+02  0.51100000000E-03 0.  1.
        -12    1    3    3    0    0  0.65990973170E+01 -0.73517811008E+01 -0.30105375923E+00  0.98836938499E+01  0.00000000000E+00 0.  1.
</event>
<event>
 7    1  0.1736465E-010  0.4778728E+02  0.7816164E-02  0.1312668E+00
        -11   -1    0    0    0    0  0.00000000000E+00  0.00000000000E+00  0.45593999997E+02  0.45594000000E+02  0.51100000000E-03 0.  1.
         11   -1    0    0    0    0 -0.00000000000E+00 -0.00000000000E+00 -0.45593999997E+02  0.45594000000E+02  0.51100000000E-03 0. -1.
    9900012    2    1    2    0    0  0.28998795387E+02 -0.15303390653E+02  0.28434117198E+02  0.47787275119E+02  0.20000018578E+02 0.  0.
         12    1    1    2    0    0 -0.28998795387E+02  0.15303390653E+02 -0.28434117198E+02  0.43400724881E+02  0.00000000000E+00 0. -1.
         11    1    3    3    0    0  0.20754118392E+02 -0.13568783288E+02  0.93699997102E+01  0.26507399061E+02  0.51100000000E-03 0. -1.
        -11    1    3    3    0    0  0.59253378264E+01 -0.20871325523E+01  0.91976308321E+01  0.11138319614E+02  0.51100000000E-03 0.  1.
        -12    1    3    3    0    0  0.23193391685E+01  0.35252518692E+00  0.98664866554E+01  0.10141556444E+02  0.00000000000E+00 0.  1.
</event>
<event>
 7    1  0.1736465E-010  0.4778725E+02  0.7816164E-02  0.1312668E+00
        -11   -1    0    0    0    0  0.00000000000E+00  0.00000000000E+00  0.45593999997E+02  0.45594000000E+02  0.51100000000E-03 0. -1.
         11   -1    0    0    0    0 -0.00000000000E+00 -0.00000000000E+00 -0.45593999997E+02  0.45594000000E+02  0.51100000000E-03 0.  1.
    9900012    2    1    2    0    0  0.30155300440E+02  0.77403306766E+01 -0.30238555130E+02  0.47787250237E+02  0.19999905131E+02 0.  0.
         12    1    1    2    0    0 -0.30155300440E+02 -0.77403306766E+01  0.30238555130E+02  0.43400749763E+02  0.00000000000E+00 0. -1.
         11    1    3    3    0    0  0.10845564547E+02  0.34785389224E+01 -0.33868886798E+01  0.11882656209E+02  0.51100000000E-03 0. -1.
        -11    1    3    3    0    0  0.28143282101E+01  0.55978011490E+01 -0.31928866979E+01  0.70320940484E+01  0.51100000000E-03 0.  1.
        -12    1    3    3    0    0  0.16495407682E+02 -0.13360093949E+01 -0.23658779753E+02  0.28872499980E+02  0.00000000000E+00 0.  1.
</event>
<event>
 7    1  0.1736465E-010  0.4778725E+02  0.7816164E-02  0.1312668E+00
        -11   -1    0    0    0    0  0.00000000000E+00  0.00000000000E+00  0.45593999997E+02  0.45594000000E+02  0.51100000000E-03 0.  1.
         11   -1    0    0    0    0 -0.00000000000E+00 -0.00000000000E+00 -0.45593999997E+02  0.45594000000E+02  0.51100000000E-03 0. -1.
    9900012    2    1    2    0    0  0.20415596539E+02  0.32742265341E+02  0.19868879830E+02  0.47787252226E+02  0.19999914198E+02 0.  0.
         12    1    1    2    0    0 -0.20415596539E+02 -0.32742265341E+02 -0.19868879830E+02  0.43400747774E+02  0.00000000000E+00 0. -1.
         11    1    3    3    0    0  0.96340937922E+01  0.93902678333E+01  0.12623012399E+02  0.18448125527E+02  0.51100000000E-03 0. -1.
        -11    1    3    3    0    0  0.16122539150E+01 -0.13330526315E+01  0.68262507927E+00  0.22005384034E+01  0.51100000000E-03 0.  1.
         12    1    3    3    0    0  0.91692488317E+01  0.24685050139E+02  0.65632423511E+01  0.27138588295E+02  0.00000000000E+00 0. -1.
</event>
<event>
 7    1  0.1736465E-010  0.4778728E+02  0.7816164E-02  0.1312668E+00
        -11   -1    0    0    0    0  0.00000000000E+00  0.00000000000E+00  0.45593999997E+02  0.45594000000E+02  0.51100000000E-03 0.  1.
         11   -1    0    0    0    0 -0.00000000000E+00 -0.00000000000E+00 -0.45593999997E+02  0.45594000000E+02  0.51100000000E-03 0. -1.
    9900012    2    1    2    0    0 -0.15753642933E+02 -0.40418183993E+02 -0.13476050566E+01  0.47787275325E+02  0.20000019516E+02 0.  0.
         12    1    1    2    0    0  0.15753642933E+02  0.40418183993E+02  0.13476050566E+01  0.43400724675E+02  0.00000000000E+00 0. -1.
         11    1    3    3    0    0 -0.70692897628E+01 -0.10761070741E+02 -0.54500533779E+01  0.13981365575E+02  0.51100000000E-03 0. -1.
        -11    1    3    3    0    0 -0.71191486450E+01 -0.96007863158E+01  0.63998296037E+01  0.13557846235E+02  0.51100000000E-03 0.  1.
         12    1    3    3    0    0 -0.15652045249E+01 -0.20056326936E+02 -0.22973812824E+01  0.20248063515E+02  0.00000000000E+00 0. -1.
</event>
<event>
 7    1  0.1736465E-010  0.4778729E+02  0.7816164E-02  0.1312668E+00
        -11   -1    0    0    0    0  0.00000000000E+00  0.00000000000E+00  0.45593999997E+02  0.45594000000E+02  0.51100000000E-03 0. -1.
         11   -1    0    0    0    0 -0.00000000000E+00 -0.00000000000E+00 -0.45593999997E+02  0.45594000000E+02  0.51100000000E-03 0.  1.
    9900012    2    1    2    0    0 -0.29215985562E+02 -0.30632573272E+02 -0.95756696580E+01  0.47787287943E+02  0.20000077049E+02 0.  0.
         12    1    1    2    0    0  0.29215985562E+02  0.30632573272E+02  0.95756696580E+01  0.43400712057E+02  0.00000000000E+00 0. -1.
         11    1    3    3    0    0 -0.79767822786E+01 -0.23317936985E+01 -0.24027726261E+01  0.86509903437E+01  0.51100000000E-03 0.  1.
        -11    1    3    3    0    0 -0.14974533754E+02 -0.26117556521E+02 -0.10277244344E+02  0.31811714373E+02  0.51100000000E-03 0. -1.
         12    1    3    3    0    0 -0.62646695293E+01 -0.21832230526E+01  0.31043473124E+01  0.73245832267E+01  0.00000000000E+00 0. -1.
</event>
<event>
 7    1  0.1736465E-010  0.4778727E+02  0.7816164E-02  0.1312668E+00
        -11   -1    0    0    0    0  0.00000000000E+00  0.00000000000E+00  0.45593999997E+02  0.45594000000E+02  0.51100000000E-03 0.  1.
         11   -1    0    0    0    0 -0.00000000000E+00 -0.00000000000E+00 -0.45593999997E+02  0.45594000000E+02  0.51100000000E-03 0. -1.
    9900012    2    1    2    0    0  0.37602953323E+02  0.16934757286E+02  0.13522391165E+02  0.47787272290E+02  0.20000005678E+02 0.  0.
         12    1    1    2    0    0 -0.37602953323E+02 -0.16934757286E+02 -0.13522391165E+02  0.43400727710E+02  0.00000000000E+00 0. -1.
         11    1    3    3    0    0  0.28385306697E+02  0.51296893689E+01  0.35494756668E+01  0.29062658638E+02  0.51100000000E-03 0. -1.
        -11    1    3    3    0    0  0.51188533056E+01  0.51509469395E+01  0.77031564903E+01  0.10586478816E+02  0.51100000000E-03 0.  1.
        -12    1    3    3    0    0  0.40987933202E+01  0.66541209771E+01  0.22697590081E+01  0.81381348364E+01  0.00000000000E+00 0.  1.
</event>
<event>
 7    1  0.1736465E-010  0.4778727E+02  0.7816164E-02  0.1312668E+00
        -11   -1    0    0    0    0  0.00000000000E+00  0.00000000000E+00  0.45593999997E+02  0.45594000000E+02  0.51100000000E-03 0.  1.
         11   -1    0    0    0    0 -0.00000000000E+00 -0.00000000000E+00 -0.45593999997E+02  0.45594000000E+02  0.51100000000E-03 0. -1.
    9900012    2    1    2    0    0 -0.41183990565E+02  0.46700974070E+01 -0.12872158966E+02  0.47787269993E+02  0.19999995208E+02 0.  0.
         12    1    1    2    0    0  0.41183990565E+02 -0.46700974070E+01  0.12872158966E+02  0.43400730007E+02  0.00000000000E+00 0. -1.
         11    1    3    3    0    0 -0.34804474217E+02  0.54267609136E+01 -0.58059916263E+01  0.35700289894E+02  0.51100000000E-03 0.  1.
        -11    1    3    3    0    0 -0.18123697560E+01 -0.27604852937E+01  0.16075295925E+00  0.33061767896E+01  0.51100000000E-03 0. -1.
        -12    1    3    3    0    0 -0.45671465923E+01  0.20038217871E+01 -0.72269202991E+01  0.87808033095E+01  0.00000000000E+00 0.  1.
</event>
<event>
 7    1  0.1736465E-010  0.4778728E+02  0.7816164E-02  0.1312668E+00
        -11   -1    0    0    0    0  0.00000000000E+00  0.00000000000E+00  0.45593999997E+02  0.45594000000E+02  0.51100000000E-03 0. -1.
         11   -1    0    0    0    0 -0.00000000000E+00 -0.00000000000E+00 -0.45593999997E+02  0.45594000000E+02  0.51100000000E-03 0.  1.
    9900012    2    1    2    0    0 -0.40628437754E+01  0.43206277244E+02  0.57748107476E+00  0.47787279070E+02  0.20000036593E+02 0.  0.
         12    1    1    2    0    0  0.40628437754E+01 -0.43206277244E+02 -0.57748107476E+00  0.43400720930E+02  0.00000000000E+00 0. -1.
         11    1    3    3    0    0  0.20405721808E+01  0.74978213488E+01  0.31100900714E+01  0.83698220003E+01  0.51100000000E-03 0.  1.
        -11    1    3    3    0    0 -0.85276309531E+01  0.27870320413E+02 -0.71403323417E+01  0.30007658953E+02  0.51100000000E-03 0. -1.
         12    1    3    3    0    0  0.24242149969E+01  0.78381354817E+01  0.46077233451E+01  0.94097981172E+01  0.00000000000E+00 0. -1.
</event>
<event>
 7    1  0.1736465E-010  0.4778727E+02  0.7816164E-02  0.1312668E+00
        -11   -1    0    0    0    0  0.00000000000E+00  0.00000000000E+00  0.45593999997E+02  0.45594000000E+02  0.51100000000E-03 0.  1.
         11   -1    0    0    0    0 -0.00000000000E+00 -0.00000000000E+00 -0.45593999997E+02  0.45594000000E+02  0.51100000000E-03 0. -1.
    9900012    2    1    2    0    0 -0.26068945507E+02  0.29685985098E+02  0.17965948767E+02  0.47787274820E+02  0.20000017214E+02 0.  0.
         12    1    1    2    0    0  0.26068945507E+02 -0.29685985098E+02 -0.17965948767E+02  0.43400725180E+02  0.00000000000E+00 0. -1.
         11    1    3    3    0    0 -0.55537027407E+01  0.14340459952E+02  0.13581402720E+02  0.20516990663E+02  0.51100000000E-03 0. -1.
        -11    1    3    3    0    0 -0.77366660398E+01  0.10318263928E+02  0.14011125679E+00  0.12897371954E+02  0.51100000000E-03 0.  1.
        -12    1    3    3    0    0 -0.12778576727E+02  0.50272612181E+01  0.42444347900E+01  0.14372912203E+02  0.00000000000E+00 0.  1.
</event>
<event>
 7    1  0.1736465E-010  0.4778727E+02  0.7816164E-02  0.1312668E+00
        -11   -1    0    0    0    0  0.00000000000E+00  0.00000000000E+00  0.45593999997E+02  0.45594000000E+02  0.51100000000E-03 0. -1.
         11   -1    0    0    0    0 -0.00000000000E+00 -0.00000000000E+00 -0.45593999997E+02  0.45594000000E+02  0.51100000000E-03 0.  1.
    9900012    2    1    2    0    0  0.13686393033E+02  0.40756725611E+02 -0.59325511781E+01  0.47787271892E+02  0.20000003866E+02 0.  0.
         12    1    1    2    0    0 -0.13686393033E+02 -0.40756725611E+02  0.59325511781E+01  0.43400728108E+02  0.00000000000E+00 0. -1.
         11    1    3    3    0    0 -0.70787912195E+00  0.31099942291E+01 -0.51733961201E+01  0.60775969455E+01  0.51100000000E-03 0. -1.
        -11    1    3    3    0    0  0.71853614658E+01  0.25270802382E+02 -0.50602686368E+01  0.26755358181E+02  0.51100000000E-03 0.  1.
         12    1    3    3    0    0  0.72089106888E+01  0.12375929000E+02  0.43011135788E+01  0.14954316766E+02  0.00000000000E+00 0. -1.
</event>
<event>
 7    1  0.1736465E-010  0.4778727E+02  0.7816164E-02  0.1312668E+00
        -11   -1    0    0    0    0  0.00000000000E+00  0.00000000000E+00  0.45593999997E+02  0.45594000000E+02  0.51100000000E-03 0.  1.
         11   -1    0    0    0    0 -0.00000000000E+00 -0.00000000000E+00 -0.45593999997E+02  0.45594000000E+02  0.51100000000E-03 0. -1.
    9900012    2    1    2    0    0  0.41276885556E+02  0.13410440411E+02 -0.46334285458E-01  0.47787270281E+02  0.19999996521E+02 0.  0.
         12    1    1    2    0    0 -0.41276885556E+02 -0.13410440411E+02  0.46334285458E-01  0.43400729719E+02  0.00000000000E+00 0. -1.
         11    1    3    3    0    0  0.77869181846E+01 -0.62342337600E+00 -0.44903658965E+01  0.90104460303E+01  0.51100000000E-03 0. -1.
        -11    1    3    3    0    0  0.60313201866E+01  0.80568182933E+01  0.35130331147E+01  0.10659762949E+02  0.51100000000E-03 0.  1.
         12    1    3    3    0    0  0.27458647185E+02  0.59770454937E+01  0.93099849639E+00  0.28117061302E+02  0.00000000000E+00 0. -1.
</event>
<event>
 7    1  0.1736465E-010  0.4778727E+02  0.7816164E-02  0.1312668E+00
        -11   -1    0    0    0    0  0.00000000000E+00  0.00000000000E+00  0.45593999997E+02  0.45594000000E+02  0.51100000000E-03 0.  1.
         11   -1    0    0    0    0 -0.00000000000E+00 -0.00000000000E+00 -0.45593999997E+02  0.45594000000E+02  0.51100000000E-03 0. -1.
    9900012    2    1    2    0    0 -0.24001725642E+02  0.36038784370E+02  0.29574313890E+01  0.47787271745E+02  0.20000003193E+02 0.  0.
         12    1    1    2    0    0  0.24001725642E+02 -0.36038784370E+02 -0.29574313890E+01  0.43400728255E+02  0.00000000000E+00 0. -1.
         11    1    3    3    0    0 -0.65047955919E+01  0.45397486313E+01 -0.36463147210E+01  0.87302516936E+01  0.51100000000E-03 0. -1.
        -11    1    3    3    0    0 -0.11083720339E+02  0.29847369687E+02  0.60768159635E+01  0.32413608659E+02  0.51100000000E-03 0.  1.
         12    1    3    3    0    0 -0.64132097107E+01  0.16516660517E+01  0.52693014652E+00  0.66434113917E+01  0.00000000000E+00 0. -1.
</event>
<event>
 7    1  0.1736465E-010  0.4778727E+02  0.7816164E-02  0.1312668E+00
        -11   -1    0    0    0    0  0.00000000000E+00  0.00000000000E+00  0.45593999997E+02  0.45594000000E+02  0.51100000000E-03 0.  1.
         11   -1    0    0    0    0 -0.00000000000E+00 -0.00000000000E+00 -0.45593999997E+02  0.45594000000E+02  0.51100000000E-03 0. -1.
    9900012    2    1    2    0    0 -0.16058813132E+02 -0.31867801855E+02  0.24701841897E+02  0.47787271119E+02  0.20000000339E+02 0.  0.
         12    1    1    2    0    0  0.16058813132E+02  0.31867801855E+02 -0.24701841897E+02  0.43400728881E+02  0.00000000000E+00 0. -1.
         11    1    3    3    0    0 -0.20832468163E+01  0.41739089169E+00  0.34375161618E+01  0.40411199039E+01  0.51100000000E-03 0. -1.
        -11    1    3    3    0    0 -0.30003935644E+01 -0.47253078256E+00  0.61418406583E+01  0.68518503935E+01  0.51100000000E-03 0.  1.
        -12    1    3    3    0    0 -0.10975172751E+02 -0.31812661964E+02  0.15122485077E+02  0.36894300821E+02  0.00000000000E+00 0.  1.
</event>
<event>
 7    1  0.1736465E-010  0.4778727E+02  0.7816164E-02  0.1312668E+00
        -11   -1    0    0    0    0  0.00000000000E+00  0.00000000000E+00  0.45593999997E+02  0.45594000000E+02  0.51100000000E-03 0.  1.
         11   -1    0    0    0    0 -0.00000000000E+00 -0.00000000000E+00 -0.45593999997E+02  0.45594000000E+02  0.51100000000E-03 0. -1.
    9900012    2    1    2    0    0  0.11683443252E+02  0.39449830470E+01  0.41611987039E+02  0.47787271863E+02  0.20000003732E+02 0.  0.
         12    1    1    2    0    0 -0.11683443252E+02 -0.39449830470E+01 -0.41611987039E+02  0.43400728137E+02  0.00000000000E+00 0. -1.
         11    1    3    3    0    0 -0.21466295966E+01 -0.17795447964E+01  0.72153512395E+01  0.77353792459E+01  0.51100000000E-03 0. -1.
        -11    1    3    3    0    0  0.10443183199E+02 -0.43628289761E+00  0.93053638550E+01  0.13994292223E+02  0.51100000000E-03 0.  1.
        -12    1    3    3    0    0  0.33868896501E+01  0.61608107410E+01  0.25091271945E+02  0.26057600394E+02  0.00000000000E+00 0.  1.
</event>
<event>
 7    1  0.1736465E-010  0.4778727E+02  0.7816164E-02  0.1312668E+00
        -11   -1    0    0    0    0  0.00000000000E+00  0.00000000000E+00  0.45593999997E+02  0.45594000000E+02  0.51100000000E-03 0. -1.
         11   -1    0    0    0    0 -0.00000000000E+00 -0.00000000000E+00 -0.45593999997E+02  0.45594000000E+02  0.51100000000E-03 0.  1.
    9900012    2    1    2    0    0  0.13101550597E+02 -0.20848366427E+02 -0.35739590138E+02  0.47787270583E+02  0.19999997894E+02 0.  0.
         12    1    1    2    0    0 -0.13101550597E+02  0.20848366427E+02  0.35739590138E+02  0.43400729417E+02  0.00000000000E+00 0. -1.
         11    1    3    3    0    0  0.15064877126E+02 -0.77240456760E+01 -0.25908108802E+02  0.30949014627E+02  0.51100000000E-03 0.  1.
        -11    1    3    3    0    0 -0.26249401048E-01 -0.52944658906E+01 -0.21971739989E+01  0.57323321554E+01  0.51100000000E-03 0. -1.
        -12    1    3    3    0    0 -0.19370771282E+01 -0.78298548605E+01 -0.76343073373E+01  0.11105923800E+02  0.00000000000E+00 0.  1.
</event>
<event>
 7    1  0.1736465E-010  0.4778725E+02  0.7816164E-02  0.1312668E+00
        -11   -1    0    0    0    0  0.00000000000E+00  0.00000000000E+00  0.45593999997E+02  0.45594000000E+02  0.51100000000E-03 0.  1.
         11   -1    0    0    0    0 -0.00000000000E+00 -0.00000000000E+00 -0.45593999997E+02  0.45594000000E+02  0.51100000000E-03 0. -1.
    9900012    2    1    2    0    0 -0.31308682111E+02  0.29498482871E+02  0.57646033655E+01  0.47787254394E+02  0.19999924084E+02 0.  0.
         12    1    1    2    0    0  0.31308682111E+02 -0.29498482871E+02 -0.57646033655E+01  0.43400745606E+02  0.00000000000E+00 0. -1.
         11    1    3    3    0    0 -0.13877552372E+02  0.10690143852E+02 -0.32727393655E+01  0.17820675033E+02  0.51100000000E-03 0. -1.
        -11    1    3    3    0    0 -0.14925862947E+02  0.18354666294E+02  0.35565527447E+01  0.23923298835E+02  0.51100000000E-03 0.  1.
         12    1    3    3    0    0 -0.25052667920E+01  0.45367272445E+00  0.54807899864E+01  0.60432805259E+01  0.00000000000E+00 0. -1.
</event>
<event>
 7    1  0.1736465E-010  0.4778727E+02  0.7816164E-02  0.1312668E+00
        -11   -1    0    0    0    0  0.00000000000E+00  0.00000000000E+00  0.45593999997E+02  0.45594000000E+02  0.51100000000E-03 0.  1.
         11   -1    0    0    0    0 -0.00000000000E+00 -0.00000000000E+00 -0.45593999997E+02  0.45594000000E+02  0.51100000000E-03 0. -1.
    9900012    2    1    2    0    0 -0.62003701328E+01  0.41898717991E+02  0.94697619854E+01  0.47787267850E+02  0.19999985436E+02 0.  0.
         12    1    1    2    0    0  0.62003701328E+01 -0.41898717991E+02 -0.94697619854E+01  0.43400732150E+02  0.00000000000E+00 0. -1.
         11    1    3    3    0    0 -0.31070223484E-01  0.16643767856E+02 -0.19643018308E+01  0.16759309525E+02  0.51100000000E-03 0. -1.
        -11    1    3    3    0    0 -0.70468390849E+01  0.26386576855E+02  0.11401249852E+02  0.29595571927E+02  0.51100000000E-03 0.  1.
         12    1    3    3    0    0  0.87753917560E+00 -0.11316267201E+01  0.32813963891E-01  0.14323863985E+01  0.00000000000E+00 0. -1.
</event>
<event>
 7    1  0.1736465E-010  0.4778727E+02  0.7816164E-02  0.1312668E+00
        -11   -1    0    0    0    0  0.00000000000E+00  0.00000000000E+00  0.45593999997E+02  0.45594000000E+02  0.51100000000E-03 0.  1.
         11   -1    0    0    0    0 -0.00000000000E+00 -0.00000000000E+00 -0.45593999997E+02  0.45594000000E+02  0.51100000000E-03 0. -1.
    9900012    2    1    2    0    0 -0.16646345784E+02  0.35292466837E+02  0.18999062819E+02  0.47787269229E+02  0.19999991723E+02 0.  0.
         12    1    1    2    0    0  0.16646345784E+02 -0.35292466837E+02 -0.18999062819E+02  0.43400730771E+02  0.00000000000E+00 0. -1.
         11    1    3    3    0    0 -0.14795172411E+02  0.29178807914E+02  0.13722500122E+02  0.35476851154E+02  0.51100000000E-03 0. -1.
        -11    1    3    3    0    0 -0.40868244550E+01  0.23547901642E+01  0.62498785193E+01  0.78299522738E+01  0.51100000000E-03 0.  1.
        -12    1    3    3    0    0  0.22356510811E+01  0.37588687592E+01 -0.97331582274E+00  0.44804658013E+01  0.00000000000E+00 0.  1.
</event>
<event>
 7    1  0.2115046E-010  0.4778727E+02  0.7816164E-02  0.1312668E+00
        -11   -1    0    0    0    0  0.00000000000E+00  0.00000000000E+00  0.45593999997E+02  0.45594000000E+02  0.51100000000E-03 0.  1.
         11   -1    0    0    0    0 -0.00000000000E+00 -0.00000000000E+00 -0.45593999997E+02  0.45594000000E+02  0.51100000000E-03 0. -1.
    9900012    2    1    2    0    0  0.14844585162E+02  0.40756678494E+02 -0.14678907094E+01  0.47787271278E+02  0.20000001065E+02 0.  0.
         12    1    1    2    0    0 -0.14844585162E+02 -0.40756678494E+02  0.14678907094E+01  0.43400728722E+02  0.00000000000E+00 0. -1.
         11    1    3    3    0    0  0.14645748515E+01  0.16302919305E+01 -0.38928470320E+01  0.44673358448E+01  0.51100000000E-03 0. -1.
        -11    1    3    3    0    0  0.10374146317E+02  0.28731682734E+02 -0.38860524087E+01  0.30793406894E+02  0.51100000000E-03 0.  1.
        -12    1    3    3    0    0  0.30058639932E+01  0.10394703829E+02  0.63110087313E+01  0.12526528539E+02  0.00000000000E+00 0.  1.
</event>
<event>
 7    1  0.1736465E-010  0.4778725E+02  0.7816164E-02  0.1312668E+00
        -11   -1    0    0    0    0  0.00000000000E+00  0.00000000000E+00  0.45593999997E+02  0.45594000000E+02  0.51100000000E-03 0.  1.
         11   -1    0    0    0    0 -0.00000000000E+00 -0.00000000000E+00 -0.45593999997E+02  0.45594000000E+02  0.51100000000E-03 0. -1.
    9900012    2    1    2    0    0 -0.12271015999E+02  0.13255373071E+02  0.39463179276E+02  0.47787248078E+02  0.19999895285E+02 0.  0.
         12    1    1    2    0    0  0.12271015999E+02 -0.13255373071E+02 -0.39463179276E+02  0.43400751922E+02  0.00000000000E+00 0. -1.
         11    1    3    3    0    0  0.28503038107E+01  0.11165358643E+02  0.16097812691E+02  0.19797197759E+02  0.51100000000E-03 0. -1.
        -11    1    3    3    0    0 -0.52258132313E+01  0.43992106246E+00  0.63300748068E+01  0.82202494968E+01  0.51100000000E-03 0.  1.
         12    1    3    3    0    0 -0.98955065782E+01  0.16500933655E+01  0.17035291778E+02  0.19769800822E+02  0.00000000000E+00 0. -1.
</event>
<event>
 7    1  0.1736465E-010  0.4778727E+02  0.7816164E-02  0.1312668E+00
        -11   -1    0    0    0    0  0.00000000000E+00  0.00000000000E+00  0.45593999997E+02  0.45594000000E+02  0.51100000000E-03 0. -1.
         11   -1    0    0    0    0 -0.00000000000E+00 -0.00000000000E+00 -0.45593999997E+02  0.45594000000E+02  0.51100000000E-03 0.  1.
    9900012    2    1    2    0    0 -0.30203719496E+02 -0.15315604063E+02  0.27143897303E+02  0.47787267748E+02  0.19999984969E+02 0.  0.
         12    1    1    2    0    0  0.30203719496E+02  0.15315604063E+02 -0.27143897303E+02  0.43400732252E+02  0.00000000000E+00 0. -1.
         11    1    3    3    0    0 -0.28868632433E+02 -0.13039233192E+02  0.22942681580E+02  0.39112481117E+02  0.51100000000E-03 0. -1.
        -11    1    3    3    0    0 -0.24519904618E+01 -0.35314318112E+01  0.16445317200E+00  0.43023613248E+01  0.51100000000E-03 0.  1.
         12    1    3    3    0    0  0.11169033982E+01  0.12550609400E+01  0.40367625507E+01  0.43724253058E+01  0.00000000000E+00 0. -1.
</event>
<event>
 7    1  0.1736465E-010  0.4778727E+02  0.7816164E-02  0.1312668E+00
        -11   -1    0    0    0    0  0.00000000000E+00  0.00000000000E+00  0.45593999997E+02  0.45594000000E+02  0.51100000000E-03 0.  1.
         11   -1    0    0    0    0 -0.00000000000E+00 -0.00000000000E+00 -0.45593999997E+02  0.45594000000E+02  0.51100000000E-03 0. -1.
    9900012    2    1    2    0    0  0.49424449707E+01 -0.11106720391E+02  0.41663367726E+02  0.47787271776E+02  0.20000003336E+02 0.  0.
         12    1    1    2    0    0 -0.49424449707E+01  0.11106720391E+02 -0.41663367726E+02  0.43400728224E+02  0.00000000000E+00 0. -1.
         11    1    3    3    0    0  0.40590456840E+01  0.10514244571E+01  0.78657578018E+01  0.89135566028E+01  0.51100000000E-03 0. -1.
        -11    1    3    3    0    0 -0.20333017170E+01 -0.89951118524E+01  0.66063827765E+01  0.11344190000E+02  0.51100000000E-03 0.  1.
        -12    1    3    3    0    0  0.29167010037E+01 -0.31630329958E+01  0.27191227147E+02  0.27529525173E+02  0.00000000000E+00 0.  1.
</event>
<event>
 7    1  0.1736465E-010  0.4778727E+02  0.7816164E-02  0.1312668E+00
        -11   -1    0    0    0    0  0.00000000000E+00  0.00000000000E+00  0.45593999997E+02  0.45594000000E+02  0.51100000000E-03 0. -1.
         11   -1    0    0    0    0 -0.00000000000E+00 -0.00000000000E+00 -0.45593999997E+02  0.45594000000E+02  0.51100000000E-03 0.  1.
    9900012    2    1    2    0    0  0.37117458617E+02 -0.15287561755E+02 -0.16498734596E+02  0.47787268187E+02  0.19999986973E+02 0.  0.
         12    1    1    2    0    0 -0.37117458617E+02  0.15287561755E+02  0.16498734596E+02  0.43400731813E+02  0.00000000000E+00 0. -1.
         11    1    3    3    0    0  0.46379571057E+01 -0.29389492473E+01 -0.82125651892E+01  0.98789825407E+01  0.51100000000E-03 0. -1.
        -11    1    3    3    0    0  0.10577040383E+02  0.19231741907E+01 -0.11626099952E+01  0.10813142212E+02  0.51100000000E-03 0.  1.
         12    1    3    3    0    0  0.21902461128E+02 -0.14271786698E+02 -0.71235594114E+01  0.27095143434E+02  0.00000000000E+00 0. -1.
</event>
<event>
 7    1  0.1736465E-010  0.4778727E+02  0.7816164E-02  0.1312668E+00
        -11   -1    0    0    0    0  0.00000000000E+00  0.00000000000E+00  0.45593999997E+02  0.45594000000E+02  0.51100000000E-03 0.  1.
         11   -1    0    0    0    0 -0.00000000000E+00 -0.00000000000E+00 -0.45593999997E+02  0.45594000000E+02  0.51100000000E-03 0. -1.
    9900012    2    1    2    0    0  0.79978855995E+01  0.24124420100E+02  0.35180527905E+02  0.47787270019E+02  0.19999995325E+02 0.  0.
         12    1    1    2    0    0 -0.79978855995E+01 -0.24124420100E+02 -0.35180527905E+02  0.43400729981E+02  0.00000000000E+00 0. -1.
         11    1    3    3    0    0  0.32154448641E+01  0.58376212875E+01  0.84187605466E+01  0.10737431600E+02  0.51100000000E-03 0. -1.
        -11    1    3    3    0    0  0.92911049071E+01  0.48403095615E+01  0.16498092621E+02  0.19543292646E+02  0.51100000000E-03 0.  1.
         12    1    3    3    0    0 -0.45086641717E+01  0.13446489251E+02  0.10263674737E+02  0.17506545773E+02  0.00000000000E+00 0. -1.
</event>
<event>
 7    1  0.1736465E-010  0.4778727E+02  0.7816164E-02  0.1312668E+00
        -11   -1    0    0    0    0  0.00000000000E+00  0.00000000000E+00  0.45593999997E+02  0.45594000000E+02  0.51100000000E-03 0. -1.
         11   -1    0    0    0    0 -0.00000000000E+00 -0.00000000000E+00 -0.45593999997E+02  0.45594000000E+02  0.51100000000E-03 0.  1.
    9900012    2    1    2    0    0  0.84874994213E+01  0.42400169861E+02 -0.37163643395E+01  0.47787269423E+02  0.19999992608E+02 0.  0.
         12    1    1    2    0    0 -0.84874994213E+01 -0.42400169861E+02  0.37163643395E+01  0.43400730577E+02  0.00000000000E+00 0. -1.
         11    1    3    3    0    0  0.77971318263E+01  0.54844635836E+01 -0.48166808891E+01  0.10680590834E+02  0.51100000000E-03 0. -1.
        -11    1    3    3    0    0 -0.10294828013E+01  0.11449932559E+02 -0.71565989065E+00  0.11518374876E+02  0.51100000000E-03 0.  1.
         12    1    3    3    0    0  0.17198503963E+01  0.25465773719E+02  0.18159764403E+01  0.25588303713E+02  0.00000000000E+00 0. -1.
</event>
<event>
 7    1  0.1736465E-010  0.4778726E+02  0.7816164E-02  0.1312668E+00
        -11   -1    0    0    0    0  0.00000000000E+00  0.00000000000E+00  0.45593999997E+02  0.45594000000E+02  0.51100000000E-03 0.  1.
         11   -1    0    0    0    0 -0.00000000000E+00 -0.00000000000E+00 -0.45593999997E+02  0.45594000000E+02  0.51100000000E-03 0. -1.
    9900012    2    1    2    0    0  0.15064350690E+02 -0.40701746901E+02 -0.23911611026E+00  0.47787262229E+02  0.19999959809E+02 0.  0.
         12    1    1    2    0    0 -0.15064350690E+02  0.40701746901E+02  0.23911611026E+00  0.43400737771E+02  0.00000000000E+00 0. -1.
         11    1    3    3    0    0 -0.78729305690E+00 -0.10135885483E+02 -0.19750513839E-01  0.10166434735E+02  0.51100000000E-03 0. -1.
        -11    1    3    3    0    0  0.15131095281E+02 -0.30169763316E+02 -0.37836501138E+01  0.33962930842E+02  0.51100000000E-03 0.  1.
         12    1    3    3    0    0  0.72054846639E+00 -0.39609810219E+00  0.35642845174E+01  0.36578966524E+01  0.00000000000E+00 0. -1.
</event>
<event>
 7    1  0.1736465E-010  0.4778726E+02  0.7816164E-02  0.1312668E+00
        -11   -1    0    0    0    0  0.00000000000E+00  0.00000000000E+00  0.45593999997E+02  0.45594000000E+02  0.51100000000E-03 0.  1.
         11   -1    0    0    0    0 -0.00000000000E+00 -0.00000000000E+00 -0.45593999997E+02  0.45594000000E+02  0.51100000000E-03 0. -1.
    9900012    2    1    2    0    0 -0.40953764118E+02  0.13411913455E+02  0.51510783000E+01  0.47787264688E+02  0.19999971020E+02 0.  0.
         12    1    1    2    0    0  0.40953764118E+02 -0.13411913455E+02 -0.51510783000E+01  0.43400735312E+02  0.00000000000E+00 0. -1.
         11    1    3    3    0    0 -0.11833168575E+02 -0.31290871016E+00  0.24878961717E+01  0.12095925678E+02  0.51100000000E-03 0. -1.
        -11    1    3    3    0    0 -0.81114128721E+01  0.41863749682E+01 -0.61345253152E+01  0.10997870487E+02  0.51100000000E-03 0.  1.
        -12    1    3    3    0    0 -0.21009182671E+02  0.95384471967E+01  0.87977074435E+01  0.24693468523E+02  0.00000000000E+00 0.  1.
</event>
<event>
 7    1  0.1736465E-010  0.4778729E+02  0.7816164E-02  0.1312668E+00
        -11   -1    0    0    0    0  0.00000000000E+00  0.00000000000E+00  0.45593999997E+02  0.45594000000E+02  0.51100000000E-03 0.  1.
         11   -1    0    0    0    0 -0.00000000000E+00 -0.00000000000E+00 -0.45593999997E+02  0.45594000000E+02  0.51100000000E-03 0. -1.
    9900012    2    1    2    0    0  0.12988586006E+02  0.16486574650E+02  0.37988306508E+02  0.47787286395E+02  0.20000069988E+02 0.  0.
         12    1    1    2    0    0 -0.12988586006E+02 -0.16486574650E+02 -0.37988306508E+02  0.43400713605E+02  0.00000000000E+00 0. -1.
         11    1    3    3    0    0  0.12572867080E+01  0.39549581753E+01 -0.33963397333E+00  0.41638702587E+01  0.51100000000E-03 0. -1.
        -11    1    3    3    0    0  0.83221298394E+01  0.55853253468E+00  0.16751940494E+02  0.18713559635E+02  0.51100000000E-03 0.  1.
         12    1    3    3    0    0  0.34091694591E+01  0.11973083940E+02  0.21575999987E+02  0.24909856501E+02  0.00000000000E+00 0. -1.
</event>
<event>
 7    1  0.1736465E-010  0.4778727E+02  0.7816164E-02  0.1312668E+00
        -11   -1    0    0    0    0  0.00000000000E+00  0.00000000000E+00  0.45593999997E+02  0.45594000000E+02  0.51100000000E-03 0.  1.
         11   -1    0    0    0    0 -0.00000000000E+00 -0.00000000000E+00 -0.45593999997E+02  0.45594000000E+02  0.51100000000E-03 0. -1.
    9900012    2    1    2    0    0 -0.90254719696E+01 -0.36678675332E+02  0.21373787646E+02  0.47787272279E+02  0.20000005627E+02 0.  0.
         12    1    1    2    0    0  0.90254719696E+01  0.36678675332E+02 -0.21373787646E+02  0.43400727721E+02  0.00000000000E+00 0. -1.
         11    1    3    3    0    0 -0.60774455262E+01 -0.47422876673E+01  0.41608653371E+01  0.87599906997E+01  0.51100000000E-03 0. -1.
        -11    1    3    3    0    0 -0.91010927143E+00 -0.26527997008E+02  0.19368471518E+02  0.32858798112E+02  0.51100000000E-03 0.  1.
         12    1    3    3    0    0 -0.20379171720E+01 -0.54083906563E+01 -0.21555492085E+01  0.61684834669E+01  0.00000000000E+00 0. -1.
</event>
<event>
 7    1  0.2048959E-010  0.4778727E+02  0.7816164E-02  0.1312668E+00
        -11   -1    0    0    0    0  0.00000000000E+00  0.00000000000E+00  0.45593999997E+02  0.45594000000E+02  0.51100000000E-03 0.  1.
         11   -1    0    0    0    0 -0.00000000000E+00 -0.00000000000E+00 -0.45593999997E+02  0.45594000000E+02  0.51100000000E-03 0. -1.
    9900012    2    1    2    0    0  0.14646299534E+01  0.23189129316E+02  0.36657096083E+02  0.47787267834E+02  0.19999985361E+02 0.  0.
         12    1    1    2    0    0 -0.14646299534E+01 -0.23189129316E+02 -0.36657096083E+02  0.43400732166E+02  0.00000000000E+00 0. -1.
         11    1    3    3    0    0  0.32120413289E+01  0.57482295441E+01  0.85136979221E+00  0.66395920940E+01  0.51100000000E-03 0. -1.
        -11    1    3    3    0    0 -0.53570671295E+01  0.57850944084E+01  0.11389992777E+02  0.13852704474E+02  0.51100000000E-03 0.  1.
        -12    1    3    3    0    0  0.36096557541E+01  0.11655805364E+02  0.24415733514E+02  0.27294971265E+02  0.00000000000E+00 0.  1.
</event>
<event>
 7    1  0.1736465E-010  0.4778727E+02  0.7816164E-02  0.1312668E+00
        -11   -1    0    0    0    0  0.00000000000E+00  0.00000000000E+00  0.45593999997E+02  0.45594000000E+02  0.51100000000E-03 0.  1.
         11   -1    0    0    0    0 -0.00000000000E+00 -0.00000000000E+00 -0.45593999997E+02  0.45594000000E+02  0.51100000000E-03 0. -1.
    9900012    2    1    2    0    0  0.13323328386E+02  0.11128745596E+02  0.39777671600E+02  0.47787271715E+02  0.20000003056E+02 0.  0.
         12    1    1    2    0    0 -0.13323328386E+02 -0.11128745596E+02 -0.39777671600E+02  0.43400728285E+02  0.00000000000E+00 0. -1.
         11    1    3    3    0    0 -0.13567214438E+01  0.32740385429E+01  0.14847416172E+01  0.38424574672E+01  0.51100000000E-03 0. -1.
        -11    1    3    3    0    0  0.94443149973E+01  0.16868807393E+01  0.32778921384E+02  0.34154038410E+02  0.51100000000E-03 0.  1.
         12    1    3    3    0    0  0.52357348320E+01  0.61678263135E+01  0.55140085989E+01  0.97907758372E+01  0.00000000000E+00 0. -1.
</event>
<event>
 7    1  0.1736465E-010  0.4778727E+02  0.7816164E-02  0.1312668E+00
        -11   -1    0    0    0    0  0.00000000000E+00  0.00000000000E+00  0.45593999997E+02  0.45594000000E+02  0.51100000000E-03 0.  1.
         11   -1    0    0    0    0 -0.00000000000E+00 -0.00000000000E+00 -0.45593999997E+02  0.45594000000E+02  0.51100000000E-03 0. -1.
    9900012    2    1    2    0    0  0.18451233256E+02 -0.33201559765E+01  0.39142709971E+02  0.47787272030E+02  0.20000004496E+02 0.  0.
         12    1    1    2    0    0 -0.18451233256E+02  0.33201559765E+01 -0.39142709971E+02  0.43400727970E+02  0.00000000000E+00 0. -1.
         11    1    3    3    0    0 -0.38314714132E+01 -0.16087043986E+01  0.38682209259E+01  0.56772560648E+01  0.51100000000E-03 0. -1.
        -11    1    3    3    0    0  0.11783367122E+02 -0.20384317048E+01  0.14214498834E+02  0.18575654010E+02  0.51100000000E-03 0.  1.
         12    1    3    3    0    0  0.10499337547E+02  0.32698012695E+00  0.21059990211E+02  0.23534361955E+02  0.00000000000E+00 0. -1.
</event>
<event>
 7    1  0.1736465E-010  0.4778727E+02  0.7816164E-02  0.1312668E+00
        -11   -1    0    0    0    0  0.00000000000E+00  0.00000000000E+00  0.45593999997E+02  0.45594000000E+02  0.51100000000E-03 0.  1.
         11   -1    0    0    0    0 -0.00000000000E+00 -0.00000000000E+00 -0.45593999997E+02  0.45594000000E+02  0.51100000000E-03 0. -1.
    9900012    2    1    2    0    0 -0.24294826043E+02 -0.35464659736E+02  0.59701438536E+01  0.47787270970E+02  0.19999999662E+02 0.  0.
         12    1    1    2    0    0  0.24294826043E+02  0.35464659736E+02 -0.59701438536E+01  0.43400729030E+02  0.00000000000E+00 0. -1.
         11    1    3    3    0    0 -0.44132756255E+01 -0.15084689579E+02 -0.63879505465E+00  0.15730000662E+02  0.51100000000E-03 0. -1.
        -11    1    3    3    0    0 -0.27121077518E+01 -0.51058013568E+01  0.69935607321E+01  0.90738430628E+01  0.51100000000E-03 0.  1.
         12    1    3    3    0    0 -0.17169442666E+02 -0.15274168801E+02 -0.38462182388E+00  0.22983427246E+02  0.00000000000E+00 0. -1.
</event>
<event>
 7    1  0.1736465E-010  0.4778727E+02  0.7816164E-02  0.1312668E+00
        -11   -1    0    0    0    0  0.00000000000E+00  0.00000000000E+00  0.45593999997E+02  0.45594000000E+02  0.51100000000E-03 0.  1.
         11   -1    0    0    0    0 -0.00000000000E+00 -0.00000000000E+00 -0.45593999997E+02  0.45594000000E+02  0.51100000000E-03 0. -1.
    9900012    2    1    2    0    0 -0.17722382179E+02  0.26770354602E+02  0.29204257830E+02  0.47787269695E+02  0.19999993847E+02 0.  0.
         12    1    1    2    0    0  0.17722382179E+02 -0.26770354602E+02 -0.29204257830E+02  0.43400730305E+02  0.00000000000E+00 0. -1.
         11    1    3    3    0    0  0.35751918243E+00 -0.20498986869E+01  0.23354404697E+01  0.31279685166E+01  0.51100000000E-03 0. -1.
        -11    1    3    3    0    0 -0.14897481920E+02  0.15940224601E+02  0.12684997280E+02  0.25237568903E+02  0.51100000000E-03 0.  1.
         12    1    3    3    0    0 -0.31824194419E+01  0.12880028688E+02  0.14183820080E+02  0.19421732275E+02  0.00000000000E+00 0. -1.
</event>
<event>
 7    1  0.1736465E-010  0.4778727E+02  0.7816164E-02  0.1312668E+00
        -11   -1    0    0    0    0  0.00000000000E+00  0.00000000000E+00  0.45593999997E+02  0.45594000000E+02  0.51100000000E-03 0.  1.
         11   -1    0    0    0    0 -0.00000000000E+00 -0.00000000000E+00 -0.45593999997E+02  0.45594000000E+02  0.51100000000E-03 0. -1.
    9900012    2    1    2    0    0 -0.23187190106E+02  0.71598097527E+01  0.35982149090E+02  0.47787265976E+02  0.19999976891E+02 0.  0.
         12    1    1    2    0    0  0.23187190106E+02 -0.71598097527E+01 -0.35982149090E+02  0.43400734024E+02  0.00000000000E+00 0. -1.
         11    1    3    3    0    0  0.20957551192E+01 -0.23228105386E+01  0.20121111714E+01  0.37197083145E+01  0.51100000000E-03 0. -1.
        -11    1    3    3    0    0 -0.78592587388E+01  0.57528873968E+01  0.16201480616E+02  0.18903746606E+02  0.51100000000E-03 0.  1.
         12    1    3    3    0    0 -0.17423686486E+02  0.37297328945E+01  0.17768557303E+02  0.25163811056E+02  0.00000000000E+00 0. -1.
</event>
<event>
 7    1  0.1736465E-010  0.4778727E+02  0.7816164E-02  0.1312668E+00
        -11   -1    0    0    0    0  0.00000000000E+00  0.00000000000E+00  0.45593999997E+02  0.45594000000E+02  0.51100000000E-03 0.  1.
         11   -1    0    0    0    0 -0.00000000000E+00 -0.00000000000E+00 -0.45593999997E+02  0.45594000000E+02  0.51100000000E-03 0. -1.
    9900012    2    1    2    0    0  0.28223799415E+02  0.16014572394E+02  0.28819678082E+02  0.47787271583E+02  0.20000002456E+02 0.  0.
         12    1    1    2    0    0 -0.28223799415E+02 -0.16014572394E+02 -0.28819678082E+02  0.43400728417E+02  0.00000000000E+00 0. -1.
         11    1    3    3    0    0  0.26015451031E+02  0.14100561927E+02  0.24390787437E+02  0.38347621192E+02  0.51100000000E-03 0.  1.
        -11    1    3    3    0    0  0.94292907382E+00  0.24261235798E+01  0.64757707831E+01  0.69793121694E+01  0.51100000000E-03 0. -1.
        -12    1    3    3    0    0  0.12654193093E+01 -0.51211311267E+00 -0.20468801375E+01  0.24603382219E+01  0.00000000000E+00 0.  1.
</event>
<event>
 7    1  0.1736465E-010  0.4778727E+02  0.7816164E-02  0.1312668E+00
        -11   -1    0    0    0    0  0.00000000000E+00  0.00000000000E+00  0.45593999997E+02  0.45594000000E+02  0.51100000000E-03 0.  1.
         11   -1    0    0    0    0 -0.00000000000E+00 -0.00000000000E+00 -0.45593999997E+02  0.45594000000E+02  0.51100000000E-03 0. -1.
    9900012    2    1    2    0    0 -0.15887555583E+02  0.22788297411E+02  0.33345200153E+02  0.47787270806E+02  0.19999998915E+02 0.  0.
         12    1    1    2    0    0  0.15887555583E+02 -0.22788297411E+02 -0.33345200153E+02  0.43400729194E+02  0.00000000000E+00 0. -1.
         11    1    3    3    0    0  0.52826302028E+00  0.20824106071E+01  0.84770964648E+01  0.87450935095E+01  0.51100000000E-03 0. -1.
        -11    1    3    3    0    0 -0.50888013281E+01  0.87538855403E+01  0.11815704286E+01  0.10194239547E+02  0.51100000000E-03 0.  1.
        -12    1    3    3    0    0 -0.11327017275E+02  0.11952001264E+02  0.23686533259E+02  0.28847937750E+02  0.00000000000E+00 0.  1.
</event>
<event>
 7    1  0.1736465E-010  0.4778727E+02  0.7816164E-02  0.1312668E+00
        -11   -1    0    0    0    0  0.00000000000E+00  0.00000000000E+00  0.45593999997E+02  0.45594000000E+02  0.51100000000E-03 0.  1.
         11   -1    0    0    0    0 -0.00000000000E+00 -0.00000000000E+00 -0.45593999997E+02  0.45594000000E+02  0.51100000000E-03 0. -1.
    9900012    2    1    2    0    0 -0.33872702232E+02 -0.16055373957E+02  0.21874377310E+02  0.47787269913E+02  0.19999994840E+02 0.  0.
         12    1    1    2    0    0  0.33872702232E+02  0.16055373957E+02 -0.21874377310E+02  0.43400730087E+02  0.00000000000E+00 0. -1.
         11    1    3    3    0    0  0.23948885709E+01 -0.33573656754E+00  0.28205628256E+01  0.37153445633E+01  0.51100000000E-03 0. -1.
        -11    1    3    3    0    0 -0.10172870726E+02 -0.64060133675E+01  0.52826031507E+01  0.13131268118E+02  0.51100000000E-03 0.  1.
        -12    1    3    3    0    0 -0.26094720077E+02 -0.93136240219E+01  0.13771211333E+02  0.30940657231E+02  0.00000000000E+00 0.  1.
</event>
<event>
 7    1  0.1736465E-010  0.4778728E+02  0.7816164E-02  0.1312668E+00
        -11   -1    0    0    0    0  0.00000000000E+00  0.00000000000E+00  0.45593999997E+02  0.45594000000E+02  0.51100000000E-03 0. -1.
         11   -1    0    0    0    0 -0.00000000000E+00 -0.00000000000E+00 -0.45593999997E+02  0.45594000000E+02  0.51100000000E-03 0.  1.
    9900012    2    1    2    0    0  0.15862292929E+02 -0.36494170468E+02 -0.17325859982E+02  0.47787282964E+02  0.20000054346E+02 0.  0.
         12    1    1    2    0    0 -0.15862292929E+02  0.36494170468E+02  0.17325859982E+02  0.43400717036E+02  0.00000000000E+00 0. -1.
         11    1    3    3    0    0  0.57877534409E+01 -0.21634625043E+02 -0.30794345558E+01  0.22606149784E+02  0.51100000000E-03 0. -1.
        -11    1    3    3    0    0  0.52821645662E+01 -0.11551354145E+01 -0.94115628638E+00  0.54882944297E+01  0.51100000000E-03 0.  1.
         12    1    3    3    0    0  0.47923749218E+01 -0.13704410011E+02 -0.13305269140E+02  0.19692838750E+02  0.00000000000E+00 0. -1.
</event>
<event>
 7    1  0.1736465E-010  0.4778727E+02  0.7816164E-02  0.1312668E+00
        -11   -1    0    0    0    0  0.00000000000E+00  0.00000000000E+00  0.45593999997E+02  0.45594000000E+02  0.51100000000E-03 0.  1.
         11   -1    0    0    0    0 -0.00000000000E+00 -0.00000000000E+00 -0.45593999997E+02  0.45594000000E+02  0.51100000000E-03 0. -1.
    9900012    2    1    2    0    0 -0.31923013666E+02 -0.29332023602E+02  0.20438189711E+01  0.47787267217E+02  0.19999982550E+02 0.  0.
         12    1    1    2    0    0  0.31923013666E+02  0.29332023602E+02 -0.20438189711E+01  0.43400732783E+02  0.00000000000E+00 0. -1.
         11    1    3    3    0    0 -0.21254412560E+02 -0.24301005892E+02 -0.20426236357E+01  0.32349053344E+02  0.51100000000E-03 0. -1.
        -11    1    3    3    0    0 -0.45391331949E+01 -0.60319793289E+01  0.51482387128E+01  0.91374431265E+01  0.51100000000E-03 0.  1.
         12    1    3    3    0    0 -0.61294679109E+01  0.10009616193E+01 -0.10617961059E+01  0.63007707469E+01  0.00000000000E+00 0. -1.
</event>
<event>
 7    1  0.3049458E-010  0.4778728E+02  0.7816164E-02  0.1312668E+00
        -11   -1    0    0    0    0  0.00000000000E+00  0.00000000000E+00  0.45593999997E+02  0.45594000000E+02  0.51100000000E-03 0. -1.
         11   -1    0    0    0    0 -0.00000000000E+00 -0.00000000000E+00 -0.45593999997E+02  0.45594000000E+02  0.51100000000E-03 0.  1.
    9900012    2    1    2    0    0 -0.14692382112E+02 -0.17124140978E+02 -0.37074527539E+02  0.47787275483E+02  0.20000020236E+02 0.  0.
         12    1    1    2    0    0  0.14692382112E+02  0.17124140978E+02  0.37074527539E+02  0.43400724517E+02  0.00000000000E+00 0. -1.
         11    1    3    3    0    0  0.18107702468E+01  0.14579074782E+01 -0.47406921269E+01  0.52800137505E+01  0.51100000000E-03 0. -1.
        -11    1    3    3    0    0 -0.67460492599E+01 -0.11779517475E+02 -0.25238368878E+02  0.28657311047E+02  0.51100000000E-03 0.  1.
        -12    1    3    3    0    0 -0.97571030993E+01 -0.68025309808E+01 -0.70954665339E+01  0.13849950685E+02  0.00000000000E+00 0.  1.
</event>
<event>
 7    1  0.1736465E-010  0.4778727E+02  0.7816164E-02  0.1312668E+00
        -11   -1    0    0    0    0  0.00000000000E+00  0.00000000000E+00  0.45593999997E+02  0.45594000000E+02  0.51100000000E-03 0.  1.
         11   -1    0    0    0    0 -0.00000000000E+00 -0.00000000000E+00 -0.45593999997E+02  0.45594000000E+02  0.51100000000E-03 0. -1.
    9900012    2    1    2    0    0  0.27787068512E+02  0.33253205333E+02 -0.23929990049E+01  0.47787270908E+02  0.19999999379E+02 0.  0.
         12    1    1    2    0    0 -0.27787068512E+02 -0.33253205333E+02  0.23929990049E+01  0.43400729092E+02  0.00000000000E+00 0. -1.
         11    1    3    3    0    0 -0.18697209636E+01  0.26670400319E+01  0.14772005987E+01  0.35764620623E+01  0.51100000000E-03 0. -1.
        -11    1    3    3    0    0  0.15758588989E+02  0.19427328603E+02  0.28188434011E+01  0.25173400683E+02  0.51100000000E-03 0.  1.
        -12    1    3    3    0    0  0.13898200487E+02  0.11158836699E+02 -0.66890430047E+01  0.19037408163E+02  0.00000000000E+00 0.  1.
</event>
<event>
 7    1  0.1736465E-010  0.4778727E+02  0.7816164E-02  0.1312668E+00
        -11   -1    0    0    0    0  0.00000000000E+00  0.00000000000E+00  0.45593999997E+02  0.45594000000E+02  0.51100000000E-03 0. -1.
         11   -1    0    0    0    0 -0.00000000000E+00 -0.00000000000E+00 -0.45593999997E+02  0.45594000000E+02  0.51100000000E-03 0.  1.
    9900012    2    1    2    0    0  0.35023343669E+02  0.25521409031E+02  0.23762118018E+01  0.47787270706E+02  0.19999998459E+02 0.  0.
         12    1    1    2    0    0 -0.35023343669E+02 -0.25521409031E+02 -0.23762118018E+01  0.43400729294E+02  0.00000000000E+00 0. -1.
         11    1    3    3    0    0  0.27228237531E+02  0.16714153241E+02  0.68281361331E+01  0.32670526181E+02  0.51100000000E-03 0. -1.
        -11    1    3    3    0    0  0.90467123476E+01  0.93483209683E+01 -0.35597438472E+01  0.13487249006E+02  0.51100000000E-03 0.  1.
         12    1    3    3    0    0 -0.12516062101E+01 -0.54106517811E+00 -0.89218048409E+00  0.16294955196E+01  0.00000000000E+00 0. -1.
</event>
<event>
 7    1  0.1736465E-010  0.4778727E+02  0.7816164E-02  0.1312668E+00
        -11   -1    0    0    0    0  0.00000000000E+00  0.00000000000E+00  0.45593999997E+02  0.45594000000E+02  0.51100000000E-03 0.  1.
         11   -1    0    0    0    0 -0.00000000000E+00 -0.00000000000E+00 -0.45593999997E+02  0.45594000000E+02  0.51100000000E-03 0. -1.
    9900012    2    1    2    0    0  0.13756295734E+02 -0.31350717738E+01  0.41043375659E+02  0.47787273822E+02  0.20000012663E+02 0.  0.
         12    1    1    2    0    0 -0.13756295734E+02  0.31350717738E+01 -0.41043375659E+02  0.43400726178E+02  0.00000000000E+00 0. -1.
         11    1    3    3    0    0  0.58697981157E+01 -0.86927780846E+01  0.34128876022E+02  0.35704328862E+02  0.51100000000E-03 0. -1.
        -11    1    3    3    0    0  0.25047634336E+01  0.80934408657E+00  0.11281545537E+01  0.28638454335E+01  0.51100000000E-03 0.  1.
         12    1    3    3    0    0  0.53817341846E+01  0.47483622242E+01  0.57863450834E+01  0.92190995260E+01  0.00000000000E+00 0. -1.
</event>
<event>
 7    1  0.1736465E-010  0.4778727E+02  0.7816164E-02  0.1312668E+00
        -11   -1    0    0    0    0  0.00000000000E+00  0.00000000000E+00  0.45593999997E+02  0.45594000000E+02  0.51100000000E-03 0.  1.
         11   -1    0    0    0    0 -0.00000000000E+00 -0.00000000000E+00 -0.45593999997E+02  0.45594000000E+02  0.51100000000E-03 0. -1.
    9900012    2    1    2    0    0 -0.92994986737E+01 -0.33872788052E+01  0.42257182121E+02  0.47787265281E+02  0.19999973724E+02 0.  0.
         12    1    1    2    0    0  0.92994986737E+01  0.33872788052E+01 -0.42257182121E+02  0.43400734719E+02  0.00000000000E+00 0. -1.
         11    1    3    3    0    0 -0.14342219284E+02 -0.20869293944E+01  0.20294113223E+02  0.24938034406E+02  0.51100000000E-03 0. -1.
        -11    1    3    3    0    0  0.20934474216E+01 -0.23637434980E+01  0.11632067161E+02  0.12052999300E+02  0.51100000000E-03 0.  1.
         12    1    3    3    0    0  0.29492731884E+01  0.10633940872E+01  0.10331001738E+02  0.10796231575E+02  0.00000000000E+00 0. -1.
</event>
<event>
 7    1  0.1736465E-010  0.4778728E+02  0.7816164E-02  0.1312668E+00
        -11   -1    0    0    0    0  0.00000000000E+00  0.00000000000E+00  0.45593999997E+02  0.45594000000E+02  0.51100000000E-03 0.  1.
         11   -1    0    0    0    0 -0.00000000000E+00 -0.00000000000E+00 -0.45593999997E+02  0.45594000000E+02  0.51100000000E-03 0. -1.
    9900012    2    1    2    0    0  0.13062650418E+02  0.16025498181E+02  0.38159840304E+02  0.47787276044E+02  0.20000022795E+02 0.  0.
         12    1    1    2    0    0 -0.13062650418E+02 -0.16025498181E+02 -0.38159840304E+02  0.43400723956E+02  0.00000000000E+00 0. -1.
         11    1    3    3    0    0  0.43090087360E+01  0.73006265397E+00 -0.16235320772E+00  0.43734319008E+01  0.51100000000E-03 0. -1.
        -11    1    3    3    0    0 -0.19138105881E+01  0.28015908683E+01  0.11215008889E+02  0.11716996501E+02  0.51100000000E-03 0.  1.
         12    1    3    3    0    0  0.10667452271E+02  0.12493844659E+02  0.27107184622E+02  0.31696847642E+02  0.00000000000E+00 0. -1.
</event>
<event>
 7    1  0.1736465E-010  0.4778727E+02  0.7816164E-02  0.1312668E+00
        -11   -1    0    0    0    0  0.00000000000E+00  0.00000000000E+00  0.45593999997E+02  0.45594000000E+02  0.51100000000E-03 0. -1.
         11   -1    0    0    0    0 -0.00000000000E+00 -0.00000000000E+00 -0.45593999997E+02  0.45594000000E+02  0.51100000000E-03 0.  1.
    9900012    2    1    2    0    0  0.42192308471E+02 -0.95291261341E+01 -0.35536639302E+01  0.47787266523E+02  0.19999979387E+02 0.  0.
         12    1    1    2    0    0 -0.42192308471E+02  0.95291261341E+01  0.35536639302E+01  0.43400733477E+02  0.00000000000E+00 0. -1.
         11    1    3    3    0    0  0.20821124611E+02 -0.47664778424E+01  0.12234782861E+01  0.21394752639E+02  0.51100000000E-03 0. -1.
        -11    1    3    3    0    0  0.71132881976E+00  0.35984733059E+01 -0.60087865041E+00  0.37169953238E+01  0.51100000000E-03 0.  1.
        -12    1    3    3    0    0  0.20659855040E+02 -0.83611215977E+01 -0.41762635659E+01  0.22675518561E+02  0.00000000000E+00 0.  1.
</event>
<event>
 7    1  0.1736465E-010  0.4778727E+02  0.7816164E-02  0.1312668E+00
        -11   -1    0    0    0    0  0.00000000000E+00  0.00000000000E+00  0.45593999997E+02  0.45594000000E+02  0.51100000000E-03 0.  1.
         11   -1    0    0    0    0 -0.00000000000E+00 -0.00000000000E+00 -0.45593999997E+02  0.45594000000E+02  0.51100000000E-03 0. -1.
    9900012    2    1    2    0    0 -0.29184368917E+01  0.53556284254E+00  0.43299181300E+02  0.47787271865E+02  0.20000003740E+02 0.  0.
         12    1    1    2    0    0  0.29184368917E+01 -0.53556284254E+00 -0.43299181300E+02  0.43400728135E+02  0.00000000000E+00 0. -1.
         11    1    3    3    0    0 -0.61825062850E+01 -0.19831343100E+00  0.93191907313E+01  0.11185259422E+02  0.51100000000E-03 0. -1.
        -11    1    3    3    0    0 -0.76854851357E+00 -0.56799562239E+01  0.18498381349E+02  0.19366018753E+02  0.51100000000E-03 0.  1.
        -12    1    3    3    0    0  0.40326179069E+01  0.64138324974E+01  0.15481609219E+02  0.17235993690E+02  0.00000000000E+00 0.  1.
</event>
<event>
 7    1  0.1736465E-010  0.4778727E+02  0.7816164E-02  0.1312668E+00
        -11   -1    0    0    0    0  0.00000000000E+00  0.00000000000E+00  0.45593999997E+02  0.45594000000E+02  0.51100000000E-03 0.  1.
         11   -1    0    0    0    0 -0.00000000000E+00 -0.00000000000E+00 -0.45593999997E+02  0.45594000000E+02  0.51100000000E-03 0. -1.
    9900012    2    1    2    0    0  0.90631979289E+01  0.41426485180E+02  0.92373079328E+01  0.47787273175E+02  0.20000009716E+02 0.  0.
         12    1    1    2    0    0 -0.90631979289E+01 -0.41426485180E+02 -0.92373079328E+01  0.43400726825E+02  0.00000000000E+00 0. -1.
         11    1    3    3    0    0 -0.13348723608E+01  0.17657365061E+02  0.64670725676E+01  0.18851722812E+02  0.51100000000E-03 0. -1.
        -11    1    3    3    0    0  0.79076575598E+01  0.11744649137E+02  0.71963673954E+01  0.15882554435E+02  0.51100000000E-03 0.  1.
         12    1    3    3    0    0  0.24904127299E+01  0.12024470982E+02 -0.44261320303E+01  0.13052995928E+02  0.00000000000E+00 0. -1.
</event>
<event>
 7    1  0.1736465E-010  0.4778727E+02  0.7816164E-02  0.1312668E+00
        -11   -1    0    0    0    0  0.00000000000E+00  0.00000000000E+00  0.45593999997E+02  0.45594000000E+02  0.51100000000E-03 0. -1.
         11   -1    0    0    0    0 -0.00000000000E+00 -0.00000000000E+00 -0.45593999997E+02  0.45594000000E+02  0.51100000000E-03 0.  1.
    9900012    2    1    2    0    0  0.27755537638E+02 -0.29234693586E+02 -0.16080620063E+02  0.47787268206E+02  0.19999987057E+02 0.  0.
         12    1    1    2    0    0 -0.27755537638E+02  0.29234693586E+02  0.16080620063E+02  0.43400731794E+02  0.00000000000E+00 0. -1.
         11    1    3    3    0    0  0.42176154959E+01 -0.62082767144E+01  0.45029590911E+01  0.87525779671E+01  0.51100000000E-03 0. -1.
        -11    1    3    3    0    0  0.15371578930E+02 -0.15763327002E+02 -0.11593600860E+02  0.24883317667E+02  0.51100000000E-03 0.  1.
        -12    1    3    3    0    0  0.81663432128E+01 -0.72630898694E+01 -0.89899782944E+01  0.14151372571E+02  0.00000000000E+00 0.  1.
</event>
<event>
 7    1  0.1736465E-010  0.4778727E+02  0.7816164E-02  0.1312668E+00
        -11   -1    0    0    0    0  0.00000000000E+00  0.00000000000E+00  0.45593999997E+02  0.45594000000E+02  0.51100000000E-03 0.  1.
         11   -1    0    0    0    0 -0.00000000000E+00 -0.00000000000E+00 -0.45593999997E+02  0.45594000000E+02  0.51100000000E-03 0. -1.
    9900012    2    1    2    0    0 -0.12652281309E+02  0.28279413721E+02  0.30394370457E+02  0.47787271685E+02  0.20000002922E+02 0.  0.
         12    1    1    2    0    0  0.12652281309E+02 -0.28279413721E+02 -0.30394370457E+02  0.43400728315E+02  0.00000000000E+00 0. -1.
         11    1    3    3    0    0 -0.31976622055E+01  0.59651453681E+00  0.85166588272E+01  0.91167072462E+01  0.51100000000E-03 0. -1.
        -11    1    3    3    0    0 -0.72678742076E+01  0.21849815121E+02  0.22762536978E+02  0.32378534653E+02  0.51100000000E-03 0.  1.
        -12    1    3    3    0    0 -0.21867448963E+01  0.58330840634E+01 -0.88482534833E+00  0.62920297861E+01  0.00000000000E+00 0.  1.
</event>
<event>
 7    1  0.1736465E-010  0.4778727E+02  0.7816164E-02  0.1312668E+00
        -11   -1    0    0    0    0  0.00000000000E+00  0.00000000000E+00  0.45593999997E+02  0.45594000000E+02  0.51100000000E-03 0.  1.
         11   -1    0    0    0    0 -0.00000000000E+00 -0.00000000000E+00 -0.45593999997E+02  0.45594000000E+02  0.51100000000E-03 0. -1.
    9900012    2    1    2    0    0 -0.20919899182E+02  0.10965495121E+02  0.36410698201E+02  0.47787271797E+02  0.20000003433E+02 0.  0.
         12    1    1    2    0    0  0.20919899182E+02 -0.10965495121E+02 -0.36410698201E+02  0.43400728203E+02  0.00000000000E+00 0. -1.
         11    1    3    3    0    0  0.10049943378E+01 -0.26801847772E+00 -0.73398015881E+00  0.12730179331E+01  0.51100000000E-03 0. -1.
        -11    1    3    3    0    0 -0.95318917618E+01 -0.20595626792E+01  0.11415679220E+02  0.15013876625E+02  0.51100000000E-03 0.  1.
         12    1    3    3    0    0 -0.12393001758E+02  0.13293076278E+02  0.25728999140E+02  0.31500377240E+02  0.00000000000E+00 0. -1.
</event>
<event>
 7    1  0.1736465E-010  0.4778727E+02  0.7816164E-02  0.1312668E+00
        -11   -1    0    0    0    0  0.00000000000E+00  0.00000000000E+00  0.45593999997E+02  0.45594000000E+02  0.51100000000E-03 0.  1.
         11   -1    0    0    0    0 -0.00000000000E+00 -0.00000000000E+00 -0.45593999997E+02  0.45594000000E+02  0.51100000000E-03 0. -1.
    9900012    2    1    2    0    0 -0.41483005130E+01  0.38645546875E+02 -0.19311563440E+02  0.47787272208E+02  0.20000005304E+02 0.  0.
         12    1    1    2    0    0  0.41483005130E+01 -0.38645546875E+02  0.19311563440E+02  0.43400727792E+02  0.00000000000E+00 0. -1.
         11    1    3    3    0    0  0.11898640825E+01  0.12000287638E+01 -0.10919947260E+01  0.20120383474E+01  0.51100000000E-03 0. -1.
        -11    1    3    3    0    0 -0.11629577211E+02  0.27756498229E+02 -0.15730822581E+02  0.33957753745E+02  0.51100000000E-03 0.  1.
        -12    1    3    3    0    0  0.62914126157E+01  0.96890198818E+01 -0.24887461328E+01  0.11817480116E+02  0.00000000000E+00 0.  1.
</event>
<event>
 7    1  0.1736465E-010  0.4778727E+02  0.7816164E-02  0.1312668E+00
        -11   -1    0    0    0    0  0.00000000000E+00  0.00000000000E+00  0.45593999997E+02  0.45594000000E+02  0.51100000000E-03 0.  1.
         11   -1    0    0    0    0 -0.00000000000E+00 -0.00000000000E+00 -0.45593999997E+02  0.45594000000E+02  0.51100000000E-03 0. -1.
    9900012    2    1    2    0    0 -0.11172965730E+02 -0.39379728454E+02  0.14423075643E+02  0.47787270890E+02  0.19999999295E+02 0.  0.
         12    1    1    2    0    0  0.11172965730E+02  0.39379728454E+02 -0.14423075643E+02  0.43400729110E+02  0.00000000000E+00 0. -1.
         11    1    3    3    0    0  0.74154987855E+00 -0.36173985542E+01 -0.72437312434E+00  0.37630021534E+01  0.51100000000E-03 0. -1.
        -11    1    3    3    0    0 -0.17787515055E+01 -0.20177570569E+02  0.15378210682E+02  0.25432020663E+02  0.51100000000E-03 0.  1.
         12    1    3    3    0    0 -0.10135764103E+02 -0.15584759331E+02 -0.23076191447E+00  0.18592248073E+02  0.00000000000E+00 0. -1.
</event>
<event>
 7    1  0.1736465E-010  0.4778727E+02  0.7816164E-02  0.1312668E+00
        -11   -1    0    0    0    0  0.00000000000E+00  0.00000000000E+00  0.45593999997E+02  0.45594000000E+02  0.51100000000E-03 0.  1.
         11   -1    0    0    0    0 -0.00000000000E+00 -0.00000000000E+00 -0.45593999997E+02  0.45594000000E+02  0.51100000000E-03 0. -1.
    9900012    2    1    2    0    0  0.63089712561E+01  0.42937362854E+02 -0.45110280235E+00  0.47787265664E+02  0.19999975469E+02 0.  0.
         12    1    1    2    0    0 -0.63089712561E+01 -0.42937362854E+02  0.45110280235E+00  0.43400734336E+02  0.00000000000E+00 0. -1.
         11    1    3    3    0    0  0.40156910472E+01  0.24931710780E+01  0.36844703261E+01  0.59930792132E+01  0.51100000000E-03 0. -1.
        -11    1    3    3    0    0 -0.51088237636E+00  0.27057052803E+01  0.20718551775E+01  0.34459289029E+01  0.51100000000E-03 0.  1.
        -12    1    3    3    0    0  0.28041625852E+01  0.37738486496E+02 -0.62074283059E+01  0.38348257548E+02  0.00000000000E+00 0.  1.
</event>
<event>
 7    1  0.1736465E-010  0.4778727E+02  0.7816164E-02  0.1312668E+00
        -11   -1    0    0    0    0  0.00000000000E+00  0.00000000000E+00  0.45593999997E+02  0.45594000000E+02  0.51100000000E-03 0.  1.
         11   -1    0    0    0    0 -0.00000000000E+00 -0.00000000000E+00 -0.45593999997E+02  0.45594000000E+02  0.51100000000E-03 0. -1.
    9900012    2    1    2    0    0 -0.42497554104E+02 -0.13264254838E+00 -0.88070277798E+01  0.47787269163E+02  0.19999991420E+02 0.  0.
         12    1    1    2    0    0  0.42497554104E+02  0.13264254838E+00  0.88070277798E+01  0.43400730837E+02  0.00000000000E+00 0. -1.
         11    1    3    3    0    0 -0.90922560268E+01  0.41196900370E+01 -0.88825504611E+00  0.10021475088E+02  0.51100000000E-03 0. -1.
        -11    1    3    3    0    0 -0.20502437168E+01  0.37971734391E+01  0.42435783352E+00  0.43361394416E+01  0.51100000000E-03 0.  1.
        -12    1    3    3    0    0 -0.31355054361E+02 -0.80495060245E+01 -0.83431305672E+01  0.33429654633E+02  0.00000000000E+00 0.  1.
</event>
<event>
 7    1  0.1736465E-010  0.4778727E+02  0.7816164E-02  0.1312668E+00
        -11   -1    0    0    0    0  0.00000000000E+00  0.00000000000E+00  0.45593999997E+02  0.45594000000E+02  0.51100000000E-03 0.  1.
         11   -1    0    0    0    0 -0.00000000000E+00 -0.00000000000E+00 -0.45593999997E+02  0.45594000000E+02  0.51100000000E-03 0. -1.
    9900012    2    1    2    0    0  0.11098308540E+02 -0.32078746917E+02  0.27044506348E+02  0.47787265216E+02  0.19999973425E+02 0.  0.
         12    1    1    2    0    0 -0.11098308540E+02  0.32078746917E+02 -0.27044506348E+02  0.43400734784E+02  0.00000000000E+00 0. -1.
         11    1    3    3    0    0 -0.57731159138E+00 -0.12074340205E+01  0.14402980345E+01  0.19661241763E+01  0.51100000000E-03 0. -1.
        -11    1    3    3    0    0  0.12089899995E+02 -0.17559840886E+02  0.24470768067E+02  0.32455079477E+02  0.51100000000E-03 0.  1.
        -12    1    3    3    0    0 -0.41427986320E+00 -0.13311472011E+02  0.11334402464E+01  0.13366061562E+02  0.00000000000E+00 0.  1.
</event>
<event>
 7    1  0.1736465E-010  0.4778724E+02  0.7816164E-02  0.1312668E+00
        -11   -1    0    0    0    0  0.00000000000E+00  0.00000000000E+00  0.45593999997E+02  0.45594000000E+02  0.51100000000E-03 0.  1.
         11   -1    0    0    0    0 -0.00000000000E+00 -0.00000000000E+00 -0.45593999997E+02  0.45594000000E+02  0.51100000000E-03 0. -1.
    9900012    2    1    2    0    0  0.73709851127E+00  0.16006206126E+02  0.40334645941E+02  0.47787244109E+02  0.19999877189E+02 0.  0.
         12    1    1    2    0    0 -0.73709851127E+00 -0.16006206126E+02 -0.40334645941E+02  0.43400755891E+02  0.00000000000E+00 0. -1.
         11    1    3    3    0    0  0.31754161828E+01  0.32628532709E+01  0.50070107525E+01  0.67675428583E+01  0.51100000000E-03 0. -1.
        -11    1    3    3    0    0  0.31155802383E+01  0.10917771027E+02  0.10337232301E+02  0.15354573792E+02  0.51100000000E-03 0.  1.
         12    1    3    3    0    0 -0.55538979098E+01  0.18255818282E+01  0.24990402887E+02  0.25665127459E+02  0.00000000000E+00 0. -1.
</event>
<event>
 7    1  0.1736465E-010  0.4778727E+02  0.7816164E-02  0.1312668E+00
        -11   -1    0    0    0    0  0.00000000000E+00  0.00000000000E+00  0.45593999997E+02  0.45594000000E+02  0.51100000000E-03 0. -1.
         11   -1    0    0    0    0 -0.00000000000E+00 -0.00000000000E+00 -0.45593999997E+02  0.45594000000E+02  0.51100000000E-03 0.  1.
    9900012    2    1    2    0    0  0.51952467262E+01  0.20288426917E+02 -0.38013315537E+02  0.47787274045E+02  0.20000013680E+02 0.  0.
         12    1    1    2    0    0 -0.51952467262E+01 -0.20288426917E+02  0.38013315537E+02  0.43400725955E+02  0.00000000000E+00 0. -1.
         11    1    3    3    0    0 -0.20995416210E+01  0.25830321348E+01 -0.66541045475E+01  0.74402444595E+01  0.51100000000E-03 0. -1.
        -11    1    3    3    0    0  0.12731866310E+02  0.11874163093E+02 -0.21165086775E+02  0.27405420400E+02  0.51100000000E-03 0.  1.
         12    1    3    3    0    0 -0.54370779626E+01  0.58312316894E+01 -0.10194124215E+02  0.12941609185E+02  0.00000000000E+00 0. -1.
</event>
<event>
 7    1  0.1736465E-010  0.4778727E+02  0.7816164E-02  0.1312668E+00
        -11   -1    0    0    0    0  0.00000000000E+00  0.00000000000E+00  0.45593999997E+02  0.45594000000E+02  0.51100000000E-03 0.  1.
         11   -1    0    0    0    0 -0.00000000000E+00 -0.00000000000E+00 -0.45593999997E+02  0.45594000000E+02  0.51100000000E-03 0. -1.
    9900012    2    1    2    0    0 -0.20546761496E+02  0.11145283375E+02  0.36568242728E+02  0.47787272751E+02  0.20000007782E+02 0.  0.
         12    1    1    2    0    0  0.20546761496E+02 -0.11145283375E+02 -0.36568242728E+02  0.43400727249E+02  0.00000000000E+00 0. -1.
         11    1    3    3    0    0  0.55306667915E+00 -0.27279738161E+01  0.99953327042E+00  0.29574974070E+01  0.51100000000E-03 0. -1.
        -11    1    3    3    0    0 -0.42936926483E+01  0.65315201412E+01  0.17101589513E+02  0.18803215577E+02  0.51100000000E-03 0.  1.
        -12    1    3    3    0    0 -0.16806135527E+02  0.73417370499E+01  0.18467119945E+02  0.26026559768E+02  0.00000000000E+00 0.  1.
</event>
<event>
 7    1  0.1736465E-010  0.4778727E+02  0.7816164E-02  0.1312668E+00
        -11   -1    0    0    0    0  0.00000000000E+00  0.00000000000E+00  0.45593999997E+02  0.45594000000E+02  0.51100000000E-03 0.  1.
         11   -1    0    0    0    0 -0.00000000000E+00 -0.00000000000E+00 -0.45593999997E+02  0.45594000000E+02  0.51100000000E-03 0. -1.
    9900012    2    1    2    0    0 -0.22342648129E+02  0.25479632920E+02  0.27114897412E+02  0.47787270964E+02  0.19999999634E+02 0.  0.
         12    1    1    2    0    0  0.22342648129E+02 -0.25479632920E+02 -0.27114897412E+02  0.43400729036E+02  0.00000000000E+00 0. -1.
         11    1    3    3    0    0 -0.55814782454E+01  0.33764104286E+01  0.79260837701E+01  0.10265274033E+02  0.51100000000E-03 0. -1.
        -11    1    3    3    0    0 -0.16831476518E+02  0.89277817150E+01  0.10762497737E+02  0.21882304401E+02  0.51100000000E-03 0.  1.
         12    1    3    3    0    0  0.70306634225E-01  0.13175440777E+02  0.84263159055E+01  0.15639692530E+02  0.00000000000E+00 0. -1.
</event>
<event>
 7    1  0.1736465E-010  0.4778727E+02  0.7816164E-02  0.1312668E+00
        -11   -1    0    0    0    0  0.00000000000E+00  0.00000000000E+00  0.45593999997E+02  0.45594000000E+02  0.51100000000E-03 0. -1.
         11   -1    0    0    0    0 -0.00000000000E+00 -0.00000000000E+00 -0.45593999997E+02  0.45594000000E+02  0.51100000000E-03 0.  1.
    9900012    2    1    2    0    0 -0.73779469568E+01 -0.40184082160E+02 -0.14643374423E+02  0.47787274490E+02  0.20000015710E+02 0.  0.
         12    1    1    2    0    0  0.73779469568E+01  0.40184082160E+02  0.14643374423E+02  0.43400725510E+02  0.00000000000E+00 0. -1.
         11    1    3    3    0    0 -0.38259904904E+01 -0.23606972094E+02 -0.51701428363E+01  0.24467482745E+02  0.51100000000E-03 0.  1.
        -11    1    3    3    0    0 -0.75776318567E+01 -0.62003454088E+01 -0.66537215190E+01  0.11837938928E+02  0.51100000000E-03 0. -1.
         12    1    3    3    0    0  0.40256753903E+01 -0.10376764657E+02 -0.28195100673E+01  0.11481852817E+02  0.00000000000E+00 0. -1.
</event>
<event>
 7    1  0.1736465E-010  0.4778727E+02  0.7816164E-02  0.1312668E+00
        -11   -1    0    0    0    0  0.00000000000E+00  0.00000000000E+00  0.45593999997E+02  0.45594000000E+02  0.51100000000E-03 0.  1.
         11   -1    0    0    0    0 -0.00000000000E+00 -0.00000000000E+00 -0.45593999997E+02  0.45594000000E+02  0.51100000000E-03 0. -1.
    9900012    2    1    2    0    0  0.79566490111E+01  0.16229142473E+02  0.39457950812E+02  0.47787271767E+02  0.20000003293E+02 0.  0.
         12    1    1    2    0    0 -0.79566490111E+01 -0.16229142473E+02 -0.39457950812E+02  0.43400728233E+02  0.00000000000E+00 0. -1.
         11    1    3    3    0    0  0.74958281154E+01  0.63792947881E+00  0.68547061820E+01  0.10177494302E+02  0.51100000000E-03 0. -1.
        -11    1    3    3    0    0 -0.79257748352E+00  0.42508063914E+01  0.20600938848E+02  0.21049850729E+02  0.51100000000E-03 0.  1.
         12    1    3    3    0    0  0.12533983793E+01  0.11340406603E+02  0.12002305782E+02  0.16559926736E+02  0.00000000000E+00 0. -1.
</event>
<event>
 7    1  0.1736465E-010  0.4778727E+02  0.7816164E-02  0.1312668E+00
        -11   -1    0    0    0    0  0.00000000000E+00  0.00000000000E+00  0.45593999997E+02  0.45594000000E+02  0.51100000000E-03 0.  1.
         11   -1    0    0    0    0 -0.00000000000E+00 -0.00000000000E+00 -0.45593999997E+02  0.45594000000E+02  0.51100000000E-03 0. -1.
    9900012    2    1    2    0    0  0.16663414450E+02  0.33827496512E+02  0.21486149111E+02  0.47787268382E+02  0.19999987861E+02 0.  0.
         12    1    1    2    0    0 -0.16663414450E+02 -0.33827496512E+02 -0.21486149111E+02  0.43400731618E+02  0.00000000000E+00 0. -1.
         11    1    3    3    0    0  0.25698382532E+01  0.46877883386E+01  0.95253678106E+00  0.54301707832E+01  0.51100000000E-03 0. -1.
        -11    1    3    3    0    0  0.92553078336E+01  0.28773420094E+02  0.11959719518E+02  0.32505465975E+02  0.51100000000E-03 0.  1.
         12    1    3    3    0    0  0.48382683634E+01  0.36628807879E+00  0.85738928116E+01  0.98516316242E+01  0.00000000000E+00 0. -1.
</event>
<event>
 7    1  0.1736465E-010  0.4778727E+02  0.7816164E-02  0.1312668E+00
        -11   -1    0    0    0    0  0.00000000000E+00  0.00000000000E+00  0.45593999997E+02  0.45594000000E+02  0.51100000000E-03 0.  1.
         11   -1    0    0    0    0 -0.00000000000E+00 -0.00000000000E+00 -0.45593999997E+02  0.45594000000E+02  0.51100000000E-03 0. -1.
    9900012    2    1    2    0    0  0.86306391161E+01 -0.35689062482E+02 -0.23139274709E+02  0.47787272513E+02  0.20000006694E+02 0.  0.
         12    1    1    2    0    0 -0.86306391161E+01  0.35689062482E+02  0.23139274709E+02  0.43400727487E+02  0.00000000000E+00 0. -1.
         11    1    3    3    0    0  0.28444211526E+01  0.18875563159E+01 -0.27681425419E+01  0.43950214940E+01  0.51100000000E-03 0. -1.
        -11    1    3    3    0    0  0.45264781642E+01 -0.16395638162E+02 -0.76263037407E+01  0.18640452364E+02  0.51100000000E-03 0.  1.
        -12    1    3    3    0    0  0.12597397993E+01 -0.21180980635E+02 -0.12744828427E+02  0.24751798655E+02  0.00000000000E+00 0.  1.
</event>
<event>
 7    1  0.1736465E-010  0.4778727E+02  0.7816164E-02  0.1312668E+00
        -11   -1    0    0    0    0  0.00000000000E+00  0.00000000000E+00  0.45593999997E+02  0.45594000000E+02  0.51100000000E-03 0.  1.
         11   -1    0    0    0    0 -0.00000000000E+00 -0.00000000000E+00 -0.45593999997E+02  0.45594000000E+02  0.51100000000E-03 0. -1.
    9900012    2    1    2    0    0  0.24305270013E+02 -0.33025898447E+02  0.14218542142E+02  0.47787273516E+02  0.20000011271E+02 0.  0.
         12    1    1    2    0    0 -0.24305270013E+02  0.33025898447E+02 -0.14218542142E+02  0.43400726484E+02  0.00000000000E+00 0. -1.
         11    1    3    3    0    0  0.13121343207E+02 -0.19263094033E+02  0.52970352968E+01  0.23901778647E+02  0.51100000000E-03 0. -1.
        -11    1    3    3    0    0  0.12012697450E+02 -0.67290151717E+01  0.95780180317E+01  0.16772685381E+02  0.51100000000E-03 0.  1.
         12    1    3    3    0    0 -0.82877064356E+00 -0.70337892426E+01 -0.65651118655E+00  0.71128094890E+01  0.00000000000E+00 0. -1.
</event>
<event>
 7    1  0.1736465E-010  0.4778727E+02  0.7816164E-02  0.1312668E+00
        -11   -1    0    0    0    0  0.00000000000E+00  0.00000000000E+00  0.45593999997E+02  0.45594000000E+02  0.51100000000E-03 0.  1.
         11   -1    0    0    0    0 -0.00000000000E+00 -0.00000000000E+00 -0.45593999997E+02  0.45594000000E+02  0.51100000000E-03 0. -1.
    9900012    2    1    2    0    0  0.42492088891E+02  0.87797152450E+01 -0.98099139789E+00  0.47787270027E+02  0.19999995360E+02 0.  0.
         12    1    1    2    0    0 -0.42492088891E+02 -0.87797152450E+01  0.98099139789E+00  0.43400729973E+02  0.00000000000E+00 0. -1.
         11    1    3    3    0    0  0.12017493556E+02  0.50538347759E+01 -0.39920907134E+01  0.13634448498E+02  0.51100000000E-03 0. -1.
        -11    1    3    3    0    0  0.96711215824E+01  0.35121432992E+01  0.76695599791E+01  0.12833078109E+02  0.51100000000E-03 0.  1.
         12    1    3    3    0    0  0.20803473752E+02  0.21373717001E+00 -0.46584606636E+01  0.21319743420E+02  0.00000000000E+00 0. -1.
</event>
<event>
 7    1  0.1736465E-010  0.4778727E+02  0.7816164E-02  0.1312668E+00
        -11   -1    0    0    0    0  0.00000000000E+00  0.00000000000E+00  0.45593999997E+02  0.45594000000E+02  0.51100000000E-03 0.  1.
         11   -1    0    0    0    0 -0.00000000000E+00 -0.00000000000E+00 -0.45593999997E+02  0.45594000000E+02  0.51100000000E-03 0. -1.
    9900012    2    1    2    0    0 -0.39085551847E+02  0.18262008992E+02  0.47372878961E+01  0.47787271524E+02  0.20000002186E+02 0.  0.
         12    1    1    2    0    0  0.39085551847E+02 -0.18262008992E+02 -0.47372878961E+01  0.43400728476E+02  0.00000000000E+00 0. -1.
         11    1    3    3    0    0 -0.11537426767E+02 -0.31355426615E+00  0.77513457317E+01  0.13903017427E+02  0.51100000000E-03 0. -1.
        -11    1    3    3    0    0 -0.72873916818E+01  0.82095495518E+01 -0.52377212366E+00  0.10989864370E+02  0.51100000000E-03 0.  1.
        -12    1    3    3    0    0 -0.20260733399E+02  0.10366013707E+02 -0.24902857120E+01  0.22894389727E+02  0.00000000000E+00 0.  1.
</event>
<event>
 7    1  0.1736465E-010  0.4778727E+02  0.7816164E-02  0.1312668E+00
        -11   -1    0    0    0    0  0.00000000000E+00  0.00000000000E+00  0.45593999997E+02  0.45594000000E+02  0.51100000000E-03 0.  1.
         11   -1    0    0    0    0 -0.00000000000E+00 -0.00000000000E+00 -0.45593999997E+02  0.45594000000E+02  0.51100000000E-03 0. -1.
    9900012    2    1    2    0    0 -0.30797486384E+01 -0.22375419833E+01  0.43233458339E+02  0.47787269986E+02  0.19999995174E+02 0.  0.
         12    1    1    2    0    0  0.30797486384E+01  0.22375419833E+01 -0.43233458339E+02  0.43400730014E+02  0.00000000000E+00 0. -1.
         11    1    3    3    0    0 -0.39869444598E+01 -0.17507559643E+01  0.11915524480E+02  0.12686236497E+02  0.51100000000E-03 0. -1.
        -11    1    3    3    0    0 -0.40911978808E+01 -0.47965399458E+01  0.25612371396E+02  0.26376850918E+02  0.51100000000E-03 0.  1.
        -12    1    3    3    0    0  0.49983937022E+01  0.43097539269E+01  0.57055624634E+01  0.87241825712E+01  0.00000000000E+00 0.  1.
</event>
<event>
 7    1  0.1736465E-010  0.4778727E+02  0.7816164E-02  0.1312668E+00
        -11   -1    0    0    0    0  0.00000000000E+00  0.00000000000E+00  0.45593999997E+02  0.45594000000E+02  0.51100000000E-03 0.  1.
         11   -1    0    0    0    0 -0.00000000000E+00 -0.00000000000E+00 -0.45593999997E+02  0.45594000000E+02  0.51100000000E-03 0. -1.
    9900012    2    1    2    0    0 -0.34361105634E+02  0.18698140399E+02  0.18796736923E+02  0.47787270125E+02  0.19999995806E+02 0.  0.
         12    1    1    2    0    0  0.34361105634E+02 -0.18698140399E+02 -0.18796736923E+02  0.43400729875E+02  0.00000000000E+00 0. -1.
         11    1    3    3    0    0 -0.65985176408E+01 -0.72116321787E+00  0.16277978770E+01  0.68344888347E+01  0.51100000000E-03 0. -1.
        -11    1    3    3    0    0 -0.20129413154E+02  0.13250032019E+02  0.19341501652E+02  0.30900652239E+02  0.51100000000E-03 0.  1.
        -12    1    3    3    0    0 -0.76331748393E+01  0.61692715980E+01 -0.21725626052E+01  0.10052129051E+02  0.00000000000E+00 0.  1.
</event>
<event>
 7    1  0.1736465E-010  0.4778727E+02  0.7816164E-02  0.1312668E+00
        -11   -1    0    0    0    0  0.00000000000E+00  0.00000000000E+00  0.45593999997E+02  0.45594000000E+02  0.51100000000E-03 0. -1.
         11   -1    0    0    0    0 -0.00000000000E+00 -0.00000000000E+00 -0.45593999997E+02  0.45594000000E+02  0.51100000000E-03 0.  1.
    9900012    2    1    2    0    0  0.30988836911E+02 -0.27656970998E+02 -0.12585997922E+02  0.47787269573E+02  0.19999993292E+02 0.  0.
         12    1    1    2    0    0 -0.30988836911E+02  0.27656970998E+02  0.12585997922E+02  0.43400730427E+02  0.00000000000E+00 0. -1.
         11    1    3    3    0    0  0.73998516074E+01 -0.71557945119E+01 -0.33585459328E+00  0.10299320243E+02  0.51100000000E-03 0. -1.
        -11    1    3    3    0    0  0.20109189719E+02 -0.12858013058E+02 -0.15959397333E+01  0.23921852664E+02  0.51100000000E-03 0.  1.
         12    1    3    3    0    0  0.34797955840E+01 -0.76431634279E+01 -0.10654203596E+02  0.13566096666E+02  0.00000000000E+00 0. -1.
</event>
<event>
 7    1  0.1736465E-010  0.4778727E+02  0.7816164E-02  0.1312668E+00
        -11   -1    0    0    0    0  0.00000000000E+00  0.00000000000E+00  0.45593999997E+02  0.45594000000E+02  0.51100000000E-03 0.  1.
         11   -1    0    0    0    0 -0.00000000000E+00 -0.00000000000E+00 -0.45593999997E+02  0.45594000000E+02  0.51100000000E-03 0. -1.
    9900012    2    1    2    0    0 -0.80648192051E+01 -0.10711106419E+02  0.41277768657E+02  0.47787270803E+02  0.19999998898E+02 0.  0.
         12    1    1    2    0    0  0.80648192051E+01  0.10711106419E+02 -0.41277768657E+02  0.43400729197E+02  0.00000000000E+00 0. -1.
         11    1    3    3    0    0 -0.44230735353E+00 -0.12245058901E+01  0.23000852884E+02  0.23037670979E+02  0.51100000000E-03 0. -1.
        -11    1    3    3    0    0 -0.72560864918E+01 -0.94085180718E+01  0.19849053390E+02  0.23133437363E+02  0.51100000000E-03 0.  1.
         12    1    3    3    0    0 -0.36642535982E+00 -0.78082457003E-01 -0.15721376168E+01  0.16161624610E+01  0.00000000000E+00 0. -1.
</event>
<event>
 7    1  0.1736465E-010  0.4778727E+02  0.7816164E-02  0.1312668E+00
        -11   -1    0    0    0    0  0.00000000000E+00  0.00000000000E+00  0.45593999997E+02  0.45594000000E+02  0.51100000000E-03 0.  1.
         11   -1    0    0    0    0 -0.00000000000E+00 -0.00000000000E+00 -0.45593999997E+02  0.45594000000E+02  0.51100000000E-03 0. -1.
    9900012    2    1    2    0    0  0.22284724259E+02  0.99094119505E+01  0.35900112304E+02  0.47787269085E+02  0.19999991067E+02 0.  0.
         12    1    1    2    0    0 -0.22284724259E+02 -0.99094119505E+01 -0.35900112304E+02  0.43400730915E+02  0.00000000000E+00 0. -1.
         11    1    3    3    0    0  0.21705096479E+01 -0.11859880664E+00  0.10174954080E+02  0.10404559991E+02  0.51100000000E-03 0. -1.
        -11    1    3    3    0    0  0.53364684750E+01  0.36633434208E+01 -0.63073964483E+00  0.65035231655E+01  0.51100000000E-03 0.  1.
        -12    1    3    3    0    0  0.14777746136E+02  0.63646673363E+01  0.26355897869E+02  0.30879185929E+02  0.00000000000E+00 0.  1.
</event>
<event>
 7    1  0.1736465E-010  0.4778727E+02  0.7816164E-02  0.1312668E+00
        -11   -1    0    0    0    0  0.00000000000E+00  0.00000000000E+00  0.45593999997E+02  0.45594000000E+02  0.51100000000E-03 0. -1.
         11   -1    0    0    0    0 -0.00000000000E+00 -0.00000000000E+00 -0.45593999997E+02  0.45594000000E+02  0.51100000000E-03 0.  1.
    9900012    2    1    2    0    0 -0.41459625674E+02  0.12687832470E+01 -0.12771567898E+02  0.47787270531E+02  0.19999997657E+02 0.  0.
         12    1    1    2    0    0  0.41459625674E+02 -0.12687832470E+01  0.12771567898E+02  0.43400729469E+02  0.00000000000E+00 0. -1.
         11    1    3    3    0    0 -0.24086844793E+02  0.73544436564E+01 -0.68315885035E+01  0.26094722365E+02  0.51100000000E-03 0. -1.
        -11    1    3    3    0    0 -0.26468801425E+01 -0.34339202875E+00  0.26008508355E+01  0.37267033560E+01  0.51100000000E-03 0.  1.
        -12    1    3    3    0    0 -0.14725900738E+02 -0.57422683807E+01 -0.85408302296E+01  0.17965844810E+02  0.00000000000E+00 0.  1.
</event>
<event>
 7    1  0.1736465E-010  0.4778727E+02  0.7816164E-02  0.1312668E+00
        -11   -1    0    0    0    0  0.00000000000E+00  0.00000000000E+00  0.45593999997E+02  0.45594000000E+02  0.51100000000E-03 0.  1.
         11   -1    0    0    0    0 -0.00000000000E+00 -0.00000000000E+00 -0.45593999997E+02  0.45594000000E+02  0.51100000000E-03 0. -1.
    9900012    2    1    2    0    0 -0.34547767265E+02  0.25517742813E+02 -0.62385557969E+01  0.47787274203E+02  0.20000014400E+02 0.  0.
         12    1    1    2    0    0  0.34547767265E+02 -0.25517742813E+02  0.62385557969E+01  0.43400725797E+02  0.00000000000E+00 0. -1.
         11    1    3    3    0    0 -0.96766389770E+01  0.54588600977E+01  0.44128152729E+01  0.11954473403E+02  0.51100000000E-03 0.  1.
        -11    1    3    3    0    0 -0.25536265923E+02  0.17764883833E+02 -0.77196444498E+01  0.32051285241E+02  0.51100000000E-03 0. -1.
         12    1    3    3    0    0  0.66513763492E+00  0.22939988816E+01 -0.29317266200E+01  0.37815155581E+01  0.00000000000E+00 0. -1.
</event>
<event>
 7    1  0.1736465E-010  0.4778728E+02  0.7816164E-02  0.1312668E+00
        -11   -1    0    0    0    0  0.00000000000E+00  0.00000000000E+00  0.45593999997E+02  0.45594000000E+02  0.51100000000E-03 0. -1.
         11   -1    0    0    0    0 -0.00000000000E+00 -0.00000000000E+00 -0.45593999997E+02  0.45594000000E+02  0.51100000000E-03 0.  1.
    9900012    2    1    2    0    0  0.70176010700E+01  0.33377041435E+02 -0.26839316317E+02  0.47787279729E+02  0.20000039595E+02 0.  0.
         12    1    1    2    0    0 -0.70176010700E+01 -0.33377041435E+02  0.26839316317E+02  0.43400720271E+02  0.00000000000E+00 0. -1.
         11    1    3    3    0    0 -0.85675809826E+00  0.20883898267E+02 -0.61171370398E+01  0.21778214047E+02  0.51100000000E-03 0. -1.
        -11    1    3    3    0    0  0.14380990521E+01  0.68936007600E+01 -0.76336264018E+01  0.10385668617E+02  0.51100000000E-03 0.  1.
        -12    1    3    3    0    0  0.64362601162E+01  0.55995424079E+01 -0.13088552875E+02  0.15623397064E+02  0.00000000000E+00 0.  1.
</event>
<event>
 7    1  0.1736465E-010  0.4778726E+02  0.7816164E-02  0.1312668E+00
        -11   -1    0    0    0    0  0.00000000000E+00  0.00000000000E+00  0.45593999997E+02  0.45594000000E+02  0.51100000000E-03 0.  1.
         11   -1    0    0    0    0 -0.00000000000E+00 -0.00000000000E+00 -0.45593999997E+02  0.45594000000E+02  0.51100000000E-03 0. -1.
    9900012    2    1    2    0    0  0.11176563798E+02 -0.35081878306E+02  0.22977602707E+02  0.47787262795E+02  0.19999962387E+02 0.  0.
         12    1    1    2    0    0 -0.11176563798E+02  0.35081878306E+02 -0.22977602707E+02  0.43400737205E+02  0.00000000000E+00 0. -1.
         11    1    3    3    0    0 -0.11040200780E+01  0.59373146058E+00  0.59616411744E+00  0.13880883603E+01  0.51100000000E-03 0. -1.
        -11    1    3    3    0    0  0.54585781700E+01 -0.30212536368E+02  0.12344876523E+02  0.33090624141E+02  0.51100000000E-03 0.  1.
         12    1    3    3    0    0  0.68220057057E+01 -0.54630733988E+01  0.10036562066E+02  0.13308550294E+02  0.00000000000E+00 0. -1.
</event>
<event>
 7    1  0.1736465E-010  0.4778727E+02  0.7816164E-02  0.1312668E+00
        -11   -1    0    0    0    0  0.00000000000E+00  0.00000000000E+00  0.45593999997E+02  0.45594000000E+02  0.51100000000E-03 0. -1.
         11   -1    0    0    0    0 -0.00000000000E+00 -0.00000000000E+00 -0.45593999997E+02  0.45594000000E+02  0.51100000000E-03 0.  1.
    9900012    2    1    2    0    0  0.74361576215E+01  0.39060194009E+02 -0.17396212311E+02  0.47787269603E+02  0.19999993429E+02 0.  0.
         12    1    1    2    0    0 -0.74361576215E+01 -0.39060194009E+02  0.17396212311E+02  0.43400730397E+02  0.00000000000E+00 0. -1.
         11    1    3    3    0    0  0.11410223223E+02  0.26605738885E+02 -0.18530450273E+02  0.34372025300E+02  0.51100000000E-03 0. -1.
        -11    1    3    3    0    0 -0.43238647700E+00  0.59098349093E+01  0.52900646272E+00  0.59491978299E+01  0.51100000000E-03 0.  1.
        -12    1    3    3    0    0 -0.35416791248E+01  0.65446202148E+01  0.60523149937E+00  0.74660464736E+01  0.00000000000E+00 0.  1.
</event>
<event>
 7    1  0.1736465E-010  0.4778727E+02  0.7816164E-02  0.1312668E+00
        -11   -1    0    0    0    0  0.00000000000E+00  0.00000000000E+00  0.45593999997E+02  0.45594000000E+02  0.51100000000E-03 0.  1.
         11   -1    0    0    0    0 -0.00000000000E+00 -0.00000000000E+00 -0.45593999997E+02  0.45594000000E+02  0.51100000000E-03 0. -1.
    9900012    2    1    2    0    0  0.45177505403E+01 -0.18400907371E+02  0.39046385543E+02  0.47787266297E+02  0.19999978354E+02 0.  0.
         12    1    1    2    0    0 -0.45177505403E+01  0.18400907371E+02 -0.39046385543E+02  0.43400733703E+02  0.00000000000E+00 0. -1.
         11    1    3    3    0    0  0.67584961933E+01 -0.92435203302E+01  0.19815695816E+02  0.22886278418E+02  0.51100000000E-03 0. -1.
        -11    1    3    3    0    0 -0.46951049162E+01 -0.58341016860E+01  0.19370060016E+02  0.20767281429E+02  0.51100000000E-03 0.  1.
         12    1    3    3    0    0  0.24543592631E+01 -0.33232853547E+01 -0.13937028914E+00  0.41337064505E+01  0.00000000000E+00 0. -1.
</event>
<event>
 7    1  0.1736465E-010  0.4778728E+02  0.7816164E-02  0.1312668E+00
        -11   -1    0    0    0    0  0.00000000000E+00  0.00000000000E+00  0.45593999997E+02  0.45594000000E+02  0.51100000000E-03 0.  1.
         11   -1    0    0    0    0 -0.00000000000E+00 -0.00000000000E+00 -0.45593999997E+02  0.45594000000E+02  0.51100000000E-03 0. -1.
    9900012    2    1    2    0    0 -0.19319343948E+02  0.94088268894E+01  0.37707553863E+02  0.47787277745E+02  0.20000030548E+02 0.  0.
         12    1    1    2    0    0  0.19319343948E+02 -0.94088268894E+01 -0.37707553863E+02  0.43400722255E+02  0.00000000000E+00 0. -1.
         11    1    3    3    0    0 -0.11767825682E+02  0.27680700731E+01  0.75809547645E+01  0.14269366090E+02  0.51100000000E-03 0. -1.
        -11    1    3    3    0    0 -0.36037349531E+01  0.87553178573E+01  0.14963725367E+02  0.17707500487E+02  0.51100000000E-03 0.  1.
        -12    1    3    3    0    0 -0.39477833122E+01 -0.21145610410E+01  0.15162873731E+02  0.15810411167E+02  0.00000000000E+00 0.  1.
</event>
<event>
 7    1  0.1736465E-010  0.4778727E+02  0.7816164E-02  0.1312668E+00
        -11   -1    0    0    0    0  0.00000000000E+00  0.00000000000E+00  0.45593999997E+02  0.45594000000E+02  0.51100000000E-03 0. -1.
         11   -1    0    0    0    0 -0.00000000000E+00 -0.00000000000E+00 -0.45593999997E+02  0.45594000000E+02  0.51100000000E-03 0.  1.
    9900012    2    1    2    0    0  0.40522764478E+01 -0.27372442434E+02 -0.33435791469E+02  0.47787266131E+02  0.19999977596E+02 0.  0.
         12    1    1    2    0    0 -0.40522764478E+01  0.27372442434E+02  0.33435791469E+02  0.43400733869E+02  0.00000000000E+00 0. -1.
         11    1    3    3    0    0 -0.24561500446E+01 -0.18531212921E+02 -0.94204177660E+01  0.20932816258E+02  0.51100000000E-03 0. -1.
        -11    1    3    3    0    0  0.37504412050E+01 -0.75564853963E+01 -0.13601515847E+02  0.16005233968E+02  0.51100000000E-03 0.  1.
        -12    1    3    3    0    0  0.27579852874E+01 -0.12847441172E+01 -0.10413857856E+02  0.10849215904E+02  0.00000000000E+00 0.  1.
</event>
<event>
 7    1  0.1736465E-010  0.4778728E+02  0.7816164E-02  0.1312668E+00
        -11   -1    0    0    0    0  0.00000000000E+00  0.00000000000E+00  0.45593999997E+02  0.45594000000E+02  0.51100000000E-03 0. -1.
         11   -1    0    0    0    0 -0.00000000000E+00 -0.00000000000E+00 -0.45593999997E+02  0.45594000000E+02  0.51100000000E-03 0.  1.
    9900012    2    1    2    0    0 -0.11744233425E+02  0.39517551602E+02 -0.13566814251E+02  0.47787281661E+02  0.20000048406E+02 0.  0.
         12    1    1    2    0    0  0.11744233425E+02 -0.39517551602E+02  0.13566814251E+02  0.43400718339E+02  0.00000000000E+00 0. -1.
         11    1    3    3    0    0 -0.24716927002E+01  0.12799915170E+01  0.12898496340E+01  0.30677932504E+01  0.51100000000E-03 0. -1.
        -11    1    3    3    0    0 -0.12401760164E+02  0.36569872699E+02 -0.13966011182E+02  0.41063471760E+02  0.51100000000E-03 0.  1.
        -12    1    3    3    0    0  0.31292194387E+01  0.16676873864E+01 -0.89065270333E+00  0.36560166510E+01  0.00000000000E+00 0.  1.
</event>
<event>
 7    1  0.1736465E-010  0.4778728E+02  0.7816164E-02  0.1312668E+00
        -11   -1    0    0    0    0  0.00000000000E+00  0.00000000000E+00  0.45593999997E+02  0.45594000000E+02  0.51100000000E-03 0.  1.
         11   -1    0    0    0    0 -0.00000000000E+00 -0.00000000000E+00 -0.45593999997E+02  0.45594000000E+02  0.51100000000E-03 0. -1.
    9900012    2    1    2    0    0 -0.39500989766E+02  0.59194762398E+01  0.16978043879E+02  0.47787281511E+02  0.20000047721E+02 0.  0.
         12    1    1    2    0    0  0.39500989766E+02 -0.59194762398E+01 -0.16978043879E+02  0.43400718489E+02  0.00000000000E+00 0. -1.
         11    1    3    3    0    0 -0.14261348747E+02  0.59870979940E+00  0.11135693148E+01  0.14317281809E+02  0.51100000000E-03 0. -1.
        -11    1    3    3    0    0 -0.23889220116E+02  0.26439912887E+01  0.84582422256E+01  0.25479940924E+02  0.51100000000E-03 0.  1.
         12    1    3    3    0    0 -0.13504209027E+01  0.26767751517E+01  0.74062323386E+01  0.79900587783E+01  0.00000000000E+00 0. -1.
</event>
<event>
 7    1  0.1736465E-010  0.4778728E+02  0.7816164E-02  0.1312668E+00
        -11   -1    0    0    0    0  0.00000000000E+00  0.00000000000E+00  0.45593999997E+02  0.45594000000E+02  0.51100000000E-03 0. -1.
         11   -1    0    0    0    0 -0.00000000000E+00 -0.00000000000E+00 -0.45593999997E+02  0.45594000000E+02  0.51100000000E-03 0.  1.
    9900012    2    1    2    0    0 -0.11441034739E+02  0.27211513800E+02 -0.31816011151E+02  0.47787281979E+02  0.20000049856E+02 0.  0.
         12    1    1    2    0    0  0.11441034739E+02 -0.27211513800E+02  0.31816011151E+02  0.43400718021E+02  0.00000000000E+00 0. -1.
         11    1    3    3    0    0 -0.56417984419E+01  0.86095165647E+01 -0.93579374876E+01  0.13911314080E+02  0.51100000000E-03 0. -1.
        -11    1    3    3    0    0 -0.75483891333E+01  0.20172971453E+02 -0.22949706237E+02  0.31474052367E+02  0.51100000000E-03 0.  1.
         12    1    3    3    0    0  0.17491528366E+01 -0.15709742179E+01  0.49163257375E+00  0.24019155328E+01  0.00000000000E+00 0. -1.
</event>
<event>
 7    1  0.1736465E-010  0.4778727E+02  0.7816164E-02  0.1312668E+00
        -11   -1    0    0    0    0  0.00000000000E+00  0.00000000000E+00  0.45593999997E+02  0.45594000000E+02  0.51100000000E-03 0.  1.
         11   -1    0    0    0    0 -0.00000000000E+00 -0.00000000000E+00 -0.45593999997E+02  0.45594000000E+02  0.51100000000E-03 0. -1.
    9900012    2    1    2    0    0 -0.10383923681E+02 -0.12626864926E+02  0.40203977735E+02  0.47787269424E+02  0.19999992610E+02 0.  0.
         12    1    1    2    0    0  0.10383923681E+02  0.12626864926E+02 -0.40203977735E+02  0.43400730576E+02  0.00000000000E+00 0. -1.
         11    1    3    3    0    0 -0.38467497945E+01 -0.10086749645E+02  0.78842544900E+01  0.13367926972E+02  0.51100000000E-03 0. -1.
        -11    1    3    3    0    0  0.18834201575E+01 -0.85797563100E+00  0.14405433862E+02  0.14553347337E+02  0.51100000000E-03 0.  1.
        -12    1    3    3    0    0 -0.84205940442E+01 -0.16821396495E+01  0.17914289382E+02  0.19865995116E+02  0.00000000000E+00 0.  1.
</event>
<event>
 7    1  0.1736465E-010  0.4778727E+02  0.7816164E-02  0.1312668E+00
        -11   -1    0    0    0    0  0.00000000000E+00  0.00000000000E+00  0.45593999997E+02  0.45594000000E+02  0.51100000000E-03 0.  1.
         11   -1    0    0    0    0 -0.00000000000E+00 -0.00000000000E+00 -0.45593999997E+02  0.45594000000E+02  0.51100000000E-03 0. -1.
    9900012    2    1    2    0    0  0.21975016755E+02  0.12832060160E+02  0.35157647068E+02  0.47787271012E+02  0.19999999852E+02 0.  0.
         12    1    1    2    0    0 -0.21975016755E+02 -0.12832060160E+02 -0.35157647068E+02  0.43400728988E+02  0.00000000000E+00 0. -1.
         11    1    3    3    0    0  0.91400710525E+01 -0.16899077485E+01  0.28092343149E+01  0.97102257822E+01  0.51100000000E-03 0. -1.
        -11    1    3    3    0    0  0.52067207144E+01  0.73545282546E+01  0.10401961713E+02  0.13762261230E+02  0.51100000000E-03 0.  1.
         12    1    3    3    0    0  0.76282249879E+01  0.71674396534E+01  0.21946451041E+02  0.24314783999E+02  0.00000000000E+00 0. -1.
</event>
<event>
 7    1  0.1736465E-010  0.4778729E+02  0.7816164E-02  0.1312668E+00
        -11   -1    0    0    0    0  0.00000000000E+00  0.00000000000E+00  0.45593999997E+02  0.45594000000E+02  0.51100000000E-03 0.  1.
         11   -1    0    0    0    0 -0.00000000000E+00 -0.00000000000E+00 -0.45593999997E+02  0.45594000000E+02  0.51100000000E-03 0. -1.
    9900012    2    1    2    0    0 -0.37906968796E+02  0.15578055278E+02 -0.14283118064E+02  0.47787290891E+02  0.20000090487E+02 0.  0.
         12    1    1    2    0    0  0.37906968796E+02 -0.15578055278E+02  0.14283118064E+02  0.43400709109E+02  0.00000000000E+00 0. -1.
         11    1    3    3    0    0 -0.10617736007E+02  0.89929960153E+01 -0.51596724882E+01  0.14840233007E+02  0.51100000000E-03 0. -1.
        -11    1    3    3    0    0 -0.17784980285E+01  0.56999591702E+01 -0.30657299768E+01  0.67120257993E+01  0.51100000000E-03 0.  1.
         12    1    3    3    0    0 -0.25510734761E+02  0.88510009206E+00 -0.60577155986E+01  0.26235032085E+02  0.00000000000E+00 0. -1.
</event>
<event>
 7    1  0.1736465E-010  0.4778726E+02  0.7816164E-02  0.1312668E+00
        -11   -1    0    0    0    0  0.00000000000E+00  0.00000000000E+00  0.45593999997E+02  0.45594000000E+02  0.51100000000E-03 0.  1.
         11   -1    0    0    0    0 -0.00000000000E+00 -0.00000000000E+00 -0.45593999997E+02  0.45594000000E+02  0.51100000000E-03 0. -1.
    9900012    2    1    2    0    0 -0.10810493014E+02 -0.33378658997E+02  0.25546481629E+02  0.47787258540E+02  0.19999942987E+02 0.  0.
         12    1    1    2    0    0  0.10810493014E+02  0.33378658997E+02 -0.25546481629E+02  0.43400741460E+02  0.00000000000E+00 0. -1.
         11    1    3    3    0    0 -0.24390022711E+01 -0.17057462318E+01  0.72522258822E+01  0.78392016681E+01  0.51100000000E-03 0. -1.
        -11    1    3    3    0    0  0.38817770369E+00 -0.11927132203E+02  0.47094725808E+00  0.11942736541E+02  0.51100000000E-03 0.  1.
         12    1    3    3    0    0 -0.87596684468E+01 -0.19745780562E+02  0.17823308489E+02  0.28005320330E+02  0.00000000000E+00 0. -1.
</event>
<event>
 7    1  0.1736465E-010  0.4778726E+02  0.7816164E-02  0.1312668E+00
        -11   -1    0    0    0    0  0.00000000000E+00  0.00000000000E+00  0.45593999997E+02  0.45594000000E+02  0.51100000000E-03 0. -1.
         11   -1    0    0    0    0 -0.00000000000E+00 -0.00000000000E+00 -0.45593999997E+02  0.45594000000E+02  0.51100000000E-03 0.  1.
    9900012    2    1    2    0    0  0.30356263416E+02  0.14481025447E+02 -0.27430306121E+02  0.47787256683E+02  0.19999934522E+02 0.  0.
         12    1    1    2    0    0 -0.30356263416E+02 -0.14481025447E+02  0.27430306121E+02  0.43400743317E+02  0.00000000000E+00 0. -1.
         11    1    3    3    0    0  0.11711630883E+02 -0.87568361793E+00 -0.18726316877E+02  0.22104390148E+02  0.51100000000E-03 0. -1.
        -11    1    3    3    0    0  0.53325172071E+01  0.44956556394E+01 -0.22220470501E+01  0.73201197221E+01  0.51100000000E-03 0.  1.
         12    1    3    3    0    0  0.13312115325E+02  0.10861053425E+02 -0.64819421933E+01  0.18362746814E+02  0.00000000000E+00 0. -1.
</event>
<event>
 7    1  0.1736465E-010  0.4778727E+02  0.7816164E-02  0.1312668E+00
        -11   -1    0    0    0    0  0.00000000000E+00  0.00000000000E+00  0.45593999997E+02  0.45594000000E+02  0.51100000000E-03 0.  1.
         11   -1    0    0    0    0 -0.00000000000E+00 -0.00000000000E+00 -0.45593999997E+02  0.45594000000E+02  0.51100000000E-03 0. -1.
    9900012    2    1    2    0    0 -0.67104856222E+01  0.40224332634E+02 -0.14852468219E+02  0.47787269991E+02  0.19999995196E+02 0.  0.
         12    1    1    2    0    0  0.67104856222E+01 -0.40224332634E+02  0.14852468219E+02  0.43400730009E+02  0.00000000000E+00 0. -1.
         11    1    3    3    0    0 -0.23969912369E+01  0.11849448870E+02 -0.82812946924E+01  0.14653833886E+02  0.51100000000E-03 0. -1.
        -11    1    3    3    0    0 -0.22529052495E+01  0.27013947313E+02 -0.10012526519E+02  0.28897744187E+02  0.51100000000E-03 0.  1.
         12    1    3    3    0    0 -0.20605891358E+01  0.13609364506E+01  0.34413529925E+01  0.42356919184E+01  0.00000000000E+00 0. -1.
</event>
<event>
 7    1  0.1736465E-010  0.4778727E+02  0.7816164E-02  0.1312668E+00
        -11   -1    0    0    0    0  0.00000000000E+00  0.00000000000E+00  0.45593999997E+02  0.45594000000E+02  0.51100000000E-03 0.  1.
         11   -1    0    0    0    0 -0.00000000000E+00 -0.00000000000E+00 -0.45593999997E+02  0.45594000000E+02  0.51100000000E-03 0. -1.
    9900012    2    1    2    0    0  0.50762951644E+01  0.40441699815E+02  0.14910516424E+02  0.47787270091E+02  0.19999995655E+02 0.  0.
         12    1    1    2    0    0 -0.50762951644E+01 -0.40441699815E+02 -0.14910516424E+02  0.43400729909E+02  0.00000000000E+00 0. -1.
         11    1    3    3    0    0  0.23768487594E+01  0.18744032952E+02  0.50662624858E+01  0.19561574506E+02  0.51100000000E-03 0. -1.
        -11    1    3    3    0    0 -0.25414336201E+01  0.19350639732E+02  0.10948573934E+02  0.22378056536E+02  0.51100000000E-03 0.  1.
         12    1    3    3    0    0  0.52408800251E+01  0.23470271316E+01 -0.11043199960E+01  0.58476390490E+01  0.00000000000E+00 0. -1.
</event>
<event>
 7    1  0.1736465E-010  0.4778725E+02  0.7816164E-02  0.1312668E+00
        -11   -1    0    0    0    0  0.00000000000E+00  0.00000000000E+00  0.45593999997E+02  0.45594000000E+02  0.51100000000E-03 0. -1.
         11   -1    0    0    0    0 -0.00000000000E+00 -0.00000000000E+00 -0.45593999997E+02  0.45594000000E+02  0.51100000000E-03 0.  1.
    9900012    2    1    2    0    0  0.15591731000E+02  0.31876186909E+02 -0.24988627194E+02  0.47787252812E+02  0.19999916871E+02 0.  0.
         12    1    1    2    0    0 -0.15591731000E+02 -0.31876186909E+02  0.24988627194E+02  0.43400747188E+02  0.00000000000E+00 0. -1.
         11    1    3    3    0    0  0.50403428635E+01  0.39303061345E+01 -0.61692882033E+00  0.64212898956E+01  0.51100000000E-03 0. -1.
        -11    1    3    3    0    0  0.79193696656E+01  0.29324842818E+02 -0.22958443445E+02  0.38075621438E+02  0.51100000000E-03 0.  1.
         12    1    3    3    0    0  0.26320184713E+01 -0.13789620438E+01 -0.14132549286E+01  0.32903414784E+01  0.00000000000E+00 0. -1.
</event>
<event>
 7    1  0.1736465E-010  0.4778728E+02  0.7816164E-02  0.1312668E+00
        -11   -1    0    0    0    0  0.00000000000E+00  0.00000000000E+00  0.45593999997E+02  0.45594000000E+02  0.51100000000E-03 0.  1.
         11   -1    0    0    0    0 -0.00000000000E+00 -0.00000000000E+00 -0.45593999997E+02  0.45594000000E+02  0.51100000000E-03 0. -1.
    9900012    2    1    2    0    0 -0.15422176324E+02 -0.38734336127E+02 -0.12059437451E+02  0.47787281694E+02  0.20000048557E+02 0.  0.
         12    1    1    2    0    0  0.15422176324E+02  0.38734336127E+02  0.12059437451E+02  0.43400718306E+02  0.00000000000E+00 0. -1.
         11    1    3    3    0    0  0.18771787361E+01 -0.68919814617E+01  0.15161305780E+01  0.73021819114E+01  0.51100000000E-03 0. -1.
        -11    1    3    3    0    0 -0.88242660704E+00 -0.26601038265E+01 -0.52985371822E+01  0.59941075747E+01  0.51100000000E-03 0.  1.
        -12    1    3    3    0    0 -0.16416928453E+02 -0.29182250839E+02 -0.82770308471E+01  0.34490992208E+02  0.00000000000E+00 0.  1.
</event>
<event>
 7    1  0.1736465E-010  0.4778727E+02  0.7816164E-02  0.1312668E+00
        -11   -1    0    0    0    0  0.00000000000E+00  0.00000000000E+00  0.45593999997E+02  0.45594000000E+02  0.51100000000E-03 0.  1.
         11   -1    0    0    0    0 -0.00000000000E+00 -0.00000000000E+00 -0.45593999997E+02  0.45594000000E+02  0.51100000000E-03 0. -1.
    9900012    2    1    2    0    0  0.37159770308E+01  0.34859242530E+02  0.25586093373E+02  0.47787269025E+02  0.19999990795E+02 0.  0.
         12    1    1    2    0    0 -0.37159770308E+01 -0.34859242530E+02 -0.25586093373E+02  0.43400730975E+02  0.00000000000E+00 0. -1.
         11    1    3    3    0    0 -0.23313561253E+01  0.20729256576E+01 -0.41715716053E+00  0.31474215674E+01  0.51100000000E-03 0. -1.
        -11    1    3    3    0    0  0.90407367499E+01  0.12641840546E+02  0.14470363396E+02  0.21235406058E+02  0.51100000000E-03 0.  1.
        -12    1    3    3    0    0 -0.29934035938E+01  0.20144476326E+02  0.11532887137E+02  0.23404441400E+02  0.00000000000E+00 0.  1.
</event>
<event>
 7    1  0.1736465E-010  0.4778727E+02  0.7816164E-02  0.1312668E+00
        -11   -1    0    0    0    0  0.00000000000E+00  0.00000000000E+00  0.45593999997E+02  0.45594000000E+02  0.51100000000E-03 0. -1.
         11   -1    0    0    0    0 -0.00000000000E+00 -0.00000000000E+00 -0.45593999997E+02  0.45594000000E+02  0.51100000000E-03 0.  1.
    9900012    2    1    2    0    0 -0.13993366162E+02  0.40566936688E+02 -0.64909539813E+01  0.47787272675E+02  0.20000007433E+02 0.  0.
         12    1    1    2    0    0  0.13993366162E+02 -0.40566936688E+02  0.64909539813E+01  0.43400727325E+02  0.00000000000E+00 0. -1.
         11    1    3    3    0    0 -0.18886946196E+01  0.24469407790E+01  0.51244183348E+01  0.59845091756E+01  0.51100000000E-03 0. -1.
        -11    1    3    3    0    0 -0.53980018417E+01  0.12835402342E+02 -0.28384685736E+01  0.14210660832E+02  0.51100000000E-03 0.  1.
         12    1    3    3    0    0 -0.67066697002E+01  0.25284593567E+02 -0.87769037424E+01  0.27592102668E+02  0.00000000000E+00 0. -1.
</event>
<event>
 7    1  0.1736465E-010  0.4778728E+02  0.7816164E-02  0.1312668E+00
        -11   -1    0    0    0    0  0.00000000000E+00  0.00000000000E+00  0.45593999997E+02  0.45594000000E+02  0.51100000000E-03 0.  1.
         11   -1    0    0    0    0 -0.00000000000E+00 -0.00000000000E+00 -0.45593999997E+02  0.45594000000E+02  0.51100000000E-03 0. -1.
    9900012    2    1    2    0    0 -0.24868099326E+02 -0.29098907581E+02  0.20456145103E+02  0.47787278128E+02  0.20000032298E+02 0.  0.
         12    1    1    2    0    0  0.24868099326E+02  0.29098907581E+02 -0.20456145103E+02  0.43400721872E+02  0.00000000000E+00 0. -1.
         11    1    3    3    0    0 -0.81497344682E+01 -0.83954129683E+01  0.11455980394E+02  0.16374999782E+02  0.51100000000E-03 0. -1.
        -11    1    3    3    0    0 -0.94606936320E+01 -0.27657132149E+01 -0.47189817319E+00  0.98679573233E+01  0.51100000000E-03 0.  1.
        -12    1    3    3    0    0 -0.72576712257E+01 -0.17937781398E+02  0.94720628821E+01  0.21544321023E+02  0.00000000000E+00 0.  1.
</event>
<event>
 7    1  0.1736465E-010  0.4778727E+02  0.7816164E-02  0.1312668E+00
        -11   -1    0    0    0    0  0.00000000000E+00  0.00000000000E+00  0.45593999997E+02  0.45594000000E+02  0.51100000000E-03 0.  1.
         11   -1    0    0    0    0 -0.00000000000E+00 -0.00000000000E+00 -0.45593999997E+02  0.45594000000E+02  0.51100000000E-03 0. -1.
    9900012    2    1    2    0    0  0.16458393250E+02 -0.11479668571E+02  0.38483265362E+02  0.47787271760E+02  0.20000003262E+02 0.  0.
         12    1    1    2    0    0 -0.16458393250E+02  0.11479668571E+02 -0.38483265362E+02  0.43400728240E+02  0.00000000000E+00 0. -1.
         11    1    3    3    0    0 -0.16901079998E+01 -0.16333596371E+01  0.95853308957E+01  0.98692906228E+01  0.51100000000E-03 0. -1.
        -11    1    3    3    0    0  0.13194880521E+02 -0.10186173879E+02  0.28396368209E+02  0.32927446576E+02  0.51100000000E-03 0.  1.
         12    1    3    3    0    0  0.49536207283E+01  0.33986494489E+00  0.50156625695E+00  0.49905345616E+01  0.00000000000E+00 0. -1.
</event>
<event>
 7    1  0.1736465E-010  0.4778727E+02  0.7816164E-02  0.1312668E+00
        -11   -1    0    0    0    0  0.00000000000E+00  0.00000000000E+00  0.45593999997E+02  0.45594000000E+02  0.51100000000E-03 0. -1.
         11   -1    0    0    0    0 -0.00000000000E+00 -0.00000000000E+00 -0.45593999997E+02  0.45594000000E+02  0.51100000000E-03 0.  1.
    9900012    2    1    2    0    0  0.34266707473E+02 -0.24300963425E+02 -0.10903178429E+02  0.47787270003E+02  0.19999995253E+02 0.  0.
         12    1    1    2    0    0 -0.34266707473E+02  0.24300963425E+02  0.10903178429E+02  0.43400729997E+02  0.00000000000E+00 0. -1.
         11    1    3    3    0    0  0.57032706258E+01 -0.11924896275E+02  0.13231821664E+00  0.13219226731E+02  0.51100000000E-03 0. -1.
        -11    1    3    3    0    0  0.20779469216E+02 -0.12294842866E+02 -0.48530603305E+01  0.24627255162E+02  0.51100000000E-03 0.  1.
         12    1    3    3    0    0  0.77839676315E+01 -0.81224284368E-01 -0.61824363149E+01  0.99407881107E+01  0.00000000000E+00 0. -1.
</event>
<event>
 7    1  0.1736465E-010  0.4778727E+02  0.7816164E-02  0.1312668E+00
        -11   -1    0    0    0    0  0.00000000000E+00  0.00000000000E+00  0.45593999997E+02  0.45594000000E+02  0.51100000000E-03 0. -1.
         11   -1    0    0    0    0 -0.00000000000E+00 -0.00000000000E+00 -0.45593999997E+02  0.45594000000E+02  0.51100000000E-03 0.  1.
    9900012    2    1    2    0    0 -0.22650780518E+02  0.27697114755E+02 -0.24564923359E+02  0.47787268630E+02  0.19999988992E+02 0.  0.
         12    1    1    2    0    0  0.22650780518E+02 -0.27697114755E+02  0.24564923359E+02  0.43400731370E+02  0.00000000000E+00 0. -1.
         11    1    3    3    0    0 -0.11330216187E+02  0.37998919043E+00 -0.76380923762E+01  0.13669624942E+02  0.51100000000E-03 0. -1.
        -11    1    3    3    0    0 -0.40854936703E+01  0.11938667911E+02 -0.76246721496E+01  0.14743089082E+02  0.51100000000E-03 0.  1.
         12    1    3    3    0    0 -0.72350706600E+01  0.15378457653E+02 -0.93021588337E+01  0.19374554607E+02  0.00000000000E+00 0. -1.
</event>
<event>
 7    1  0.1736465E-010  0.4778727E+02  0.7816164E-02  0.1312668E+00
        -11   -1    0    0    0    0  0.00000000000E+00  0.00000000000E+00  0.45593999997E+02  0.45594000000E+02  0.51100000000E-03 0.  1.
         11   -1    0    0    0    0 -0.00000000000E+00 -0.00000000000E+00 -0.45593999997E+02  0.45594000000E+02  0.51100000000E-03 0. -1.
    9900012    2    1    2    0    0 -0.31779761559E+02  0.33577767317E+01  0.29366569052E+02  0.47787270891E+02  0.19999999299E+02 0.  0.
         12    1    1    2    0    0  0.31779761559E+02 -0.33577767317E+01 -0.29366569052E+02  0.43400729109E+02  0.00000000000E+00 0. -1.
         11    1    3    3    0    0 -0.18781241348E+02  0.28167598208E+01  0.17357044211E+02  0.25728119761E+02  0.51100000000E-03 0. -1.
        -11    1    3    3    0    0 -0.66808703331E+01  0.98726910355E+00  0.13896516623E+02  0.15450627922E+02  0.51100000000E-03 0.  1.
         12    1    3    3    0    0 -0.63176498781E+01 -0.44625219262E+00 -0.18869917810E+01  0.66085232075E+01  0.00000000000E+00 0. -1.
</event>
<event>
 7    1  0.1736465E-010  0.4778727E+02  0.7816164E-02  0.1312668E+00
        -11   -1    0    0    0    0  0.00000000000E+00  0.00000000000E+00  0.45593999997E+02  0.45594000000E+02  0.51100000000E-03 0.  1.
         11   -1    0    0    0    0 -0.00000000000E+00 -0.00000000000E+00 -0.45593999997E+02  0.45594000000E+02  0.51100000000E-03 0. -1.
    9900012    2    1    2    0    0 -0.38750423548E+02 -0.61654921702E+01  0.18547626233E+02  0.47787273535E+02  0.20000011355E+02 0.  0.
         12    1    1    2    0    0  0.38750423548E+02  0.61654921702E+01 -0.18547626233E+02  0.43400726465E+02  0.00000000000E+00 0. -1.
         11    1    3    3    0    0 -0.14271429324E+02 -0.28861225113E+01  0.11749424174E+02  0.18709686442E+02  0.51100000000E-03 0.  1.
        -11    1    3    3    0    0 -0.28526221452E+00  0.44193953448E+00 -0.27523510049E+01  0.28021636994E+01  0.51100000000E-03 0. -1.
         12    1    3    3    0    0 -0.24193732009E+02 -0.37213091934E+01  0.95505530646E+01  0.26275423393E+02  0.00000000000E+00 0. -1.
</event>
<event>
 7    1  0.1736465E-010  0.4778723E+02  0.7816164E-02  0.1312668E+00
        -11   -1    0    0    0    0  0.00000000000E+00  0.00000000000E+00  0.45593999997E+02  0.45594000000E+02  0.51100000000E-03 0. -1.
         11   -1    0    0    0    0 -0.00000000000E+00 -0.00000000000E+00 -0.45593999997E+02  0.45594000000E+02  0.51100000000E-03 0.  1.
    9900012    2    1    2    0    0 -0.14412438397E+02  0.49672684278E+01 -0.40635391714E+02  0.47787225861E+02  0.19999793987E+02 0.  0.
         12    1    1    2    0    0  0.14412438397E+02 -0.49672684278E+01  0.40635391714E+02  0.43400774139E+02  0.00000000000E+00 0. -1.
         11    1    3    3    0    0 -0.12435600513E+01 -0.29362376385E+01  0.82480819264E+00  0.32936669362E+01  0.51100000000E-03 0. -1.
        -11    1    3    3    0    0 -0.52002538339E+01  0.24678989432E+01 -0.22449336277E+02  0.23175544539E+02  0.51100000000E-03 0.  1.
        -12    1    3    3    0    0 -0.79686245120E+01  0.54356071231E+01 -0.19010863629E+02  0.21318014385E+02  0.00000000000E+00 0.  1.
</event>
<event>
 7    1  0.1736465E-010  0.4778726E+02  0.7816164E-02  0.1312668E+00
        -11   -1    0    0    0    0  0.00000000000E+00  0.00000000000E+00  0.45593999997E+02  0.45594000000E+02  0.51100000000E-03 0.  1.
         11   -1    0    0    0    0 -0.00000000000E+00 -0.00000000000E+00 -0.45593999997E+02  0.45594000000E+02  0.51100000000E-03 0. -1.
    9900012    2    1    2    0    0 -0.18217475190E+01  0.15304875622E+02  0.40571741402E+02  0.47787260580E+02  0.19999952289E+02 0.  0.
         12    1    1    2    0    0  0.18217475190E+01 -0.15304875622E+02 -0.40571741402E+02  0.43400739420E+02  0.00000000000E+00 0. -1.
         11    1    3    3    0    0  0.46471468853E+01  0.38385749764E+01  0.90443950573E+01  0.10868841439E+02  0.51100000000E-03 0. -1.
        -11    1    3    3    0    0  0.10761268394E+01  0.73193349520E+01  0.25118749414E+02  0.26185535807E+02  0.51100000000E-03 0.  1.
        -12    1    3    3    0    0 -0.75450212436E+01  0.41469656939E+01  0.64085969300E+01  0.10732883333E+02  0.00000000000E+00 0.  1.
</event>
<event>
 7    1  0.1736465E-010  0.4778727E+02  0.7816164E-02  0.1312668E+00
        -11   -1    0    0    0    0  0.00000000000E+00  0.00000000000E+00  0.45593999997E+02  0.45594000000E+02  0.51100000000E-03 0.  1.
         11   -1    0    0    0    0 -0.00000000000E+00 -0.00000000000E+00 -0.45593999997E+02  0.45594000000E+02  0.51100000000E-03 0. -1.
    9900012    2    1    2    0    0  0.84422287788E+01  0.12492244110E+02  0.40697619606E+02  0.47787266928E+02  0.19999981230E+02 0.  0.
         12    1    1    2    0    0 -0.84422287788E+01 -0.12492244110E+02 -0.40697619606E+02  0.43400733072E+02  0.00000000000E+00 0. -1.
         11    1    3    3    0    0 -0.32692026802E+00 -0.34655077046E+01  0.16127869657E+02  0.16499236359E+02  0.51100000000E-03 0. -1.
        -11    1    3    3    0    0  0.33445878054E+01  0.46128224594E+01  0.13026859289E+02  0.14218419807E+02  0.51100000000E-03 0.  1.
         12    1    3    3    0    0  0.54245612414E+01  0.11344929355E+02  0.11542890660E+02  0.17069610761E+02  0.00000000000E+00 0. -1.
</event>
<event>
 7    1  0.1736465E-010  0.4778727E+02  0.7816164E-02  0.1312668E+00
        -11   -1    0    0    0    0  0.00000000000E+00  0.00000000000E+00  0.45593999997E+02  0.45594000000E+02  0.51100000000E-03 0.  1.
         11   -1    0    0    0    0 -0.00000000000E+00 -0.00000000000E+00 -0.45593999997E+02  0.45594000000E+02  0.51100000000E-03 0. -1.
    9900012    2    1    2    0    0  0.11248408205E+02 -0.41853276815E+02 -0.23237465362E+01  0.47787271144E+02  0.20000000452E+02 0.  0.
         12    1    1    2    0    0 -0.11248408205E+02  0.41853276815E+02  0.23237465362E+01  0.43400728856E+02  0.00000000000E+00 0. -1.
         11    1    3    3    0    0  0.63648776408E+01 -0.11867816875E+02  0.53457063343E+01  0.14489075927E+02  0.51100000000E-03 0.  1.
        -11    1    3    3    0    0  0.15438157859E+01 -0.22335547440E+01 -0.43798184267E+01  0.51531489098E+01  0.51100000000E-03 0. -1.
         12    1    3    3    0    0  0.33397147785E+01 -0.27751905196E+02 -0.32896344438E+01  0.28145046306E+02  0.00000000000E+00 0. -1.
</event>
<event>
 7    1  0.1736465E-010  0.4778728E+02  0.7816164E-02  0.1312668E+00
        -11   -1    0    0    0    0  0.00000000000E+00  0.00000000000E+00  0.45593999997E+02  0.45594000000E+02  0.51100000000E-03 0. -1.
         11   -1    0    0    0    0 -0.00000000000E+00 -0.00000000000E+00 -0.45593999997E+02  0.45594000000E+02  0.51100000000E-03 0.  1.
    9900012    2    1    2    0    0  0.33286011824E+02 -0.59059366185E+01 -0.27217351681E+02  0.47787275317E+02  0.20000019480E+02 0.  0.
         12    1    1    2    0    0 -0.33286011824E+02  0.59059366185E+01  0.27217351681E+02  0.43400724683E+02  0.00000000000E+00 0. -1.
         11    1    3    3    0    0  0.66676533346E+01  0.51556802082E+00 -0.32244505002E+01  0.74243176565E+01  0.51100000000E-03 0. -1.
        -11    1    3    3    0    0  0.18769883811E+02 -0.52919033830E+01 -0.55318075826E+01  0.20271005774E+02  0.51100000000E-03 0.  1.
         12    1    3    3    0    0  0.78484746783E+01 -0.11296012563E+01 -0.18461093598E+02  0.20091951886E+02  0.00000000000E+00 0. -1.
</event>
<event>
 7    1  0.1736465E-010  0.4778727E+02  0.7816164E-02  0.1312668E+00
        -11   -1    0    0    0    0  0.00000000000E+00  0.00000000000E+00  0.45593999997E+02  0.45594000000E+02  0.51100000000E-03 0. -1.
         11   -1    0    0    0    0 -0.00000000000E+00 -0.00000000000E+00 -0.45593999997E+02  0.45594000000E+02  0.51100000000E-03 0.  1.
    9900012    2    1    2    0    0 -0.11290790788E+02  0.38877576083E+02 -0.15642099802E+02  0.47787272300E+02  0.20000005723E+02 0.  0.
         12    1    1    2    0    0  0.11290790788E+02 -0.38877576083E+02  0.15642099802E+02  0.43400727700E+02  0.00000000000E+00 0. -1.
         11    1    3    3    0    0 -0.80342237891E+00 -0.51132076261E+00 -0.27736769972E+01  0.29326133034E+01  0.51100000000E-03 0. -1.
        -11    1    3    3    0    0  0.19878758994E+01  0.11185996244E+01  0.68530881752E+00  0.23817145395E+01  0.51100000000E-03 0.  1.
        -12    1    3    3    0    0 -0.12475244309E+02  0.38270297221E+02 -0.13553731622E+02  0.42472944457E+02  0.00000000000E+00 0.  1.
</event>
<event>
 7    1  0.1736465E-010  0.4778726E+02  0.7816164E-02  0.1312668E+00
        -11   -1    0    0    0    0  0.00000000000E+00  0.00000000000E+00  0.45593999997E+02  0.45594000000E+02  0.51100000000E-03 0. -1.
         11   -1    0    0    0    0 -0.00000000000E+00 -0.00000000000E+00 -0.45593999997E+02  0.45594000000E+02  0.51100000000E-03 0.  1.
    9900012    2    1    2    0    0 -0.41705727757E+02  0.44941898872E+01 -0.11138169670E+02  0.47787259291E+02  0.19999946411E+02 0.  0.
         12    1    1    2    0    0  0.41705727757E+02 -0.44941898872E+01  0.11138169670E+02  0.43400740709E+02  0.00000000000E+00 0. -1.
         11    1    3    3    0    0 -0.47267608493E+01  0.15933492336E+01  0.22897742529E+01  0.54885422744E+01  0.51100000000E-03 0. -1.
        -11    1    3    3    0    0 -0.28326473090E+02 -0.37989719925E+01 -0.12862027793E+02  0.31340916150E+02  0.51100000000E-03 0.  1.
         12    1    3    3    0    0 -0.86524938183E+01  0.66998126461E+01 -0.56591612985E+00  0.10957800867E+02  0.00000000000E+00 0. -1.
</event>
<event>
 7    1  0.1736465E-010  0.4778726E+02  0.7816164E-02  0.1312668E+00
        -11   -1    0    0    0    0  0.00000000000E+00  0.00000000000E+00  0.45593999997E+02  0.45594000000E+02  0.51100000000E-03 0.  1.
         11   -1    0    0    0    0 -0.00000000000E+00 -0.00000000000E+00 -0.45593999997E+02  0.45594000000E+02  0.51100000000E-03 0. -1.
    9900012    2    1    2    0    0  0.82679955317E+01  0.97381316091E+01  0.41478102108E+02  0.47787263695E+02  0.19999966490E+02 0.  0.
         12    1    1    2    0    0 -0.82679955317E+01 -0.97381316091E+01 -0.41478102108E+02  0.43400736305E+02  0.00000000000E+00 0. -1.
         11    1    3    3    0    0  0.19119608177E+01  0.60399106589E+01  0.18972257327E+02  0.20002066476E+02  0.51100000000E-03 0. -1.
        -11    1    3    3    0    0 -0.42149623331E+00  0.64033502531E+00  0.19887426095E+02  0.19902195983E+02  0.51100000000E-03 0.  1.
        -12    1    3    3    0    0  0.67775309473E+01  0.30578859248E+01  0.26184186857E+01  0.78830012359E+01  0.00000000000E+00 0.  1.
</event>
<event>
 7    1  0.1736465E-010  0.4778727E+02  0.7816164E-02  0.1312668E+00
        -11   -1    0    0    0    0  0.00000000000E+00  0.00000000000E+00  0.45593999997E+02  0.45594000000E+02  0.51100000000E-03 0.  1.
         11   -1    0    0    0    0 -0.00000000000E+00 -0.00000000000E+00 -0.45593999997E+02  0.45594000000E+02  0.51100000000E-03 0. -1.
    9900012    2    1    2    0    0  0.26965051637E+02 -0.33183159001E+02  0.74422624399E+01  0.47787270498E+02  0.19999997509E+02 0.  0.
         12    1    1    2    0    0 -0.26965051637E+02  0.33183159001E+02 -0.74422624399E+01  0.43400729502E+02  0.00000000000E+00 0. -1.
         11    1    3    3    0    0 -0.55470586027E+00  0.54410057255E+00 -0.75971401962E+00  0.10866966813E+01  0.51100000000E-03 0. -1.
        -11    1    3    3    0    0  0.18212848651E+02 -0.28836237909E+02  0.13143622102E+01  0.34131569272E+02  0.51100000000E-03 0.  1.
        -12    1    3    3    0    0  0.93069088460E+01 -0.48910216650E+01  0.68876142493E+01  0.12569004545E+02  0.00000000000E+00 0.  1.
</event>
<event>
 7    1  0.1736465E-010  0.4778727E+02  0.7816164E-02  0.1312668E+00
        -11   -1    0    0    0    0  0.00000000000E+00  0.00000000000E+00  0.45593999997E+02  0.45594000000E+02  0.51100000000E-03 0.  1.
         11   -1    0    0    0    0 -0.00000000000E+00 -0.00000000000E+00 -0.45593999997E+02  0.45594000000E+02  0.51100000000E-03 0. -1.
    9900012    2    1    2    0    0  0.41183559845E+02  0.15179476043E+01  0.13610055741E+02  0.47787269779E+02  0.19999994231E+02 0.  0.
         12    1    1    2    0    0 -0.41183559845E+02 -0.15179476043E+01 -0.13610055741E+02  0.43400730221E+02  0.00000000000E+00 0. -1.
         11    1    3    3    0    0  0.18124845724E+02 -0.23505064934E+01  0.97490249252E+01  0.20714207698E+02  0.51100000000E-03 0.  1.
        -11    1    3    3    0    0  0.19261105241E+02 -0.10275291372E+01 -0.82239637149E+00  0.19306017904E+02  0.51100000000E-03 0. -1.
         12    1    3    3    0    0  0.37976088797E+01  0.48959832349E+01  0.46834271875E+01  0.77670441779E+01  0.00000000000E+00 0. -1.
</event>
<event>
 7    1  0.1736465E-010  0.4778727E+02  0.7816164E-02  0.1312668E+00
        -11   -1    0    0    0    0  0.00000000000E+00  0.00000000000E+00  0.45593999997E+02  0.45594000000E+02  0.51100000000E-03 0.  1.
         11   -1    0    0    0    0 -0.00000000000E+00 -0.00000000000E+00 -0.45593999997E+02  0.45594000000E+02  0.51100000000E-03 0. -1.
    9900012    2    1    2    0    0 -0.32947223926E+02  0.73510713995E+01  0.27277567491E+02  0.47787268400E+02  0.19999987943E+02 0.  0.
         12    1    1    2    0    0  0.32947223926E+02 -0.73510713995E+01 -0.27277567491E+02  0.43400731600E+02  0.00000000000E+00 0. -1.
         11    1    3    3    0    0 -0.77811826231E+01  0.45970125008E+01  0.10640860614E+02  0.13960918373E+02  0.51100000000E-03 0. -1.
        -11    1    3    3    0    0 -0.10406176557E+02  0.31235940120E+01 -0.89989449803E+00  0.10902071383E+02  0.51100000000E-03 0.  1.
        -12    1    3    3    0    0 -0.14759864747E+02 -0.36953511338E+00  0.17536601375E+02  0.22924278644E+02  0.00000000000E+00 0.  1.
</event>
<event>
 7    1  0.1736465E-010  0.4778729E+02  0.7816164E-02  0.1312668E+00
        -11   -1    0    0    0    0  0.00000000000E+00  0.00000000000E+00  0.45593999997E+02  0.45594000000E+02  0.51100000000E-03 0. -1.
         11   -1    0    0    0    0 -0.00000000000E+00 -0.00000000000E+00 -0.45593999997E+02  0.45594000000E+02  0.51100000000E-03 0.  1.
    9900012    2    1    2    0    0  0.36965759682E+02 -0.25379589345E+01 -0.22598964043E+02  0.47787288022E+02  0.20000077405E+02 0.  0.
         12    1    1    2    0    0 -0.36965759682E+02  0.25379589345E+01  0.22598964043E+02  0.43400711978E+02  0.00000000000E+00 0. -1.
         11    1    3    3    0    0 -0.78852196713E+00  0.62544918951E+00 -0.21834473433E+01  0.24042454416E+01  0.51100000000E-03 0. -1.
        -11    1    3    3    0    0  0.21830668659E+02 -0.83096191328E+01 -0.85736125849E+01  0.24882417432E+02  0.51100000000E-03 0.  1.
        -12    1    3    3    0    0  0.15923612990E+02  0.51462110087E+01 -0.11841904114E+02  0.20500625148E+02  0.00000000000E+00 0.  1.
</event>
<event>
 7    1  0.1736465E-010  0.4778727E+02  0.7816164E-02  0.1312668E+00
        -11   -1    0    0    0    0  0.00000000000E+00  0.00000000000E+00  0.45593999997E+02  0.45594000000E+02  0.51100000000E-03 0.  1.
         11   -1    0    0    0    0 -0.00000000000E+00 -0.00000000000E+00 -0.45593999997E+02  0.45594000000E+02  0.51100000000E-03 0. -1.
    9900012    2    1    2    0    0 -0.56347347796E+01  0.26340690938E+02  0.34030006688E+02  0.47787267399E+02  0.19999983381E+02 0.  0.
         12    1    1    2    0    0  0.56347347796E+01 -0.26340690938E+02 -0.34030006688E+02  0.43400732601E+02  0.00000000000E+00 0. -1.
         11    1    3    3    0    0 -0.37129795267E+01  0.11894931632E+01  0.19147416521E+01  0.43436559263E+01  0.51100000000E-03 0. -1.
        -11    1    3    3    0    0 -0.47071523581E+01  0.25604343206E+02  0.26439967462E+02  0.37105411384E+02  0.51100000000E-03 0.  1.
         12    1    3    3    0    0  0.27853971052E+01 -0.45314543199E+00  0.56752975736E+01  0.63382000888E+01  0.00000000000E+00 0. -1.
</event>
<event>
 7    1  0.1826483E-010  0.4778728E+02  0.7816164E-02  0.1312668E+00
        -11   -1    0    0    0    0  0.00000000000E+00  0.00000000000E+00  0.45593999997E+02  0.45594000000E+02  0.51100000000E-03 0. -1.
         11   -1    0    0    0    0 -0.00000000000E+00 -0.00000000000E+00 -0.45593999997E+02  0.45594000000E+02  0.51100000000E-03 0.  1.
    9900012    2    1    2    0    0  0.38959382278E+02  0.21059964805E+01 -0.19009319537E+02  0.47787275145E+02  0.20000018696E+02 0.  0.
         12    1    1    2    0    0 -0.38959382278E+02 -0.21059964805E+01  0.19009319537E+02  0.43400724855E+02  0.00000000000E+00 0. -1.
         11    1    3    3    0    0  0.81516978423E+01  0.64524231088E+01 -0.87225094055E+01  0.13570781565E+02  0.51100000000E-03 0. -1.
        -11    1    3    3    0    0  0.18161130948E+02 -0.22153237809E+01 -0.11041680110E+02  0.21369441656E+02  0.51100000000E-03 0.  1.
         12    1    3    3    0    0  0.12646553488E+02 -0.21311028473E+01  0.75486997803E+00  0.12847051925E+02  0.00000000000E+00 0. -1.
</event>
<event>
 7    1  0.1736465E-010  0.4778727E+02  0.7816164E-02  0.1312668E+00
        -11   -1    0    0    0    0  0.00000000000E+00  0.00000000000E+00  0.45593999997E+02  0.45594000000E+02  0.51100000000E-03 0.  1.
         11   -1    0    0    0    0 -0.00000000000E+00 -0.00000000000E+00 -0.45593999997E+02  0.45594000000E+02  0.51100000000E-03 0. -1.
    9900012    2    1    2    0    0 -0.24987501713E+02 -0.33361372417E+02 -0.12094089680E+02  0.47787269400E+02  0.19999992504E+02 0.  0.
         12    1    1    2    0    0  0.24987501713E+02  0.33361372417E+02  0.12094089680E+02  0.43400730600E+02  0.00000000000E+00 0. -1.
         11    1    3    3    0    0 -0.11575546157E+02 -0.13237234039E+02 -0.10887320929E+02  0.20682151510E+02  0.51100000000E-03 0. -1.
        -11    1    3    3    0    0 -0.14452625562E+02 -0.12621984399E+02  0.10054195052E+01  0.19214675237E+02  0.51100000000E-03 0.  1.
         12    1    3    3    0    0  0.10406700058E+01 -0.75021539791E+01 -0.22121882558E+01  0.78904426534E+01  0.00000000000E+00 0. -1.
</event>
<event>
 7    1  0.1736465E-010  0.4778727E+02  0.7816164E-02  0.1312668E+00
        -11   -1    0    0    0    0  0.00000000000E+00  0.00000000000E+00  0.45593999997E+02  0.45594000000E+02  0.51100000000E-03 0.  1.
         11   -1    0    0    0    0 -0.00000000000E+00 -0.00000000000E+00 -0.45593999997E+02  0.45594000000E+02  0.51100000000E-03 0. -1.
    9900012    2    1    2    0    0  0.24503525510E+02 -0.12849697667E+02  0.33437786731E+02  0.47787273347E+02  0.20000010497E+02 0.  0.
         12    1    1    2    0    0 -0.24503525510E+02  0.12849697667E+02 -0.33437786731E+02  0.43400726653E+02  0.00000000000E+00 0. -1.
         11    1    3    3    0    0  0.91106975269E+01  0.34764120790E+00  0.17474404969E+02  0.19709908501E+02  0.51100000000E-03 0. -1.
        -11    1    3    3    0    0  0.20190394220E+01 -0.38135367312E+00 -0.15592015251E+01  0.25793527228E+01  0.51100000000E-03 0.  1.
        -12    1    3    3    0    0  0.13373788561E+02 -0.12815985202E+02  0.17522583287E+02  0.25498012123E+02  0.00000000000E+00 0.  1.
</event>
<event>
 7    1  0.1736465E-010  0.4778730E+02  0.7816164E-02  0.1312668E+00
        -11   -1    0    0    0    0  0.00000000000E+00  0.00000000000E+00  0.45593999997E+02  0.45594000000E+02  0.51100000000E-03 0. -1.
         11   -1    0    0    0    0 -0.00000000000E+00 -0.00000000000E+00 -0.45593999997E+02  0.45594000000E+02  0.51100000000E-03 0.  1.
    9900012    2    1    2    0    0  0.14096917563E+02  0.38880055117E+02 -0.13162027799E+02  0.47787300161E+02  0.20000132755E+02 0.  0.
         12    1    1    2    0    0 -0.14096917563E+02 -0.38880055117E+02  0.13162027799E+02  0.43400699839E+02  0.00000000000E+00 0. -1.
         11    1    3    3    0    0 -0.25415777946E+01  0.18031194240E+02 -0.27304709495E+01  0.18413013205E+02  0.51100000000E-03 0. -1.
        -11    1    3    3    0    0  0.47099544849E+01  0.19669316493E+01 -0.14957732670E+01  0.53188184112E+01  0.51100000000E-03 0.  1.
         12    1    3    3    0    0  0.11928540872E+02  0.18881929228E+02 -0.89357835827E+01  0.24055468545E+02  0.00000000000E+00 0. -1.
</event>
<event>
 7    1  0.1736465E-010  0.4778727E+02  0.7816164E-02  0.1312668E+00
        -11   -1    0    0    0    0  0.00000000000E+00  0.00000000000E+00  0.45593999997E+02  0.45594000000E+02  0.51100000000E-03 0.  1.
         11   -1    0    0    0    0 -0.00000000000E+00 -0.00000000000E+00 -0.45593999997E+02  0.45594000000E+02  0.51100000000E-03 0. -1.
    9900012    2    1    2    0    0  0.24003152818E+02  0.87369894221E+01  0.35087556646E+02  0.47787274652E+02  0.20000016449E+02 0.  0.
         12    1    1    2    0    0 -0.24003152818E+02 -0.87369894221E+01 -0.35087556646E+02  0.43400725348E+02  0.00000000000E+00 0. -1.
         11    1    3    3    0    0  0.13333022748E+02  0.12624621050E+02  0.20214714680E+02  0.27309068862E+02  0.51100000000E-03 0. -1.
        -11    1    3    3    0    0  0.10175296636E+02 -0.80548091749E-01  0.11626607794E+02  0.15450603829E+02  0.51100000000E-03 0.  1.
         12    1    3    3    0    0  0.49483343377E+00 -0.38070835364E+01  0.32462341720E+01  0.50276019611E+01  0.00000000000E+00 0. -1.
</event>
<event>
 7    1  0.1736465E-010  0.4778727E+02  0.7816164E-02  0.1312668E+00
        -11   -1    0    0    0    0  0.00000000000E+00  0.00000000000E+00  0.45593999997E+02  0.45594000000E+02  0.51100000000E-03 0.  1.
         11   -1    0    0    0    0 -0.00000000000E+00 -0.00000000000E+00 -0.45593999997E+02  0.45594000000E+02  0.51100000000E-03 0. -1.
    9900012    2    1    2    0    0  0.20807354118E+02  0.18003620718E+02  0.33564068427E+02  0.47787273811E+02  0.20000012612E+02 0.  0.
         12    1    1    2    0    0 -0.20807354118E+02 -0.18003620718E+02 -0.33564068427E+02  0.43400726189E+02  0.00000000000E+00 0. -1.
         11    1    3    3    0    0  0.52665989097E+01  0.27422702958E+01  0.15250611685E+02  0.16365765106E+02  0.51100000000E-03 0. -1.
        -11    1    3    3    0    0 -0.13640839811E+01  0.30614196947E+01 -0.44008458357E+00  0.33803387931E+01  0.51100000000E-03 0.  1.
        -12    1    3    3    0    0  0.16904839190E+02  0.12199930728E+02  0.18753541325E+02  0.28041169912E+02  0.00000000000E+00 0.  1.
</event>
<event>
 7    1  0.1736465E-010  0.4778727E+02  0.7816164E-02  0.1312668E+00
        -11   -1    0    0    0    0  0.00000000000E+00  0.00000000000E+00  0.45593999997E+02  0.45594000000E+02  0.51100000000E-03 0. -1.
         11   -1    0    0    0    0 -0.00000000000E+00 -0.00000000000E+00 -0.45593999997E+02  0.45594000000E+02  0.51100000000E-03 0.  1.
    9900012    2    1    2    0    0 -0.21603771408E+02 -0.23902009413E+02 -0.29079103007E+02  0.47787271611E+02  0.20000002581E+02 0.  0.
         12    1    1    2    0    0  0.21603771408E+02  0.23902009413E+02  0.29079103007E+02  0.43400728389E+02  0.00000000000E+00 0. -1.
         11    1    3    3    0    0 -0.10939248877E+01  0.13895333180E+01 -0.21451390928E+01  0.27801252653E+01  0.51100000000E-03 0. -1.
        -11    1    3    3    0    0  0.25290474852E+01 -0.36610454229E+01 -0.30368478364E+01  0.53871866325E+01  0.51100000000E-03 0.  1.
        -12    1    3    3    0    0 -0.23038894006E+02 -0.21630497308E+02 -0.23897116078E+02  0.39619959713E+02  0.00000000000E+00 0.  1.
</event>
<event>
 7    1  0.1736465E-010  0.4778727E+02  0.7816164E-02  0.1312668E+00
        -11   -1    0    0    0    0  0.00000000000E+00  0.00000000000E+00  0.45593999997E+02  0.45594000000E+02  0.51100000000E-03 0. -1.
         11   -1    0    0    0    0 -0.00000000000E+00 -0.00000000000E+00 -0.45593999997E+02  0.45594000000E+02  0.51100000000E-03 0.  1.
    9900012    2    1    2    0    0  0.11002433608E+02  0.23636574596E+02 -0.34697006625E+02  0.47787268754E+02  0.19999989558E+02 0.  0.
         12    1    1    2    0    0 -0.11002433608E+02 -0.23636574596E+02  0.34697006625E+02  0.43400731246E+02  0.00000000000E+00 0. -1.
         11    1    3    3    0    0  0.96916456372E+01  0.60767248997E+01 -0.10228462555E+02  0.15345228156E+02  0.51100000000E-03 0. -1.
        -11    1    3    3    0    0  0.45067981797E+01  0.15699690494E+02 -0.23500839031E+02  0.28619590264E+02  0.51100000000E-03 0.  1.
        -12    1    3    3    0    0 -0.31960102091E+01  0.18601592019E+01 -0.96770503875E+00  0.38224503339E+01  0.00000000000E+00 0.  1.
</event>
<event>
 7    1  0.1736465E-010  0.4778727E+02  0.7816164E-02  0.1312668E+00
        -11   -1    0    0    0    0  0.00000000000E+00  0.00000000000E+00  0.45593999997E+02  0.45594000000E+02  0.51100000000E-03 0.  1.
         11   -1    0    0    0    0 -0.00000000000E+00 -0.00000000000E+00 -0.45593999997E+02  0.45594000000E+02  0.51100000000E-03 0. -1.
    9900012    2    1    2    0    0 -0.31701799388E+02 -0.27989988634E+02  0.97560092393E+01  0.47787271153E+02  0.20000000494E+02 0.  0.
         12    1    1    2    0    0  0.31701799388E+02  0.27989988634E+02 -0.97560092393E+01  0.43400728847E+02  0.00000000000E+00 0. -1.
         11    1    3    3    0    0 -0.12013956145E+02 -0.16273869130E+02 -0.31454845438E+01  0.20471151213E+02  0.51100000000E-03 0. -1.
        -11    1    3    3    0    0 -0.62779200647E+01 -0.73700610928E+01  0.73932652262E+01  0.12181561961E+02  0.51100000000E-03 0.  1.
        -12    1    3    3    0    0 -0.13409923178E+02 -0.43460584119E+01  0.55082285568E+01  0.15134557979E+02  0.00000000000E+00 0.  1.
</event>
<event>
 7    1  0.1736465E-010  0.4778727E+02  0.7816164E-02  0.1312668E+00
        -11   -1    0    0    0    0  0.00000000000E+00  0.00000000000E+00  0.45593999997E+02  0.45594000000E+02  0.51100000000E-03 0. -1.
         11   -1    0    0    0    0 -0.00000000000E+00 -0.00000000000E+00 -0.45593999997E+02  0.45594000000E+02  0.51100000000E-03 0.  1.
    9900012    2    1    2    0    0 -0.22858262183E+02 -0.15884113303E+02 -0.33298923525E+02  0.47787268285E+02  0.19999987419E+02 0.  0.
         12    1    1    2    0    0  0.22858262183E+02  0.15884113303E+02  0.33298923525E+02  0.43400731715E+02  0.00000000000E+00 0. -1.
         11    1    3    3    0    0 -0.21862704832E+02 -0.10633311754E+02 -0.28202273628E+02  0.37234572906E+02  0.51100000000E-03 0. -1.
        -11    1    3    3    0    0 -0.21612029128E+01  0.90405110081E+00 -0.32793301701E+01  0.40301504996E+01  0.51100000000E-03 0.  1.
         12    1    3    3    0    0  0.11656455620E+01 -0.61548526499E+01 -0.18173197273E+01  0.65225448798E+01  0.00000000000E+00 0. -1.
</event>
<event>
 7    1  0.1736465E-010  0.4778727E+02  0.7816164E-02  0.1312668E+00
        -11   -1    0    0    0    0  0.00000000000E+00  0.00000000000E+00  0.45593999997E+02  0.45594000000E+02  0.51100000000E-03 0. -1.
         11   -1    0    0    0    0 -0.00000000000E+00 -0.00000000000E+00 -0.45593999997E+02  0.45594000000E+02  0.51100000000E-03 0.  1.
    9900012    2    1    2    0    0 -0.38701589566E+02 -0.12004875301E+02  0.15546484363E+02  0.47787271411E+02  0.20000001673E+02 0.  0.
         12    1    1    2    0    0  0.38701589566E+02  0.12004875301E+02 -0.15546484363E+02  0.43400728589E+02  0.00000000000E+00 0. -1.
         11    1    3    3    0    0 -0.18566237531E+02 -0.80857919193E+01  0.14474962941E+02  0.24891961743E+02  0.51100000000E-03 0.  1.
        -11    1    3    3    0    0  0.94160229860E+00 -0.44921132323E+00 -0.98638369894E+00  0.14357432794E+01  0.51100000000E-03 0. -1.
         12    1    3    3    0    0 -0.21076954334E+02 -0.34698720589E+01  0.20579051214E+01  0.21459566389E+02  0.00000000000E+00 0. -1.
</event>
<event>
 7    1  0.1736465E-010  0.4778727E+02  0.7816164E-02  0.1312668E+00
        -11   -1    0    0    0    0  0.00000000000E+00  0.00000000000E+00  0.45593999997E+02  0.45594000000E+02  0.51100000000E-03 0.  1.
         11   -1    0    0    0    0 -0.00000000000E+00 -0.00000000000E+00 -0.45593999997E+02  0.45594000000E+02  0.51100000000E-03 0. -1.
    9900012    2    1    2    0    0 -0.17203276542E+02 -0.63635165401E+01  0.39334166409E+02  0.47787265978E+02  0.19999976899E+02 0.  0.
         12    1    1    2    0    0  0.17203276542E+02  0.63635165401E+01 -0.39334166409E+02  0.43400734022E+02  0.00000000000E+00 0. -1.
         11    1    3    3    0    0 -0.41698405140E+01  0.24828109587E+01  0.12064433410E+01  0.50007425414E+01  0.51100000000E-03 0. -1.
        -11    1    3    3    0    0 -0.17125695055E+01 -0.32397349557E+00  0.18480161427E+02  0.18562171742E+02  0.51100000000E-03 0.  1.
         12    1    3    3    0    0 -0.11320866523E+02 -0.85223540033E+01  0.19647561641E+02  0.24224351694E+02  0.00000000000E+00 0. -1.
</event>
<event>
 7    1  0.1736465E-010  0.4778727E+02  0.7816164E-02  0.1312668E+00
        -11   -1    0    0    0    0  0.00000000000E+00  0.00000000000E+00  0.45593999997E+02  0.45594000000E+02  0.51100000000E-03 0.  1.
         11   -1    0    0    0    0 -0.00000000000E+00 -0.00000000000E+00 -0.45593999997E+02  0.45594000000E+02  0.51100000000E-03 0. -1.
    9900012    2    1    2    0    0  0.14485121347E+02  0.31996646909E+02  0.25495475186E+02  0.47787269490E+02  0.19999992913E+02 0.  0.
         12    1    1    2    0    0 -0.14485121347E+02 -0.31996646909E+02 -0.25495475186E+02  0.43400730510E+02  0.00000000000E+00 0. -1.
         11    1    3    3    0    0  0.14597672119E+02  0.18614583601E+02  0.22051064869E+02  0.32339514778E+02  0.51100000000E-03 0.  1.
        -11    1    3    3    0    0  0.21844796569E+01  0.12189157889E+02  0.34663089189E+01  0.12859347542E+02  0.51100000000E-03 0. -1.
        -12    1    3    3    0    0 -0.22970304292E+01  0.11929054186E+01 -0.21898602269E-01  0.25884071703E+01  0.00000000000E+00 0.  1.
</event>
<event>
 7    1  0.1736465E-010  0.4778727E+02  0.7816164E-02  0.1312668E+00
        -11   -1    0    0    0    0  0.00000000000E+00  0.00000000000E+00  0.45593999997E+02  0.45594000000E+02  0.51100000000E-03 0.  1.
         11   -1    0    0    0    0 -0.00000000000E+00 -0.00000000000E+00 -0.45593999997E+02  0.45594000000E+02  0.51100000000E-03 0. -1.
    9900012    2    1    2    0    0  0.32972533382E+02  0.19304512028E+02  0.20585698936E+02  0.47787272552E+02  0.20000006875E+02 0.  0.
         12    1    1    2    0    0 -0.32972533382E+02 -0.19304512028E+02 -0.20585698936E+02  0.43400727448E+02  0.00000000000E+00 0. -1.
         11    1    3    3    0    0  0.16424790200E+02  0.22180734364E+01  0.62457609462E+01  0.17711666012E+02  0.51100000000E-03 0. -1.
        -11    1    3    3    0    0  0.15989620763E+02  0.12637274974E+02  0.15306745386E+02  0.25488529685E+02  0.51100000000E-03 0.  1.
         12    1    3    3    0    0  0.55812241921E+00  0.44491636178E+01 -0.96680739603E+00  0.45870768550E+01  0.00000000000E+00 0. -1.
</event>
<event>
 7    1  0.1736465E-010  0.4778727E+02  0.7816164E-02  0.1312668E+00
        -11   -1    0    0    0    0  0.00000000000E+00  0.00000000000E+00  0.45593999997E+02  0.45594000000E+02  0.51100000000E-03 0. -1.
         11   -1    0    0    0    0 -0.00000000000E+00 -0.00000000000E+00 -0.45593999997E+02  0.45594000000E+02  0.51100000000E-03 0.  1.
    9900012    2    1    2    0    0  0.20749114473E+02  0.12558904960E+02 -0.35991273454E+02  0.47787267172E+02  0.19999982343E+02 0.  0.
         12    1    1    2    0    0 -0.20749114473E+02 -0.12558904960E+02  0.35991273454E+02  0.43400732828E+02  0.00000000000E+00 0. -1.
         11    1    3    3    0    0  0.16001523760E+02  0.11159745332E+02 -0.17990140549E+02  0.26537404465E+02  0.51100000000E-03 0.  1.
        -11    1    3    3    0    0  0.19265486691E+01  0.95200470113E+00  0.75484270639E+00  0.22776502141E+01  0.51100000000E-03 0. -1.
        -12    1    3    3    0    0  0.28210420439E+01  0.44715492752E+00 -0.18755975611E+02  0.18972212493E+02  0.00000000000E+00 0.  1.
</event>
<event>
 7    1  0.1736465E-010  0.4778727E+02  0.7816164E-02  0.1312668E+00
        -11   -1    0    0    0    0  0.00000000000E+00  0.00000000000E+00  0.45593999997E+02  0.45594000000E+02  0.51100000000E-03 0.  1.
         11   -1    0    0    0    0 -0.00000000000E+00 -0.00000000000E+00 -0.45593999997E+02  0.45594000000E+02  0.51100000000E-03 0. -1.
    9900012    2    1    2    0    0  0.33856894096E+02  0.26268279591E+02  0.68783219148E+01  0.47787273015E+02  0.20000008983E+02 0.  0.
         12    1    1    2    0    0 -0.33856894096E+02 -0.26268279591E+02 -0.68783219148E+01  0.43400726985E+02  0.00000000000E+00 0. -1.
         11    1    3    3    0    0  0.17485984347E+02  0.19572456710E+02  0.64791483393E+00  0.26253771237E+02  0.51100000000E-03 0. -1.
        -11    1    3    3    0    0  0.10769962372E+02  0.20702298573E+01 -0.13317082906E+01  0.11047687016E+02  0.51100000000E-03 0.  1.
         12    1    3    3    0    0  0.56009473763E+01  0.46255930237E+01  0.75621153714E+01  0.10485814762E+02  0.00000000000E+00 0. -1.
</event>
<event>
 7    1  0.1736465E-010  0.4778728E+02  0.7816164E-02  0.1312668E+00
        -11   -1    0    0    0    0  0.00000000000E+00  0.00000000000E+00  0.45593999997E+02  0.45594000000E+02  0.51100000000E-03 0. -1.
         11   -1    0    0    0    0 -0.00000000000E+00 -0.00000000000E+00 -0.45593999997E+02  0.45594000000E+02  0.51100000000E-03 0.  1.
    9900012    2    1    2    0    0  0.31826555629E+00 -0.25270110620E+02 -0.35283743608E+02  0.47787281726E+02  0.20000048702E+02 0.  0.
         12    1    1    2    0    0 -0.31826555629E+00  0.25270110620E+02  0.35283743608E+02  0.43400718274E+02  0.00000000000E+00 0. -1.
         11    1    3    3    0    0  0.28166964869E+01 -0.33668882897E+00 -0.90956461821E+01  0.95277446543E+01  0.51100000000E-03 0. -1.
        -11    1    3    3    0    0 -0.68056569387E+01 -0.14872836170E+02 -0.11733698899E+02  0.20129528366E+02  0.51100000000E-03 0.  1.
         12    1    3    3    0    0  0.43072260081E+01 -0.10060585621E+02 -0.14454398527E+02  0.18130008706E+02  0.00000000000E+00 0. -1.
</event>
<event>
 7    1  0.1736465E-010  0.4778725E+02  0.7816164E-02  0.1312668E+00
        -11   -1    0    0    0    0  0.00000000000E+00  0.00000000000E+00  0.45593999997E+02  0.45594000000E+02  0.51100000000E-03 0.  1.
         11   -1    0    0    0    0 -0.00000000000E+00 -0.00000000000E+00 -0.45593999997E+02  0.45594000000E+02  0.51100000000E-03 0. -1.
    9900012    2    1    2    0    0 -0.45844409232E+01 -0.80096743610E+01  0.42408171251E+02  0.47787251495E+02  0.19999910864E+02 0.  0.
         12    1    1    2    0    0  0.45844409232E+01  0.80096743610E+01 -0.42408171251E+02  0.43400748505E+02  0.00000000000E+00 0. -1.
         11    1    3    3    0    0  0.57603800332E+01 -0.19147711461E+00  0.65167289376E+01  0.86997929814E+01  0.51100000000E-03 0. -1.
        -11    1    3    3    0    0 -0.12246823423E+00  0.15577134007E+01  0.28007498060E+01  0.32071278809E+01  0.51100000000E-03 0.  1.
        -12    1    3    3    0    0 -0.10222352722E+02 -0.93759106471E+01  0.33090692508E+02  0.35880330632E+02  0.00000000000E+00 0.  1.
</event>
<event>
 7    1  0.1736465E-010  0.4778727E+02  0.7816164E-02  0.1312668E+00
        -11   -1    0    0    0    0  0.00000000000E+00  0.00000000000E+00  0.45593999997E+02  0.45594000000E+02  0.51100000000E-03 0. -1.
         11   -1    0    0    0    0 -0.00000000000E+00 -0.00000000000E+00 -0.45593999997E+02  0.45594000000E+02  0.51100000000E-03 0.  1.
    9900012    2    1    2    0    0 -0.22558424307E+02 -0.14226430524E+02 -0.34239594428E+02  0.47787266604E+02  0.19999979756E+02 0.  0.
         12    1    1    2    0    0  0.22558424307E+02  0.14226430524E+02  0.34239594428E+02  0.43400733396E+02  0.00000000000E+00 0. -1.
         11    1    3    3    0    0 -0.49745538949E+01  0.52607535952E+00 -0.18386112726E+02  0.19054450482E+02  0.51100000000E-03 0. -1.
        -11    1    3    3    0    0 -0.80750400387E+01 -0.25276508578E+01 -0.51283827681E+01  0.98942205637E+01  0.51100000000E-03 0.  1.
        -12    1    3    3    0    0 -0.95088303738E+01 -0.12224855026E+02 -0.10725098934E+02  0.18838595559E+02  0.00000000000E+00 0.  1.
</event>
<event>
 7    1  0.1736465E-010  0.4778727E+02  0.7816164E-02  0.1312668E+00
        -11   -1    0    0    0    0  0.00000000000E+00  0.00000000000E+00  0.45593999997E+02  0.45594000000E+02  0.51100000000E-03 0. -1.
         11   -1    0    0    0    0 -0.00000000000E+00 -0.00000000000E+00 -0.45593999997E+02  0.45594000000E+02  0.51100000000E-03 0.  1.
    9900012    2    1    2    0    0 -0.22430999877E+02 -0.18780463519E+02 -0.32058811537E+02  0.47787274630E+02  0.20000016348E+02 0.  0.
         12    1    1    2    0    0  0.22430999877E+02  0.18780463519E+02  0.32058811537E+02  0.43400725370E+02  0.00000000000E+00 0. -1.
         11    1    3    3    0    0 -0.91072148370E+01 -0.65204432116E+01 -0.59918507451E+01  0.12702748418E+02  0.51100000000E-03 0. -1.
        -11    1    3    3    0    0 -0.16311594886E+02 -0.77172301587E+01 -0.19946281219E+02  0.26897544568E+02  0.51100000000E-03 0.  1.
         12    1    3    3    0    0  0.29878098456E+01 -0.45427901486E+01 -0.61206795726E+01  0.81869816440E+01  0.00000000000E+00 0. -1.
</event>
<event>
 7    1  0.1736465E-010  0.4778727E+02  0.7816164E-02  0.1312668E+00
        -11   -1    0    0    0    0  0.00000000000E+00  0.00000000000E+00  0.45593999997E+02  0.45594000000E+02  0.51100000000E-03 0. -1.
         11   -1    0    0    0    0 -0.00000000000E+00 -0.00000000000E+00 -0.45593999997E+02  0.45594000000E+02  0.51100000000E-03 0.  1.
    9900012    2    1    2    0    0  0.30878551372E+02 -0.26201354102E+02 -0.15608565831E+02  0.47787271677E+02  0.20000002886E+02 0.  0.
         12    1    1    2    0    0 -0.30878551372E+02  0.26201354102E+02  0.15608565831E+02  0.43400728323E+02  0.00000000000E+00 0. -1.
         11    1    3    3    0    0  0.76037573340E+01 -0.11010917940E+02 -0.12454477379E+02  0.18280356849E+02  0.51100000000E-03 0. -1.
        -11    1    3    3    0    0  0.16685182327E+02 -0.15036678513E+02 -0.41485393166E+01  0.22840914796E+02  0.51100000000E-03 0.  1.
        -12    1    3    3    0    0  0.65896117112E+01 -0.15375764874E+00  0.99445086397E+00  0.66660000329E+01  0.00000000000E+00 0.  1.
</event>
<event>
 7    1  0.1736465E-010  0.4778727E+02  0.7816164E-02  0.1312668E+00
        -11   -1    0    0    0    0  0.00000000000E+00  0.00000000000E+00  0.45593999997E+02  0.45594000000E+02  0.51100000000E-03 0.  1.
         11   -1    0    0    0    0 -0.00000000000E+00 -0.00000000000E+00 -0.45593999997E+02  0.45594000000E+02  0.51100000000E-03 0. -1.
    9900012    2    1    2    0    0 -0.18885714733E+01 -0.15578795643E+02  0.40464276730E+02  0.47787271122E+02  0.20000000352E+02 0.  0.
         12    1    1    2    0    0  0.18885714733E+01  0.15578795643E+02 -0.40464276730E+02  0.43400728878E+02  0.00000000000E+00 0. -1.
         11    1    3    3    0    0 -0.36863934286E+01 -0.74663402629E+00  0.95834477453E+00  0.38814151862E+01  0.51100000000E-03 0. -1.
        -11    1    3    3    0    0  0.31683220503E+01 -0.11348951725E+02  0.14798350348E+02  0.18916345925E+02  0.51100000000E-03 0.  1.
         12    1    3    3    0    0 -0.13705000950E+01 -0.34832098911E+01  0.24707581608E+02  0.24989510011E+02  0.00000000000E+00 0. -1.
</event>
<event>
 7    1  0.1736465E-010  0.4778727E+02  0.7816164E-02  0.1312668E+00
        -11   -1    0    0    0    0  0.00000000000E+00  0.00000000000E+00  0.45593999997E+02  0.45594000000E+02  0.51100000000E-03 0.  1.
         11   -1    0    0    0    0 -0.00000000000E+00 -0.00000000000E+00 -0.45593999997E+02  0.45594000000E+02  0.51100000000E-03 0. -1.
    9900012    2    1    2    0    0  0.40063668659E+02  0.83633232286E+01 -0.14442320318E+02  0.47787270306E+02  0.19999996632E+02 0.  0.
         12    1    1    2    0    0 -0.40063668659E+02 -0.83633232286E+01  0.14442320318E+02  0.43400729694E+02  0.00000000000E+00 0. -1.
         11    1    3    3    0    0  0.28251344545E+02  0.87106206438E+01 -0.16422402789E+02  0.33818762458E+02  0.51100000000E-03 0. -1.
        -11    1    3    3    0    0  0.30006415595E+01  0.24163238094E+01  0.27016488049E+01  0.47054624689E+01  0.51100000000E-03 0.  1.
        -12    1    3    3    0    0  0.88116825544E+01 -0.27636212246E+01 -0.72156633425E+00  0.92630453787E+01  0.00000000000E+00 0.  1.
</event>
<event>
 7    1  0.1736465E-010  0.4778727E+02  0.7816164E-02  0.1312668E+00
        -11   -1    0    0    0    0  0.00000000000E+00  0.00000000000E+00  0.45593999997E+02  0.45594000000E+02  0.51100000000E-03 0. -1.
         11   -1    0    0    0    0 -0.00000000000E+00 -0.00000000000E+00 -0.45593999997E+02  0.45594000000E+02  0.51100000000E-03 0.  1.
    9900012    2    1    2    0    0  0.93205745238E+01  0.31278576692E+02 -0.28607703621E+02  0.47787272175E+02  0.20000005152E+02 0.  0.
         12    1    1    2    0    0 -0.93205745238E+01 -0.31278576692E+02  0.28607703621E+02  0.43400727825E+02  0.00000000000E+00 0. -1.
         11    1    3    3    0    0  0.16631423125E+01 -0.61230170105E+00 -0.23645682154E+01  0.29550192607E+01  0.51100000000E-03 0. -1.
        -11    1    3    3    0    0  0.10101053382E+02  0.10729759352E+02 -0.13648068942E+02  0.20085537117E+02  0.51100000000E-03 0.  1.
        -12    1    3    3    0    0 -0.24436211708E+01  0.21161119041E+02 -0.12595066463E+02  0.24746715796E+02  0.00000000000E+00 0.  1.
</event>
<event>
 7    1  0.1736465E-010  0.4778727E+02  0.7816164E-02  0.1312668E+00
        -11   -1    0    0    0    0  0.00000000000E+00  0.00000000000E+00  0.45593999997E+02  0.45594000000E+02  0.51100000000E-03 0.  1.
         11   -1    0    0    0    0 -0.00000000000E+00 -0.00000000000E+00 -0.45593999997E+02  0.45594000000E+02  0.51100000000E-03 0. -1.
    9900012    2    1    2    0    0  0.20884055907E+02  0.32020543188E+02  0.20546636494E+02  0.47787271338E+02  0.20000001337E+02 0.  0.
         12    1    1    2    0    0 -0.20884055907E+02 -0.32020543188E+02 -0.20546636494E+02  0.43400728662E+02  0.00000000000E+00 0. -1.
         11    1    3    3    0    0  0.20100730808E+01  0.12029041490E+01 -0.18162191922E+01  0.29641229052E+01  0.51100000000E-03 0. -1.
        -11    1    3    3    0    0  0.99102699893E+01  0.17597832554E+02  0.41857476895E+01  0.20625655041E+02  0.51100000000E-03 0.  1.
        -12    1    3    3    0    0  0.89637128367E+01  0.13219806485E+02  0.18177107997E+02  0.24197493392E+02  0.00000000000E+00 0.  1.
</event>
<event>
 7    1  0.1736465E-010  0.4778734E+02  0.7816164E-02  0.1312667E+00
        -11   -1    0    0    0    0  0.00000000000E+00  0.00000000000E+00  0.45593999997E+02  0.45594000000E+02  0.51100000000E-03 0. -1.
         11   -1    0    0    0    0 -0.00000000000E+00 -0.00000000000E+00 -0.45593999997E+02  0.45594000000E+02  0.51100000000E-03 0.  1.
    9900012    2    1    2    0    0 -0.20205558033E+01  0.13997548653E+02 -0.41031739831E+02  0.47787335401E+02  0.20000293427E+02 0.  0.
         12    1    1    2    0    0  0.20205558033E+01 -0.13997548653E+02  0.41031739831E+02  0.43400664599E+02  0.00000000000E+00 0. -1.
         11    1    3    3    0    0 -0.32037778754E+01 -0.31645265388E+01 -0.21477605076E+01  0.49891177926E+01  0.51100000000E-03 0. -1.
        -11    1    3    3    0    0 -0.17992929951E+01  0.75643273296E+01 -0.15313005145E+02  0.17173952081E+02  0.51100000000E-03 0.  1.
         12    1    3    3    0    0  0.29825150672E+01  0.95977478619E+01 -0.23570974178E+02  0.25624265528E+02  0.00000000000E+00 0. -1.
</event>
<event>
 7    1  0.1736465E-010  0.4778726E+02  0.7816164E-02  0.1312668E+00
        -11   -1    0    0    0    0  0.00000000000E+00  0.00000000000E+00  0.45593999997E+02  0.45594000000E+02  0.51100000000E-03 0. -1.
         11   -1    0    0    0    0 -0.00000000000E+00 -0.00000000000E+00 -0.45593999997E+02  0.45594000000E+02  0.51100000000E-03 0.  1.
    9900012    2    1    2    0    0 -0.29732857317E+01  0.17430954051E+02 -0.39635156687E+02  0.47787259997E+02  0.19999949632E+02 0.  0.
         12    1    1    2    0    0  0.29732857317E+01 -0.17430954051E+02  0.39635156687E+02  0.43400740003E+02  0.00000000000E+00 0. -1.
         11    1    3    3    0    0 -0.49054231453E+01  0.33708766159E+01 -0.65015935914E+00  0.59873777939E+01  0.51100000000E-03 0. -1.
        -11    1    3    3    0    0 -0.11426298577E+01  0.41089746021E+01 -0.16116828733E+02  0.16671575929E+02  0.51100000000E-03 0.  1.
         12    1    3    3    0    0  0.30747672713E+01  0.99511028332E+01 -0.22868168594E+02  0.25128306275E+02  0.00000000000E+00 0. -1.
</event>
<event>
 7    1  0.1736465E-010  0.4778726E+02  0.7816164E-02  0.1312668E+00
        -11   -1    0    0    0    0  0.00000000000E+00  0.00000000000E+00  0.45593999997E+02  0.45594000000E+02  0.51100000000E-03 0. -1.
         11   -1    0    0    0    0 -0.00000000000E+00 -0.00000000000E+00 -0.45593999997E+02  0.45594000000E+02  0.51100000000E-03 0.  1.
    9900012    2    1    2    0    0  0.33627166503E+02 -0.24112525053E+02 -0.13092902022E+02  0.47787259513E+02  0.19999947422E+02 0.  0.
         12    1    1    2    0    0 -0.33627166503E+02  0.24112525053E+02  0.13092902022E+02  0.43400740487E+02  0.00000000000E+00 0. -1.
         11    1    3    3    0    0  0.17703868114E+02 -0.18195604059E+02 -0.15252941514E+01  0.25432921102E+02  0.51100000000E-03 0. -1.
        -11    1    3    3    0    0  0.15097720465E+01 -0.43255321537E+00  0.14767357261E+01  0.21557510483E+01  0.51100000000E-03 0.  1.
        -12    1    3    3    0    0  0.14413526343E+02 -0.54843677789E+01 -0.13044343597E+02  0.20198587362E+02  0.00000000000E+00 0.  1.
</event>
<event>
 7    1  0.1736465E-010  0.4778727E+02  0.7816164E-02  0.1312668E+00
        -11   -1    0    0    0    0  0.00000000000E+00  0.00000000000E+00  0.45593999997E+02  0.45594000000E+02  0.51100000000E-03 0. -1.
         11   -1    0    0    0    0 -0.00000000000E+00 -0.00000000000E+00 -0.45593999997E+02  0.45594000000E+02  0.51100000000E-03 0.  1.
    9900012    2    1    2    0    0  0.73862460281E+01  0.36445034143E+02 -0.22379145623E+02  0.47787270710E+02  0.19999998474E+02 0.  0.
         12    1    1    2    0    0 -0.73862460281E+01 -0.36445034143E+02  0.22379145623E+02  0.43400729290E+02  0.00000000000E+00 0. -1.
         11    1    3    3    0    0 -0.34301354135E+00  0.10969402137E+02 -0.37223693146E+00  0.10981074725E+02  0.51100000000E-03 0. -1.
        -11    1    3    3    0    0  0.10041932811E+02  0.25240549772E+02 -0.19968930486E+02  0.33714743843E+02  0.51100000000E-03 0.  1.
        -12    1    3    3    0    0 -0.23126732411E+01  0.23508223455E+00 -0.20379782059E+01  0.30914521418E+01  0.00000000000E+00 0.  1.
</event>
<event>
 7    1  0.1736465E-010  0.4778727E+02  0.7816164E-02  0.1312668E+00
        -11   -1    0    0    0    0  0.00000000000E+00  0.00000000000E+00  0.45593999997E+02  0.45594000000E+02  0.51100000000E-03 0.  1.
         11   -1    0    0    0    0 -0.00000000000E+00 -0.00000000000E+00 -0.45593999997E+02  0.45594000000E+02  0.51100000000E-03 0. -1.
    9900012    2    1    2    0    0  0.92435072190E+01  0.28994187330E+02  0.30943785270E+02  0.47787272224E+02  0.20000005379E+02 0.  0.
         12    1    1    2    0    0 -0.92435072190E+01 -0.28994187330E+02 -0.30943785270E+02  0.43400727776E+02  0.00000000000E+00 0. -1.
         11    1    3    3    0    0  0.43929663748E+00  0.43211461121E+01  0.10288773008E+02  0.11167996039E+02  0.51100000000E-03 0. -1.
        -11    1    3    3    0    0  0.36268341683E+01  0.14943934250E+02  0.20462514940E+02  0.25596671950E+02  0.51100000000E-03 0.  1.
        -12    1    3    3    0    0  0.51773764132E+01  0.97291069682E+01  0.19249732188E+00  0.11022604236E+02  0.00000000000E+00 0.  1.
</event>
<event>
 7    1  0.1736465E-010  0.4778727E+02  0.7816164E-02  0.1312668E+00
        -11   -1    0    0    0    0  0.00000000000E+00  0.00000000000E+00  0.45593999997E+02  0.45594000000E+02  0.51100000000E-03 0. -1.
         11   -1    0    0    0    0 -0.00000000000E+00 -0.00000000000E+00 -0.45593999997E+02  0.45594000000E+02  0.51100000000E-03 0.  1.
    9900012    2    1    2    0    0  0.13617295101E+02 -0.53903257845E+01 -0.40855073309E+02  0.47787270132E+02  0.19999995841E+02 0.  0.
         12    1    1    2    0    0 -0.13617295101E+02  0.53903257845E+01  0.40855073309E+02  0.43400729868E+02  0.00000000000E+00 0. -1.
         11    1    3    3    0    0  0.42452534531E+01  0.19118806651E+01 -0.75295402895E+00  0.47163974164E+01  0.51100000000E-03 0. -1.
        -11    1    3    3    0    0  0.10399940243E+02 -0.46240752095E+01 -0.22273921114E+02  0.25013364242E+02  0.51100000000E-03 0.  1.
         12    1    3    3    0    0 -0.10278985948E+01 -0.26781312401E+01 -0.17828198166E+02  0.18057508474E+02  0.00000000000E+00 0. -1.
</event>
<event>
 7    1  0.1736465E-010  0.4778727E+02  0.7816164E-02  0.1312668E+00
        -11   -1    0    0    0    0  0.00000000000E+00  0.00000000000E+00  0.45593999997E+02  0.45594000000E+02  0.51100000000E-03 0. -1.
         11   -1    0    0    0    0 -0.00000000000E+00 -0.00000000000E+00 -0.45593999997E+02  0.45594000000E+02  0.51100000000E-03 0.  1.
    9900012    2    1    2    0    0  0.12181092869E+01 -0.43284797957E+02  0.29267645907E+01  0.47787268723E+02  0.19999989414E+02 0.  0.
         12    1    1    2    0    0 -0.12181092869E+01  0.43284797957E+02 -0.29267645907E+01  0.43400731277E+02  0.00000000000E+00 0. -1.
         11    1    3    3    0    0 -0.13748875927E+01 -0.16918303920E+02 -0.30020188154E+01  0.17237500998E+02  0.51100000000E-03 0. -1.
        -11    1    3    3    0    0 -0.47858017007E+01 -0.18630385780E+02  0.30257069209E+01  0.19471776366E+02  0.51100000000E-03 0.  1.
         12    1    3    3    0    0  0.73787985802E+01 -0.77361082569E+01  0.29030764852E+01  0.11077991358E+02  0.00000000000E+00 0. -1.
</event>
<event>
 7    1  0.1736465E-010  0.4778728E+02  0.7816164E-02  0.1312668E+00
        -11   -1    0    0    0    0  0.00000000000E+00  0.00000000000E+00  0.45593999997E+02  0.45594000000E+02  0.51100000000E-03 0.  1.
         11   -1    0    0    0    0 -0.00000000000E+00 -0.00000000000E+00 -0.45593999997E+02  0.45594000000E+02  0.51100000000E-03 0. -1.
    9900012    2    1    2    0    0 -0.28578839922E+02  0.24879994544E+02  0.21162671520E+02  0.47787275517E+02  0.20000020393E+02 0.  0.
         12    1    1    2    0    0  0.28578839922E+02 -0.24879994544E+02 -0.21162671520E+02  0.43400724483E+02  0.00000000000E+00 0. -1.
         11    1    3    3    0    0 -0.15245494590E+02  0.82418271884E+01  0.46389849302E+01  0.17940819439E+02  0.51100000000E-03 0.  1.
        -11    1    3    3    0    0 -0.13185936050E+02  0.11613064417E+02  0.17417122290E+02  0.24740418828E+02  0.51100000000E-03 0. -1.
         12    1    3    3    0    0 -0.14740928116E+00  0.50251029392E+01 -0.89343570031E+00  0.51060372498E+01  0.00000000000E+00 0. -1.
</event>
<event>
 7    1  0.1736465E-010  0.4778726E+02  0.7816164E-02  0.1312668E+00
        -11   -1    0    0    0    0  0.00000000000E+00  0.00000000000E+00  0.45593999997E+02  0.45594000000E+02  0.51100000000E-03 0.  1.
         11   -1    0    0    0    0 -0.00000000000E+00 -0.00000000000E+00 -0.45593999997E+02  0.45594000000E+02  0.51100000000E-03 0. -1.
    9900012    2    1    2    0    0 -0.91559235397E+01  0.36571616078E+02  0.21501400724E+02  0.47787259551E+02  0.19999947599E+02 0.  0.
         12    1    1    2    0    0  0.91559235397E+01 -0.36571616078E+02 -0.21501400724E+02  0.43400740449E+02  0.00000000000E+00 0. -1.
         11    1    3    3    0    0 -0.40752627850E+01  0.64996952540E+01  0.59210015810E+00  0.76944387722E+01  0.51100000000E-03 0. -1.
        -11    1    3    3    0    0 -0.12040620924E+01  0.29086160049E+02  0.21303541588E+02  0.36073471643E+02  0.51100000000E-03 0.  1.
        -12    1    3    3    0    0 -0.38765986624E+01  0.98576077445E+00 -0.39424102255E+00  0.40193491360E+01  0.00000000000E+00 0.  1.
</event>
<event>
 7    1  0.1736465E-010  0.4778727E+02  0.7816164E-02  0.1312668E+00
        -11   -1    0    0    0    0  0.00000000000E+00  0.00000000000E+00  0.45593999997E+02  0.45594000000E+02  0.51100000000E-03 0.  1.
         11   -1    0    0    0    0 -0.00000000000E+00 -0.00000000000E+00 -0.45593999997E+02  0.45594000000E+02  0.51100000000E-03 0. -1.
    9900012    2    1    2    0    0 -0.23988235851E+02 -0.15259488315E+02  0.32792315146E+02  0.47787269873E+02  0.19999994659E+02 0.  0.
         12    1    1    2    0    0  0.23988235851E+02  0.15259488315E+02 -0.32792315146E+02  0.43400730127E+02  0.00000000000E+00 0. -1.
         11    1    3    3    0    0 -0.10622306269E+02 -0.12028875644E+02  0.14540611401E+02  0.21655406251E+02  0.51100000000E-03 0. -1.
        -11    1    3    3    0    0 -0.92192055520E+01 -0.14069239379E+01  0.19341610356E+02  0.21472565692E+02  0.51100000000E-03 0.  1.
         12    1    3    3    0    0 -0.41467240302E+01 -0.18236887329E+01 -0.10899066105E+01  0.46592979296E+01  0.00000000000E+00 0. -1.
</event>
<event>
 7    1  0.1736465E-010  0.4778727E+02  0.7816164E-02  0.1312668E+00
        -11   -1    0    0    0    0  0.00000000000E+00  0.00000000000E+00  0.45593999997E+02  0.45594000000E+02  0.51100000000E-03 0.  1.
         11   -1    0    0    0    0 -0.00000000000E+00 -0.00000000000E+00 -0.45593999997E+02  0.45594000000E+02  0.51100000000E-03 0. -1.
    9900012    2    1    2    0    0  0.22663310727E+01  0.25095022177E+02  0.35337325245E+02  0.47787274775E+02  0.20000017009E+02 0.  0.
         12    1    1    2    0    0 -0.22663310727E+01 -0.25095022177E+02 -0.35337325245E+02  0.43400725225E+02  0.00000000000E+00 0. -1.
         11    1    3    3    0    0 -0.61737296609E+01  0.76300595249E+01  0.69873572067E+01  0.12048066537E+02  0.51100000000E-03 0. -1.
        -11    1    3    3    0    0  0.26606841716E+01  0.46937113793E+01  0.17509549846E+01  0.56723901834E+01  0.51100000000E-03 0.  1.
         12    1    3    3    0    0  0.57793765620E+01  0.12771251273E+02  0.26599013054E+02  0.30066818055E+02  0.00000000000E+00 0. -1.
</event>
<event>
 7    1  0.1736465E-010  0.4778727E+02  0.7816164E-02  0.1312668E+00
        -11   -1    0    0    0    0  0.00000000000E+00  0.00000000000E+00  0.45593999997E+02  0.45594000000E+02  0.51100000000E-03 0.  1.
         11   -1    0    0    0    0 -0.00000000000E+00 -0.00000000000E+00 -0.45593999997E+02  0.45594000000E+02  0.51100000000E-03 0. -1.
    9900012    2    1    2    0    0 -0.76013153195E+01 -0.36423140607E+02  0.22342742005E+02  0.47787270898E+02  0.19999999332E+02 0.  0.
         12    1    1    2    0    0  0.76013153195E+01  0.36423140607E+02 -0.22342742005E+02  0.43400729102E+02  0.00000000000E+00 0. -1.
         11    1    3    3    0    0  0.16554838914E+01  0.29432460696E+00  0.36640108217E+01  0.40314053941E+01  0.51100000000E-03 0.  1.
        -11    1    3    3    0    0  0.15616305247E+00 -0.22413687814E+02  0.97248413789E+01  0.24432976250E+02  0.51100000000E-03 0. -1.
        -12    1    3    3    0    0 -0.94129622633E+01 -0.14303777400E+02  0.89538898048E+01  0.19322889254E+02  0.00000000000E+00 0.  1.
</event>
<event>
 7    1  0.2626644E-010  0.4778727E+02  0.7816164E-02  0.1312668E+00
        -11   -1    0    0    0    0  0.00000000000E+00  0.00000000000E+00  0.45593999997E+02  0.45594000000E+02  0.51100000000E-03 0.  1.
         11   -1    0    0    0    0 -0.00000000000E+00 -0.00000000000E+00 -0.45593999997E+02  0.45594000000E+02  0.51100000000E-03 0. -1.
    9900012    2    1    2    0    0  0.20996910244E+02 -0.24290090946E+02  0.29201791147E+02  0.47787270004E+02  0.19999995257E+02 0.  0.
         12    1    1    2    0    0 -0.20996910244E+02  0.24290090946E+02 -0.29201791147E+02  0.43400729996E+02  0.00000000000E+00 0. -1.
         11    1    3    3    0    0  0.17573610714E+01  0.15367668398E+01 -0.72557459280E+00  0.24446735991E+01  0.51100000000E-03 0. -1.
        -11    1    3    3    0    0  0.16116452301E+02 -0.12921593771E+02  0.16272024033E+02  0.26296128741E+02  0.51100000000E-03 0.  1.
        -12    1    3    3    0    0  0.31230968721E+01 -0.12905264015E+02  0.13655341707E+02  0.19046467664E+02  0.00000000000E+00 0.  1.
</event>
<event>
 7    1  0.1736465E-010  0.4778727E+02  0.7816164E-02  0.1312668E+00
        -11   -1    0    0    0    0  0.00000000000E+00  0.00000000000E+00  0.45593999997E+02  0.45594000000E+02  0.51100000000E-03 0.  1.
         11   -1    0    0    0    0 -0.00000000000E+00 -0.00000000000E+00 -0.45593999997E+02  0.45594000000E+02  0.51100000000E-03 0. -1.
    9900012    2    1    2    0    0 -0.83917673097E+01 -0.18084877480E+02  0.38550470955E+02  0.47787270018E+02  0.19999995322E+02 0.  0.
         12    1    1    2    0    0  0.83917673097E+01  0.18084877480E+02 -0.38550470955E+02  0.43400729982E+02  0.00000000000E+00 0. -1.
         11    1    3    3    0    0  0.45338281973E+01 -0.89428196468E+01  0.89098885975E+01  0.13413267180E+02  0.51100000000E-03 0. -1.
        -11    1    3    3    0    0 -0.37988316671E+01 -0.65763802442E+01  0.16565710547E+02  0.18223684186E+02  0.51100000000E-03 0.  1.
         12    1    3    3    0    0 -0.91267638398E+01 -0.25656775890E+01  0.13074871811E+02  0.16150318652E+02  0.00000000000E+00 0. -1.
</event>
<event>
 7    1  0.1783633E-010  0.4778727E+02  0.7816164E-02  0.1312668E+00
        -11   -1    0    0    0    0  0.00000000000E+00  0.00000000000E+00  0.45593999997E+02  0.45594000000E+02  0.51100000000E-03 0. -1.
         11   -1    0    0    0    0 -0.00000000000E+00 -0.00000000000E+00 -0.45593999997E+02  0.45594000000E+02  0.51100000000E-03 0.  1.
    9900012    2    1    2    0    0  0.37614593684E+02  0.20419601086E+01 -0.21554489719E+02  0.47787270903E+02  0.19999999356E+02 0.  0.
         12    1    1    2    0    0 -0.37614593684E+02 -0.20419601086E+01  0.21554489719E+02  0.43400729097E+02  0.00000000000E+00 0. -1.
         11    1    3    3    0    0  0.97473885872E+01 -0.51819323178E+01 -0.47222016443E+01  0.12006797885E+02  0.51100000000E-03 0. -1.
        -11    1    3    3    0    0  0.64507920584E+00  0.38083719704E+01 -0.37573030672E+01  0.53886130726E+01  0.51100000000E-03 0.  1.
        -12    1    3    3    0    0  0.27222125891E+02  0.34155204560E+01 -0.13074985007E+02  0.30391859946E+02  0.00000000000E+00 0.  1.
</event>
<event>
 7    1  0.1736465E-010  0.4778727E+02  0.7816164E-02  0.1312668E+00
        -11   -1    0    0    0    0  0.00000000000E+00  0.00000000000E+00  0.45593999997E+02  0.45594000000E+02  0.51100000000E-03 0.  1.
         11   -1    0    0    0    0 -0.00000000000E+00 -0.00000000000E+00 -0.45593999997E+02  0.45594000000E+02  0.51100000000E-03 0. -1.
    9900012    2    1    2    0    0 -0.17608472893E+02 -0.24687561924E+02  0.31049788957E+02  0.47787269296E+02  0.19999992027E+02 0.  0.
         12    1    1    2    0    0  0.17608472893E+02  0.24687561924E+02 -0.31049788957E+02  0.43400730704E+02  0.00000000000E+00 0. -1.
         11    1    3    3    0    0 -0.12198736272E+01 -0.14785268302E+02  0.15255551507E+02  0.21279664060E+02  0.51100000000E-03 0.  1.
        -11    1    3    3    0    0 -0.55884396372E+01 -0.44517859087E+01  0.72260120074E+00  0.71813096377E+01  0.51100000000E-03 0. -1.
        -12    1    3    3    0    0 -0.10800159629E+02 -0.54505077135E+01  0.15071636249E+02  0.19326295598E+02  0.00000000000E+00 0.  1.
</event>
<event>
 7    1  0.1736465E-010  0.4778728E+02  0.7816164E-02  0.1312668E+00
        -11   -1    0    0    0    0  0.00000000000E+00  0.00000000000E+00  0.45593999997E+02  0.45594000000E+02  0.51100000000E-03 0.  1.
         11   -1    0    0    0    0 -0.00000000000E+00 -0.00000000000E+00 -0.45593999997E+02  0.45594000000E+02  0.51100000000E-03 0. -1.
    9900012    2    1    2    0    0  0.18766123290E+01 -0.30779557776E+02  0.30540460887E+02  0.47787278785E+02  0.20000035294E+02 0.  0.
         12    1    1    2    0    0 -0.18766123290E+01  0.30779557776E+02 -0.30540460887E+02  0.43400721215E+02  0.00000000000E+00 0. -1.
         11    1    3    3    0    0  0.22539043529E+01 -0.18166502833E+02  0.22837453890E+02  0.29268604518E+02  0.51100000000E-03 0. -1.
        -11    1    3    3    0    0 -0.23892908687E+01 -0.71116017018E+01  0.97599800666E+01  0.12310190932E+02  0.51100000000E-03 0.  1.
         12    1    3    3    0    0  0.20119988448E+01 -0.55014532411E+01 -0.20569730690E+01  0.62084833351E+01  0.00000000000E+00 0. -1.
</event>
<event>
 7    1  0.1736465E-010  0.4778727E+02  0.7816164E-02  0.1312668E+00
        -11   -1    0    0    0    0  0.00000000000E+00  0.00000000000E+00  0.45593999997E+02  0.45594000000E+02  0.51100000000E-03 0.  1.
         11   -1    0    0    0    0 -0.00000000000E+00 -0.00000000000E+00 -0.45593999997E+02  0.45594000000E+02  0.51100000000E-03 0. -1.
    9900012    2    1    2    0    0  0.21526975848E+02  0.23565160278E+02  0.29409113143E+02  0.47787269546E+02  0.19999993166E+02 0.  0.
         12    1    1    2    0    0 -0.21526975848E+02 -0.23565160278E+02 -0.29409113143E+02  0.43400730454E+02  0.00000000000E+00 0. -1.
         11    1    3    3    0    0  0.94362357687E+01 -0.34629586474E+00  0.67959737599E+01  0.11633904156E+02  0.51100000000E-03 0. -1.
        -11    1    3    3    0    0  0.97432268286E+01  0.12492541789E+02  0.16921564523E+02  0.23180453308E+02  0.51100000000E-03 0.  1.
        -12    1    3    3    0    0  0.23475132507E+01  0.11418914354E+02  0.56915748603E+01  0.12972912082E+02  0.00000000000E+00 0.  1.
</event>
<event>
 7    1  0.1736465E-010  0.4778728E+02  0.7816164E-02  0.1312668E+00
        -11   -1    0    0    0    0  0.00000000000E+00  0.00000000000E+00  0.45593999997E+02  0.45594000000E+02  0.51100000000E-03 0.  1.
         11   -1    0    0    0    0 -0.00000000000E+00 -0.00000000000E+00 -0.45593999997E+02  0.45594000000E+02  0.51100000000E-03 0. -1.
    9900012    2    1    2    0    0 -0.15871993031E+02 -0.33672093340E+02  0.22313503576E+02  0.47787280253E+02  0.20000041988E+02 0.  0.
         12    1    1    2    0    0  0.15871993031E+02  0.33672093340E+02 -0.22313503576E+02  0.43400719747E+02  0.00000000000E+00 0. -1.
         11    1    3    3    0    0  0.14710022596E+01 -0.85502547365E+01  0.89425924090E+01  0.12459561106E+02  0.51100000000E-03 0.  1.
        -11    1    3    3    0    0 -0.48735291153E+01 -0.13657335383E+02  0.13635640346E+01  0.14564800134E+02  0.51100000000E-03 0. -1.
        -12    1    3    3    0    0 -0.12469466175E+02 -0.11464503220E+02  0.12007347132E+02  0.20762919013E+02  0.00000000000E+00 0.  1.
</event>
<event>
 7    1  0.1736465E-010  0.4778727E+02  0.7816164E-02  0.1312668E+00
        -11   -1    0    0    0    0  0.00000000000E+00  0.00000000000E+00  0.45593999997E+02  0.45594000000E+02  0.51100000000E-03 0. -1.
         11   -1    0    0    0    0 -0.00000000000E+00 -0.00000000000E+00 -0.45593999997E+02  0.45594000000E+02  0.51100000000E-03 0.  1.
    9900012    2    1    2    0    0 -0.82518817547E+01 -0.41859098780E+02  0.79589967188E+01  0.47787270376E+02  0.19999996952E+02 0.  0.
         12    1    1    2    0    0  0.82518817547E+01  0.41859098780E+02 -0.79589967188E+01  0.43400729624E+02  0.00000000000E+00 0. -1.
         11    1    3    3    0    0 -0.48719567431E+01 -0.30553436886E+02  0.96986017961E+01  0.32423931672E+02  0.51100000000E-03 0. -1.
        -11    1    3    3    0    0  0.29630558308E+01 -0.26528532711E+01  0.13477839112E+01  0.41992680394E+01  0.51100000000E-03 0.  1.
        -12    1    3    3    0    0 -0.63429808424E+01 -0.86528086226E+01 -0.30873889884E+01  0.11164070664E+02  0.00000000000E+00 0.  1.
</event>
<event>
 7    1  0.1736465E-010  0.4778724E+02  0.7816164E-02  0.1312668E+00
        -11   -1    0    0    0    0  0.00000000000E+00  0.00000000000E+00  0.45593999997E+02  0.45594000000E+02  0.51100000000E-03 0. -1.
         11   -1    0    0    0    0 -0.00000000000E+00 -0.00000000000E+00 -0.45593999997E+02  0.45594000000E+02  0.51100000000E-03 0.  1.
    9900012    2    1    2    0    0  0.41469742311E+02 -0.12796902483E+02 -0.35496920682E+00  0.47787236831E+02  0.19999844007E+02 0.  0.
         12    1    1    2    0    0 -0.41469742311E+02  0.12796902483E+02  0.35496920682E+00  0.43400763169E+02  0.00000000000E+00 0. -1.
         11    1    3    3    0    0  0.41751114126E+01  0.76917287572E+00  0.47233190186E+01  0.63508208157E+01  0.51100000000E-03 0. -1.
        -11    1    3    3    0    0  0.24683789046E+02 -0.35641159545E+01 -0.44110814576E+01  0.25326863289E+02  0.51100000000E-03 0.  1.
         12    1    3    3    0    0  0.12610841853E+02 -0.10001959404E+02 -0.66720676787E+00  0.16109552726E+02  0.00000000000E+00 0. -1.
</event>
<event>
 7    1  0.1736465E-010  0.4778726E+02  0.7816164E-02  0.1312668E+00
        -11   -1    0    0    0    0  0.00000000000E+00  0.00000000000E+00  0.45593999997E+02  0.45594000000E+02  0.51100000000E-03 0.  1.
         11   -1    0    0    0    0 -0.00000000000E+00 -0.00000000000E+00 -0.45593999997E+02  0.45594000000E+02  0.51100000000E-03 0. -1.
    9900012    2    1    2    0    0 -0.54943461426E+01 -0.20165378456E+02  0.38036748201E+02  0.47787256441E+02  0.19999933416E+02 0.  0.
         12    1    1    2    0    0  0.54943461426E+01  0.20165378456E+02 -0.38036748201E+02  0.43400743559E+02  0.00000000000E+00 0. -1.
         11    1    3    3    0    0 -0.42837916616E+00 -0.55776796104E+01  0.21680833773E+02  0.22390903776E+02  0.51100000000E-03 0. -1.
        -11    1    3    3    0    0 -0.57582858113E+01 -0.10786710323E+01  0.41806077398E+01  0.71971430454E+01  0.51100000000E-03 0.  1.
        -12    1    3    3    0    0  0.69231883486E+00 -0.13509027813E+02  0.12175306688E+02  0.18199209620E+02  0.00000000000E+00 0.  1.
</event>
<event>
 7    1  0.1736465E-010  0.4778727E+02  0.7816164E-02  0.1312668E+00
        -11   -1    0    0    0    0  0.00000000000E+00  0.00000000000E+00  0.45593999997E+02  0.45594000000E+02  0.51100000000E-03 0. -1.
         11   -1    0    0    0    0 -0.00000000000E+00 -0.00000000000E+00 -0.45593999997E+02  0.45594000000E+02  0.51100000000E-03 0.  1.
    9900012    2    1    2    0    0 -0.37406676681E+02  0.13699157320E+02 -0.17224883752E+02  0.47787274293E+02  0.20000014812E+02 0.  0.
         12    1    1    2    0    0  0.37406676681E+02 -0.13699157320E+02  0.17224883752E+02  0.43400725707E+02  0.00000000000E+00 0. -1.
         11    1    3    3    0    0 -0.14110707532E+01 -0.15815085933E+01 -0.33600757500E+01  0.39727068113E+01  0.51100000000E-03 0. -1.
        -11    1    3    3    0    0 -0.10341835616E+02  0.10902315722E+02 -0.18174428798E+01  0.15136616230E+02  0.51100000000E-03 0.  1.
         12    1    3    3    0    0 -0.25653770312E+02  0.43783501911E+01 -0.12047365123E+02  0.28677951252E+02  0.00000000000E+00 0. -1.
</event>
<event>
 7    1  0.1736465E-010  0.4778727E+02  0.7816164E-02  0.1312668E+00
        -11   -1    0    0    0    0  0.00000000000E+00  0.00000000000E+00  0.45593999997E+02  0.45594000000E+02  0.51100000000E-03 0. -1.
         11   -1    0    0    0    0 -0.00000000000E+00 -0.00000000000E+00 -0.45593999997E+02  0.45594000000E+02  0.51100000000E-03 0.  1.
    9900012    2    1    2    0    0  0.39457862991E+01  0.30899038650E+02 -0.30220910136E+02  0.47787271568E+02  0.20000002385E+02 0.  0.
         12    1    1    2    0    0 -0.39457862991E+01 -0.30899038650E+02  0.30220910136E+02  0.43400728432E+02  0.00000000000E+00 0. -1.
         11    1    3    3    0    0 -0.19502357003E+01  0.14373039731E+02 -0.90992742805E+01  0.17122630729E+02  0.51100000000E-03 0. -1.
        -11    1    3    3    0    0  0.77300929010E+01  0.79985398097E+01 -0.47109203697E+01  0.12079890162E+02  0.51100000000E-03 0.  1.
        -12    1    3    3    0    0 -0.18340709016E+01  0.85274591095E+01 -0.16410715486E+02  0.18584750676E+02  0.00000000000E+00 0.  1.
</event>
<event>
 7    1  0.1736465E-010  0.4778728E+02  0.7816164E-02  0.1312668E+00
        -11   -1    0    0    0    0  0.00000000000E+00  0.00000000000E+00  0.45593999997E+02  0.45594000000E+02  0.51100000000E-03 0.  1.
         11   -1    0    0    0    0 -0.00000000000E+00 -0.00000000000E+00 -0.45593999997E+02  0.45594000000E+02  0.51100000000E-03 0. -1.
    9900012    2    1    2    0    0 -0.18816861434E+02 -0.34710916569E+02  0.18019450802E+02  0.47787278687E+02  0.20000034845E+02 0.  0.
         12    1    1    2    0    0  0.18816861434E+02  0.34710916569E+02 -0.18019450802E+02  0.43400721313E+02  0.00000000000E+00 0. -1.
         11    1    3    3    0    0  0.13050636611E+01 -0.70832572372E+01 -0.87946669210E+00  0.72559758938E+01  0.51100000000E-03 0. -1.
        -11    1    3    3    0    0 -0.10875466724E+02 -0.67943544980E+01  0.45953392739E+01  0.13621900484E+02  0.51100000000E-03 0.  1.
        -12    1    3    3    0    0 -0.92464583720E+01 -0.20833304834E+02  0.14303578220E+02  0.26909402309E+02  0.00000000000E+00 0.  1.
</event>
<event>
 7    1  0.1736465E-010  0.4778727E+02  0.7816164E-02  0.1312668E+00
        -11   -1    0    0    0    0  0.00000000000E+00  0.00000000000E+00  0.45593999997E+02  0.45594000000E+02  0.51100000000E-03 0.  1.
         11   -1    0    0    0    0 -0.00000000000E+00 -0.00000000000E+00 -0.45593999997E+02  0.45594000000E+02  0.51100000000E-03 0. -1.
    9900012    2    1    2    0    0 -0.11686468539E+02  0.33222135722E+02  0.25364142109E+02  0.47787267820E+02  0.19999985299E+02 0.  0.
         12    1    1    2    0    0  0.11686468539E+02 -0.33222135722E+02 -0.25364142109E+02  0.43400732180E+02  0.00000000000E+00 0. -1.
         11    1    3    3    0    0  0.79188736299E+00  0.11738316897E+02  0.42400660272E+01  0.12505731860E+02  0.51100000000E-03 0. -1.
        -11    1    3    3    0    0 -0.11734173871E+02  0.22898934548E+02  0.16949685360E+02  0.30811424406E+02  0.51100000000E-03 0.  1.
         12    1    3    3    0    0 -0.74418203049E+00 -0.14151157235E+01  0.41743907220E+01  0.44701115540E+01  0.00000000000E+00 0. -1.
</event>
<event>
 7    1  0.1736465E-010  0.4778729E+02  0.7816164E-02  0.1312668E+00
        -11   -1    0    0    0    0  0.00000000000E+00  0.00000000000E+00  0.45593999997E+02  0.45594000000E+02  0.51100000000E-03 0.  1.
         11   -1    0    0    0    0 -0.00000000000E+00 -0.00000000000E+00 -0.45593999997E+02  0.45594000000E+02  0.51100000000E-03 0. -1.
    9900012    2    1    2    0    0  0.19765518591E+02 -0.36668480071E+02  0.12180645822E+02  0.47787293917E+02  0.20000104283E+02 0.  0.
         12    1    1    2    0    0 -0.19765518591E+02  0.36668480071E+02 -0.12180645822E+02  0.43400706083E+02  0.00000000000E+00 0. -1.
         11    1    3    3    0    0  0.12375925958E+01 -0.20354403879E+01 -0.22651912664E+01  0.32872092632E+01  0.51100000000E-03 0. -1.
        -11    1    3    3    0    0  0.14642223121E+01 -0.31654701175E+01 -0.30715230909E+01  0.46474081382E+01  0.51100000000E-03 0.  1.
        -12    1    3    3    0    0  0.17063703683E+02 -0.31467569566E+02  0.17517360179E+02  0.39852676515E+02  0.00000000000E+00 0.  1.
</event>
<event>
 7    1  0.1736465E-010  0.4778727E+02  0.7816164E-02  0.1312668E+00
        -11   -1    0    0    0    0  0.00000000000E+00  0.00000000000E+00  0.45593999997E+02  0.45594000000E+02  0.51100000000E-03 0.  1.
         11   -1    0    0    0    0 -0.00000000000E+00 -0.00000000000E+00 -0.45593999997E+02  0.45594000000E+02  0.51100000000E-03 0. -1.
    9900012    2    1    2    0    0 -0.39143402957E+01 -0.43047483281E+02  0.39006781750E+01  0.47787272275E+02  0.20000005612E+02 0.  0.
         12    1    1    2    0    0  0.39143402957E+01  0.43047483281E+02 -0.39006781750E+01  0.43400727725E+02  0.00000000000E+00 0. -1.
         11    1    3    3    0    0 -0.88931879847E+01 -0.16532598770E+02  0.60753381546E+01  0.19731329114E+02  0.51100000000E-03 0. -1.
        -11    1    3    3    0    0  0.18182195333E+01 -0.46195528352E+01 -0.32058862226E+01  0.59096444395E+01  0.51100000000E-03 0.  1.
        -12    1    3    3    0    0  0.31606281558E+01 -0.21895331676E+02  0.10312262431E+01  0.22146298722E+02  0.00000000000E+00 0.  1.
</event>
<event>
 7    1  0.1736465E-010  0.4778727E+02  0.7816164E-02  0.1312668E+00
        -11   -1    0    0    0    0  0.00000000000E+00  0.00000000000E+00  0.45593999997E+02  0.45594000000E+02  0.51100000000E-03 0.  1.
         11   -1    0    0    0    0 -0.00000000000E+00 -0.00000000000E+00 -0.45593999997E+02  0.45594000000E+02  0.51100000000E-03 0. -1.
    9900012    2    1    2    0    0  0.40430287948E+02  0.48786259577E+00  0.15772670303E+02  0.47787270491E+02  0.19999997476E+02 0.  0.
         12    1    1    2    0    0 -0.40430287948E+02 -0.48786259577E+00 -0.15772670303E+02  0.43400729509E+02  0.00000000000E+00 0. -1.
         11    1    3    3    0    0  0.10123607499E+02 -0.44548908278E+01  0.62442339311E+01  0.12701336100E+02  0.51100000000E-03 0. -1.
        -11    1    3    3    0    0  0.84290685045E+01 -0.48137614179E+01  0.40196290218E+01  0.10506136901E+02  0.51100000000E-03 0.  1.
        -12    1    3    3    0    0  0.21877611944E+02  0.97565148415E+01  0.55088073497E+01  0.24579797490E+02  0.00000000000E+00 0.  1.
</event>
<event>
 7    1  0.2285346E-010  0.4778727E+02  0.7816164E-02  0.1312668E+00
        -11   -1    0    0    0    0  0.00000000000E+00  0.00000000000E+00  0.45593999997E+02  0.45594000000E+02  0.51100000000E-03 0. -1.
         11   -1    0    0    0    0 -0.00000000000E+00 -0.00000000000E+00 -0.45593999997E+02  0.45594000000E+02  0.51100000000E-03 0.  1.
    9900012    2    1    2    0    0 -0.33800539716E+01 -0.42709591501E+02 -0.69346521664E+01  0.47787269917E+02  0.19999994862E+02 0.  0.
         12    1    1    2    0    0  0.33800539716E+01  0.42709591501E+02  0.69346521664E+01  0.43400730083E+02  0.00000000000E+00 0. -1.
         11    1    3    3    0    0  0.38874262915E+01 -0.73561888719E+01  0.21426000906E+01  0.85916432247E+01  0.51100000000E-03 0. -1.
        -11    1    3    3    0    0 -0.43052798571E+01 -0.30694758137E+02 -0.32445719529E+01  0.31164576993E+02  0.51100000000E-03 0.  1.
        -12    1    3    3    0    0 -0.29622004060E+01 -0.46586444920E+01 -0.58326803041E+01  0.80310496997E+01  0.00000000000E+00 0.  1.
</event>
<event>
 7    1  0.1736465E-010  0.4778724E+02  0.7816164E-02  0.1312668E+00
        -11   -1    0    0    0    0  0.00000000000E+00  0.00000000000E+00  0.45593999997E+02  0.45594000000E+02  0.51100000000E-03 0. -1.
         11   -1    0    0    0    0 -0.00000000000E+00 -0.00000000000E+00 -0.45593999997E+02  0.45594000000E+02  0.51100000000E-03 0.  1.
    9900012    2    1    2    0    0 -0.26113517615E+02 -0.78340279544E+01 -0.33768892189E+02  0.47787241068E+02  0.19999863323E+02 0.  0.
         12    1    1    2    0    0  0.26113517615E+02  0.78340279544E+01  0.33768892189E+02  0.43400758932E+02  0.00000000000E+00 0. -1.
         11    1    3    3    0    0  0.18913948388E+01 -0.15314491734E+01 -0.87440004369E+01  0.90763569183E+01  0.51100000000E-03 0. -1.
        -11    1    3    3    0    0 -0.11391188611E+02  0.68429514280E+00 -0.11269549012E+02  0.16038396834E+02  0.51100000000E-03 0.  1.
         12    1    3    3    0    0 -0.16613723843E+02 -0.69868739237E+01 -0.13755342740E+02  0.22672487315E+02  0.00000000000E+00 0. -1.
</event>
<event>
 7    1  0.1736465E-010  0.4778726E+02  0.7816164E-02  0.1312668E+00
        -11   -1    0    0    0    0  0.00000000000E+00  0.00000000000E+00  0.45593999997E+02  0.45594000000E+02  0.51100000000E-03 0. -1.
         11   -1    0    0    0    0 -0.00000000000E+00 -0.00000000000E+00 -0.45593999997E+02  0.45594000000E+02  0.51100000000E-03 0.  1.
    9900012    2    1    2    0    0 -0.24486648604E+01  0.18788098393E+02 -0.39046577585E+02  0.47787264730E+02  0.19999971211E+02 0.  0.
         12    1    1    2    0    0  0.24486648604E+01 -0.18788098393E+02  0.39046577585E+02  0.43400735270E+02  0.00000000000E+00 0. -1.
         11    1    3    3    0    0 -0.56701066763E+01  0.53688036885E+01 -0.10880492457E+02  0.13392508322E+02  0.51100000000E-03 0. -1.
        -11    1    3    3    0    0  0.35282686684E+01  0.12365246010E+02 -0.10247581637E+02  0.16442655454E+02  0.51100000000E-03 0.  1.
         12    1    3    3    0    0 -0.30682685238E+00  0.10540486947E+01 -0.17918503490E+02  0.17952100955E+02  0.00000000000E+00 0. -1.
</event>
<event>
 7    1  0.1736465E-010  0.4778726E+02  0.7816164E-02  0.1312668E+00
        -11   -1    0    0    0    0  0.00000000000E+00  0.00000000000E+00  0.45593999997E+02  0.45594000000E+02  0.51100000000E-03 0. -1.
         11   -1    0    0    0    0 -0.00000000000E+00 -0.00000000000E+00 -0.45593999997E+02  0.45594000000E+02  0.51100000000E-03 0.  1.
    9900012    2    1    2    0    0  0.38308475242E+02 -0.20395774254E+02 -0.31163965474E+00  0.47787262655E+02  0.19999961749E+02 0.  0.
         12    1    1    2    0    0 -0.38308475242E+02  0.20395774254E+02  0.31163965474E+00  0.43400737345E+02  0.00000000000E+00 0. -1.
         11    1    3    3    0    0  0.17739227362E+02 -0.10169190221E+02  0.61398178281E+01  0.21349238402E+02  0.51100000000E-03 0. -1.
        -11    1    3    3    0    0  0.19761575796E+02 -0.50515575433E+01 -0.53235312223E+01  0.21080277429E+02  0.51100000000E-03 0.  1.
         12    1    3    3    0    0  0.80767208418E+00 -0.51750264903E+01 -0.11279262605E+01  0.53577468231E+01  0.00000000000E+00 0. -1.
</event>
<event>
 7    1  0.1736465E-010  0.4778727E+02  0.7816164E-02  0.1312668E+00
        -11   -1    0    0    0    0  0.00000000000E+00  0.00000000000E+00  0.45593999997E+02  0.45594000000E+02  0.51100000000E-03 0. -1.
         11   -1    0    0    0    0 -0.00000000000E+00 -0.00000000000E+00 -0.45593999997E+02  0.45594000000E+02  0.51100000000E-03 0.  1.
    9900012    2    1    2    0    0 -0.36579806555E+02 -0.32228800089E+01  0.23133400007E+02  0.47787269602E+02  0.19999993425E+02 0.  0.
         12    1    1    2    0    0  0.36579806555E+02  0.32228800089E+01 -0.23133400007E+02  0.43400730398E+02  0.00000000000E+00 0. -1.
         11    1    3    3    0    0 -0.44014521532E+01  0.34025513893E+01  0.51152728353E+01  0.75575229708E+01  0.51100000000E-03 0. -1.
        -11    1    3    3    0    0 -0.22294196136E+02 -0.10722697595E+02  0.93041616148E+01  0.26430566560E+02  0.51100000000E-03 0.  1.
        -12    1    3    3    0    0 -0.98841582656E+01  0.40972661972E+01  0.87139655571E+01  0.13799180071E+02  0.00000000000E+00 0.  1.
</event>
<event>
 7    1  0.1736465E-010  0.4778725E+02  0.7816164E-02  0.1312668E+00
        -11   -1    0    0    0    0  0.00000000000E+00  0.00000000000E+00  0.45593999997E+02  0.45594000000E+02  0.51100000000E-03 0. -1.
         11   -1    0    0    0    0 -0.00000000000E+00 -0.00000000000E+00 -0.45593999997E+02  0.45594000000E+02  0.51100000000E-03 0.  1.
    9900012    2    1    2    0    0  0.46324797333E+01 -0.38480316573E+02  0.19530239859E+02  0.47787252299E+02  0.19999914532E+02 0.  0.
         12    1    1    2    0    0 -0.46324797333E+01  0.38480316573E+02 -0.19530239859E+02  0.43400747701E+02  0.00000000000E+00 0. -1.
         11    1    3    3    0    0  0.21790886642E+01 -0.30731210101E+02  0.21652540711E+02  0.37656184368E+02  0.51100000000E-03 0. -1.
        -11    1    3    3    0    0  0.34202717491E+01 -0.63338592429E+01  0.25199747369E+00  0.72027449444E+01  0.51100000000E-03 0.  1.
         12    1    3    3    0    0 -0.96688067991E+00 -0.14152472298E+01 -0.23742983263E+01  0.29283229864E+01  0.00000000000E+00 0. -1.
</event>
<event>
 7    1  0.1736465E-010  0.4778727E+02  0.7816164E-02  0.1312668E+00
        -11   -1    0    0    0    0  0.00000000000E+00  0.00000000000E+00  0.45593999997E+02  0.45594000000E+02  0.51100000000E-03 0.  1.
         11   -1    0    0    0    0 -0.00000000000E+00 -0.00000000000E+00 -0.45593999997E+02  0.45594000000E+02  0.51100000000E-03 0. -1.
    9900012    2    1    2    0    0 -0.20218568624E+02  0.61967797535E+01  0.37900297877E+02  0.47787272176E+02  0.20000005157E+02 0.  0.
         12    1    1    2    0    0  0.20218568624E+02 -0.61967797535E+01 -0.37900297877E+02  0.43400727824E+02  0.00000000000E+00 0. -1.
         11    1    3    3    0    0 -0.21648112735E+02  0.95152843305E+01  0.35783092021E+02  0.42890687750E+02  0.51100000000E-03 0.  1.
        -11    1    3    3    0    0 -0.42763108382E-01 -0.24700546407E+01  0.44058033283E+00  0.25094042923E+01  0.51100000000E-03 0. -1.
        -12    1    3    3    0    0  0.14723072189E+01 -0.84844993629E+00  0.16766255236E+01  0.23871801331E+01  0.00000000000E+00 0.  1.
</event>
<event>
 7    1  0.1736465E-010  0.4778727E+02  0.7816164E-02  0.1312668E+00
        -11   -1    0    0    0    0  0.00000000000E+00  0.00000000000E+00  0.45593999997E+02  0.45594000000E+02  0.51100000000E-03 0.  1.
         11   -1    0    0    0    0 -0.00000000000E+00 -0.00000000000E+00 -0.45593999997E+02  0.45594000000E+02  0.51100000000E-03 0. -1.
    9900012    2    1    2    0    0  0.37906683756E+02 -0.21126629081E+02 -0.61013051295E+00  0.47787269719E+02  0.19999993957E+02 0.  0.
         12    1    1    2    0    0 -0.37906683756E+02  0.21126629081E+02  0.61013051295E+00  0.43400730281E+02  0.00000000000E+00 0. -1.
         11    1    3    3    0    0  0.11823429321E+02  0.10358240665E+01  0.24842450960E+01  0.12125917960E+02  0.51100000000E-03 0. -1.
        -11    1    3    3    0    0  0.17911295220E+01 -0.25526652142E+00 -0.23184086254E+01  0.29408034238E+01  0.51100000000E-03 0.  1.
        -12    1    3    3    0    0  0.24292124912E+02 -0.21907186626E+02 -0.77596698353E+00  0.32720548335E+02  0.00000000000E+00 0.  1.
</event>
<event>
 7    1  0.1736465E-010  0.4778727E+02  0.7816164E-02  0.1312668E+00
        -11   -1    0    0    0    0  0.00000000000E+00  0.00000000000E+00  0.45593999997E+02  0.45594000000E+02  0.51100000000E-03 0.  1.
         11   -1    0    0    0    0 -0.00000000000E+00 -0.00000000000E+00 -0.45593999997E+02  0.45594000000E+02  0.51100000000E-03 0. -1.
    9900012    2    1    2    0    0  0.38670447987E+02  0.19570436971E+02 -0.22842436098E+01  0.47787270517E+02  0.19999997595E+02 0.  0.
         12    1    1    2    0    0 -0.38670447987E+02 -0.19570436971E+02  0.22842436098E+01  0.43400729483E+02  0.00000000000E+00 0. -1.
         11    1    3    3    0    0  0.22502118879E+01 -0.10498861058E+01  0.43679181526E+01  0.50243829099E+01  0.51100000000E-03 0. -1.
        -11    1    3    3    0    0  0.24513972769E+02  0.12110170997E+02 -0.20387903207E+01  0.27418019052E+02  0.51100000000E-03 0.  1.
        -12    1    3    3    0    0  0.11906263331E+02  0.85101520797E+01 -0.46133714418E+01  0.15344868555E+02  0.00000000000E+00 0.  1.
</event>
<event>
 7    1  0.1770909E-010  0.4778727E+02  0.7816164E-02  0.1312668E+00
        -11   -1    0    0    0    0  0.00000000000E+00  0.00000000000E+00  0.45593999997E+02  0.45594000000E+02  0.51100000000E-03 0. -1.
         11   -1    0    0    0    0 -0.00000000000E+00 -0.00000000000E+00 -0.45593999997E+02  0.45594000000E+02  0.51100000000E-03 0.  1.
    9900012    2    1    2    0    0  0.14538759469E+02 -0.76316999104E+01 -0.40174678853E+02  0.47787271995E+02  0.20000004336E+02 0.  0.
         12    1    1    2    0    0 -0.14538759469E+02  0.76316999104E+01  0.40174678853E+02  0.43400728005E+02  0.00000000000E+00 0. -1.
         11    1    3    3    0    0  0.87732920740E+01 -0.61766261814E+01 -0.58667799559E+01  0.12228674176E+02  0.51100000000E-03 0. -1.
        -11    1    3    3    0    0  0.61410788189E+01 -0.34954434587E+01 -0.22965036643E+02  0.24027565052E+02  0.51100000000E-03 0.  1.
        -12    1    3    3    0    0 -0.37561142437E+00  0.20403697297E+01 -0.11342862254E+02  0.11531032767E+02  0.00000000000E+00 0.  1.
</event>
<event>
 7    1  0.1736465E-010  0.4778727E+02  0.7816164E-02  0.1312668E+00
        -11   -1    0    0    0    0  0.00000000000E+00  0.00000000000E+00  0.45593999997E+02  0.45594000000E+02  0.51100000000E-03 0. -1.
         11   -1    0    0    0    0 -0.00000000000E+00 -0.00000000000E+00 -0.45593999997E+02  0.45594000000E+02  0.51100000000E-03 0.  1.
    9900012    2    1    2    0    0 -0.29310974708E+02  0.32001889965E+02  0.60744201297E+00  0.47787272063E+02  0.20000004642E+02 0.  0.
         12    1    1    2    0    0  0.29310974708E+02 -0.32001889965E+02 -0.60744201297E+00  0.43400727937E+02  0.00000000000E+00 0. -1.
         11    1    3    3    0    0 -0.10015888877E+02  0.19756130393E+02 -0.18568530255E+01  0.22227699420E+02  0.51100000000E-03 0. -1.
        -11    1    3    3    0    0 -0.43957735710E+00  0.15750292056E+01  0.35064572977E+01  0.38690035272E+01  0.51100000000E-03 0.  1.
        -12    1    3    3    0    0 -0.18855508474E+02  0.10670730367E+02 -0.10421622592E+01  0.21690569115E+02  0.00000000000E+00 0.  1.
</event>
<event>
 7    1  0.1736465E-010  0.4778727E+02  0.7816164E-02  0.1312668E+00
        -11   -1    0    0    0    0  0.00000000000E+00  0.00000000000E+00  0.45593999997E+02  0.45594000000E+02  0.51100000000E-03 0.  1.
         11   -1    0    0    0    0 -0.00000000000E+00 -0.00000000000E+00 -0.45593999997E+02  0.45594000000E+02  0.51100000000E-03 0. -1.
    9900012    2    1    2    0    0 -0.37968949373E+02 -0.18487126735E+02  0.10010413739E+02  0.47787270114E+02  0.19999995758E+02 0.  0.
         12    1    1    2    0    0  0.37968949373E+02  0.18487126735E+02 -0.10010413739E+02  0.43400729886E+02  0.00000000000E+00 0. -1.
         11    1    3    3    0    0 -0.66441164887E+01  0.18423620713E+01  0.24326267099E+01  0.73113784533E+01  0.51100000000E-03 0. -1.
        -11    1    3    3    0    0 -0.24374001935E+02 -0.16589447016E+02 -0.72015277231E-01  0.29484011075E+02  0.51100000000E-03 0.  1.
        -12    1    3    3    0    0 -0.69508309500E+01 -0.37400417897E+01  0.76498023060E+01  0.10991880585E+02  0.00000000000E+00 0.  1.
</event>
<event>
 7    1  0.1736465E-010  0.4778727E+02  0.7816164E-02  0.1312668E+00
        -11   -1    0    0    0    0  0.00000000000E+00  0.00000000000E+00  0.45593999997E+02  0.45594000000E+02  0.51100000000E-03 0.  1.
         11   -1    0    0    0    0 -0.00000000000E+00 -0.00000000000E+00 -0.45593999997E+02  0.45594000000E+02  0.51100000000E-03 0. -1.
    9900012    2    1    2    0    0 -0.61801624461E+01  0.41623099224E+02 -0.10627625682E+02  0.47787271613E+02  0.20000002595E+02 0.  0.
         12    1    1    2    0    0  0.61801624461E+01 -0.41623099224E+02  0.10627625682E+02  0.43400728387E+02  0.00000000000E+00 0. -1.
         11    1    3    3    0    0  0.16427173203E+01  0.86061032959E+01 -0.19599812535E+01  0.89780321290E+01  0.51100000000E-03 0. -1.
        -11    1    3    3    0    0 -0.86063338773E+01  0.58563128418E+01 -0.44101508558E+00  0.10419207142E+02  0.51100000000E-03 0.  1.
        -12    1    3    3    0    0  0.78345411096E+00  0.27160683086E+02 -0.82266293433E+01  0.28390032342E+02  0.00000000000E+00 0.  1.
</event>
<event>
 7    1  0.1736465E-010  0.4778727E+02  0.7816164E-02  0.1312668E+00
        -11   -1    0    0    0    0  0.00000000000E+00  0.00000000000E+00  0.45593999997E+02  0.45594000000E+02  0.51100000000E-03 0.  1.
         11   -1    0    0    0    0 -0.00000000000E+00 -0.00000000000E+00 -0.45593999997E+02  0.45594000000E+02  0.51100000000E-03 0. -1.
    9900012    2    1    2    0    0 -0.19157235034E+02 -0.28789634165E+02  0.26225569126E+02  0.47787272293E+02  0.20000005691E+02 0.  0.
         12    1    1    2    0    0  0.19157235034E+02  0.28789634165E+02 -0.26225569126E+02  0.43400727707E+02  0.00000000000E+00 0. -1.
         11    1    3    3    0    0 -0.11777611518E+02 -0.64898848393E+01  0.82980047908E+01  0.15801506956E+02  0.51100000000E-03 0.  1.
        -11    1    3    3    0    0 -0.87247905415E+01 -0.22013229005E+02  0.13301154208E+02  0.27159251182E+02  0.51100000000E-03 0. -1.
         12    1    3    3    0    0  0.13451670257E+01 -0.28652032067E+00  0.46264101277E+01  0.48265141552E+01  0.00000000000E+00 0. -1.
</event>
<event>
 7    1  0.2338019E-010  0.4778727E+02  0.7816164E-02  0.1312668E+00
        -11   -1    0    0    0    0  0.00000000000E+00  0.00000000000E+00  0.45593999997E+02  0.45594000000E+02  0.51100000000E-03 0.  1.
         11   -1    0    0    0    0 -0.00000000000E+00 -0.00000000000E+00 -0.45593999997E+02  0.45594000000E+02  0.51100000000E-03 0. -1.
    9900012    2    1    2    0    0  0.30551957103E+02  0.28413737800E+02  0.11952437250E+02  0.47787270342E+02  0.19999996800E+02 0.  0.
         12    1    1    2    0    0 -0.30551957103E+02 -0.28413737800E+02 -0.11952437250E+02  0.43400729658E+02  0.00000000000E+00 0. -1.
         11    1    3    3    0    0  0.70997888962E+00 -0.58229535751E+00  0.22775166364E+01  0.24556506668E+01  0.51100000000E-03 0. -1.
        -11    1    3    3    0    0  0.28387868413E+02  0.27690876468E+02  0.12778068746E+02  0.41664550324E+02  0.51100000000E-03 0.  1.
        -12    1    3    3    0    0  0.14541098011E+01  0.13051566897E+01 -0.31031481326E+01  0.36670693519E+01  0.00000000000E+00 0.  1.
</event>
<event>
 7    1  0.1736465E-010  0.4778728E+02  0.7816164E-02  0.1312668E+00
        -11   -1    0    0    0    0  0.00000000000E+00  0.00000000000E+00  0.45593999997E+02  0.45594000000E+02  0.51100000000E-03 0. -1.
         11   -1    0    0    0    0 -0.00000000000E+00 -0.00000000000E+00 -0.45593999997E+02  0.45594000000E+02  0.51100000000E-03 0.  1.
    9900012    2    1    2    0    0  0.14404568072E+02  0.39870405528E+02 -0.92995751103E+01  0.47787275173E+02  0.20000018825E+02 0.  0.
         12    1    1    2    0    0 -0.14404568072E+02 -0.39870405528E+02  0.92995751103E+01  0.43400724827E+02  0.00000000000E+00 0. -1.
         11    1    3    3    0    0  0.78971750888E+01  0.70721198514E+01 -0.89525624982E+00  0.10638690596E+02  0.51100000000E-03 0. -1.
        -11    1    3    3    0    0  0.17029387173E+01  0.57653580190E+00  0.22432041714E+01  0.28747798214E+01  0.51100000000E-03 0.  1.
        -12    1    3    3    0    0  0.48044542656E+01  0.32221749874E+02 -0.10647523032E+02  0.34273804756E+02  0.00000000000E+00 0.  1.
</event>
<event>
 7    1  0.1736465E-010  0.4778727E+02  0.7816164E-02  0.1312668E+00
        -11   -1    0    0    0    0  0.00000000000E+00  0.00000000000E+00  0.45593999997E+02  0.45594000000E+02  0.51100000000E-03 0. -1.
         11   -1    0    0    0    0 -0.00000000000E+00 -0.00000000000E+00 -0.45593999997E+02  0.45594000000E+02  0.51100000000E-03 0.  1.
    9900012    2    1    2    0    0  0.36310970764E+02  0.22138947382E+02 -0.86604687717E+01  0.47787270647E+02  0.19999998187E+02 0.  0.
         12    1    1    2    0    0 -0.36310970764E+02 -0.22138947382E+02  0.86604687717E+01  0.43400729353E+02  0.00000000000E+00 0. -1.
         11    1    3    3    0    0 -0.17185902966E+00 -0.88049720686E+00 -0.41519630820E+00  0.98853380965E+00  0.51100000000E-03 0. -1.
        -11    1    3    3    0    0  0.36849212317E+02  0.19232836976E+02 -0.97718259140E+01  0.42699590730E+02  0.51100000000E-03 0.  1.
        -12    1    3    3    0    0 -0.36638252354E+00  0.37866076134E+01  0.15265534505E+01  0.40991461073E+01  0.00000000000E+00 0.  1.
</event>
<event>
 7    1  0.1736465E-010  0.4778726E+02  0.7816164E-02  0.1312668E+00
        -11   -1    0    0    0    0  0.00000000000E+00  0.00000000000E+00  0.45593999997E+02  0.45594000000E+02  0.51100000000E-03 0.  1.
         11   -1    0    0    0    0 -0.00000000000E+00 -0.00000000000E+00 -0.45593999997E+02  0.45594000000E+02  0.51100000000E-03 0. -1.
    9900012    2    1    2    0    0 -0.18058965617E+02 -0.33313751191E+02 -0.21158724470E+02  0.47787264075E+02  0.19999968226E+02 0.  0.
         12    1    1    2    0    0  0.18058965617E+02  0.33313751191E+02  0.21158724470E+02  0.43400735925E+02  0.00000000000E+00 0. -1.
         11    1    3    3    0    0 -0.40507582483E+01 -0.93911438299E+01 -0.99556691057E+01  0.14272966490E+02  0.51100000000E-03 0. -1.
        -11    1    3    3    0    0 -0.66426214700E+01 -0.21335620078E+02 -0.36314199330E+01  0.22638911526E+02  0.51100000000E-03 0.  1.
        -12    1    3    3    0    0 -0.73655858986E+01 -0.25869872838E+01 -0.75716354315E+01  0.10875386060E+02  0.00000000000E+00 0.  1.
</event>
<event>
 7    1  0.1736465E-010  0.4778727E+02  0.7816164E-02  0.1312668E+00
        -11   -1    0    0    0    0  0.00000000000E+00  0.00000000000E+00  0.45593999997E+02  0.45594000000E+02  0.51100000000E-03 0.  1.
         11   -1    0    0    0    0 -0.00000000000E+00 -0.00000000000E+00 -0.45593999997E+02  0.45594000000E+02  0.51100000000E-03 0. -1.
    9900012    2    1    2    0    0  0.33879775116E+02 -0.22228561215E+02  0.15545909927E+02  0.47787269464E+02  0.19999992795E+02 0.  0.
         12    1    1    2    0    0 -0.33879775116E+02  0.22228561215E+02 -0.15545909927E+02  0.43400730536E+02  0.00000000000E+00 0. -1.
         11    1    3    3    0    0  0.14069341257E+01  0.19182830518E+01  0.11784052480E+01  0.26547905172E+01  0.51100000000E-03 0. -1.
        -11    1    3    3    0    0  0.19655649790E+02 -0.14089313179E+02  0.15624373163E+02  0.28791914690E+02  0.51100000000E-03 0.  1.
        -12    1    3    3    0    0  0.12817191200E+02 -0.10057531088E+02 -0.12568684848E+01  0.16340564257E+02  0.00000000000E+00 0.  1.
</event>
<event>
 7    1  0.1736466E-010  0.4778727E+02  0.7816164E-02  0.1312668E+00
        -11   -1    0    0    0    0  0.00000000000E+00  0.00000000000E+00  0.45593999997E+02  0.45594000000E+02  0.51100000000E-03 0. -1.
         11   -1    0    0    0    0 -0.00000000000E+00 -0.00000000000E+00 -0.45593999997E+02  0.45594000000E+02  0.51100000000E-03 0.  1.
    9900012    2    1    2    0    0  0.38321397601E+01  0.12942927161E+02 -0.41248256337E+02  0.47787270634E+02  0.19999998129E+02 0.  0.
         12    1    1    2    0    0 -0.38321397601E+01 -0.12942927161E+02  0.41248256337E+02  0.43400729366E+02  0.00000000000E+00 0. -1.
         11    1    3    3    0    0  0.97001510940E+00  0.88481416465E+01 -0.96304260135E+01  0.13113948504E+02  0.51100000000E-03 0. -1.
        -11    1    3    3    0    0  0.52424168396E+01  0.60584954718E+01 -0.30258889569E+02  0.31301576636E+02  0.51100000000E-03 0.  1.
         12    1    3    3    0    0 -0.23802921889E+01 -0.19637099571E+01 -0.13589407549E+01  0.33717454939E+01  0.00000000000E+00 0. -1.
</event>
<event>
 7    1  0.1736465E-010  0.4778727E+02  0.7816164E-02  0.1312668E+00
        -11   -1    0    0    0    0  0.00000000000E+00  0.00000000000E+00  0.45593999997E+02  0.45594000000E+02  0.51100000000E-03 0.  1.
         11   -1    0    0    0    0 -0.00000000000E+00 -0.00000000000E+00 -0.45593999997E+02  0.45594000000E+02  0.51100000000E-03 0. -1.
    9900012    2    1    2    0    0 -0.51214340655E+01  0.28301743997E+02  0.32502392229E+02  0.47787270735E+02  0.19999998589E+02 0.  0.
         12    1    1    2    0    0  0.51214340655E+01 -0.28301743997E+02 -0.32502392229E+02  0.43400729265E+02  0.00000000000E+00 0. -1.
         11    1    3    3    0    0 -0.17647676908E+01  0.61855395960E+01  0.94921728811E+01  0.11466326847E+02  0.51100000000E-03 0. -1.
        -11    1    3    3    0    0  0.33921568186E+01  0.89253016832E+01  0.18523266779E+02  0.20839365404E+02  0.51100000000E-03 0.  1.
         12    1    3    3    0    0 -0.67488231933E+01  0.13190902718E+02  0.44869525684E+01  0.15481578484E+02  0.00000000000E+00 0. -1.
</event>
<event>
 7    1  0.1736465E-010  0.4778727E+02  0.7816164E-02  0.1312668E+00
        -11   -1    0    0    0    0  0.00000000000E+00  0.00000000000E+00  0.45593999997E+02  0.45594000000E+02  0.51100000000E-03 0.  1.
         11   -1    0    0    0    0 -0.00000000000E+00 -0.00000000000E+00 -0.45593999997E+02  0.45594000000E+02  0.51100000000E-03 0. -1.
    9900012    2    1    2    0    0 -0.10657435884E+01  0.35028652887E+02  0.25602361427E+02  0.47787271399E+02  0.20000001615E+02 0.  0.
         12    1    1    2    0    0  0.10657435884E+01 -0.35028652887E+02 -0.25602361427E+02  0.43400728601E+02  0.00000000000E+00 0. -1.
         11    1    3    3    0    0  0.39290097147E+01  0.63712535613E+01  0.10942763603E+02  0.13257981174E+02  0.51100000000E-03 0. -1.
        -11    1    3    3    0    0 -0.10256426233E+01  0.40563516384E+01 -0.19148991826E+01  0.46013878934E+01  0.51100000000E-03 0.  1.
        -12    1    3    3    0    0 -0.39691106798E+01  0.24601047687E+02  0.16574497007E+02  0.29927902331E+02  0.00000000000E+00 0.  1.
</event>
<event>
 7    1  0.1736465E-010  0.4778728E+02  0.7816164E-02  0.1312668E+00
        -11   -1    0    0    0    0  0.00000000000E+00  0.00000000000E+00  0.45593999997E+02  0.45594000000E+02  0.51100000000E-03 0.  1.
         11   -1    0    0    0    0 -0.00000000000E+00 -0.00000000000E+00 -0.45593999997E+02  0.45594000000E+02  0.51100000000E-03 0. -1.
    9900012    2    1    2    0    0 -0.26467243698E+02 -0.19679814419E+02  0.28210149678E+02  0.47787278469E+02  0.20000033851E+02 0.  0.
         12    1    1    2    0    0  0.26467243698E+02  0.19679814419E+02 -0.28210149678E+02  0.43400721531E+02  0.00000000000E+00 0. -1.
         11    1    3    3    0    0 -0.24311974585E+01 -0.45555684806E+01  0.66639994267E+01  0.84304693751E+01  0.51100000000E-03 0. -1.
        -11    1    3    3    0    0 -0.92526801383E+01 -0.64022662874E+01  0.18891235584E+02  0.21988176038E+02  0.51100000000E-03 0.  1.
         12    1    3    3    0    0 -0.14783366102E+02 -0.87219796510E+01  0.26549146679E+01  0.17368633056E+02  0.00000000000E+00 0. -1.
</event>
<event>
 7    1  0.1736465E-010  0.4778727E+02  0.7816164E-02  0.1312668E+00
        -11   -1    0    0    0    0  0.00000000000E+00  0.00000000000E+00  0.45593999997E+02  0.45594000000E+02  0.51100000000E-03 0. -1.
         11   -1    0    0    0    0 -0.00000000000E+00 -0.00000000000E+00 -0.45593999997E+02  0.45594000000E+02  0.51100000000E-03 0.  1.
    9900012    2    1    2    0    0 -0.42886365916E+02 -0.55874164193E+01 -0.36282064388E+01  0.47787268604E+02  0.19999988874E+02 0.  0.
         12    1    1    2    0    0  0.42886365916E+02  0.55874164193E+01  0.36282064388E+01  0.43400731396E+02  0.00000000000E+00 0. -1.
         11    1    3    3    0    0 -0.99216659327E+00 -0.94367233558E+00 -0.25406895983E+01  0.28861766962E+01  0.51100000000E-03 0. -1.
        -11    1    3    3    0    0 -0.35250959777E+02 -0.93632492289E+01  0.10071015305E+01  0.36487187547E+02  0.51100000000E-03 0.  1.
        -12    1    3    3    0    0 -0.66432395456E+01  0.47195051452E+01 -0.20946183709E+01  0.84139043610E+01  0.00000000000E+00 0.  1.
</event>
<event>
 7    1  0.1736465E-010  0.4778728E+02  0.7816164E-02  0.1312668E+00
        -11   -1    0    0    0    0  0.00000000000E+00  0.00000000000E+00  0.45593999997E+02  0.45594000000E+02  0.51100000000E-03 0. -1.
         11   -1    0    0    0    0 -0.00000000000E+00 -0.00000000000E+00 -0.45593999997E+02  0.45594000000E+02  0.51100000000E-03 0.  1.
    9900012    2    1    2    0    0  0.19887407955E+01  0.10182760569E+02 -0.42142367506E+02  0.47787276023E+02  0.20000022698E+02 0.  0.
         12    1    1    2    0    0 -0.19887407955E+01 -0.10182760569E+02  0.42142367506E+02  0.43400723977E+02  0.00000000000E+00 0. -1.
         11    1    3    3    0    0  0.74677204233E+01  0.35371243009E+01 -0.17350037619E+02  0.19217229308E+02  0.51100000000E-03 0. -1.
        -11    1    3    3    0    0  0.26388711564E+01  0.53168123841E+00 -0.13326098361E+01  0.30036935855E+01  0.51100000000E-03 0.  1.
        -12    1    3    3    0    0 -0.81178507842E+01  0.61139550293E+01 -0.23459720051E+02  0.25566353129E+02  0.00000000000E+00 0.  1.
</event>
<event>
 7    1  0.1736465E-010  0.4778727E+02  0.7816164E-02  0.1312668E+00
        -11   -1    0    0    0    0  0.00000000000E+00  0.00000000000E+00  0.45593999997E+02  0.45594000000E+02  0.51100000000E-03 0.  1.
         11   -1    0    0    0    0 -0.00000000000E+00 -0.00000000000E+00 -0.45593999997E+02  0.45594000000E+02  0.51100000000E-03 0. -1.
    9900012    2    1    2    0    0 -0.18452763739E+02  0.38708041061E+02  0.66937466857E+01  0.47787272160E+02  0.20000005086E+02 0.  0.
         12    1    1    2    0    0  0.18452763739E+02 -0.38708041061E+02 -0.66937466857E+01  0.43400727840E+02  0.00000000000E+00 0. -1.
         11    1    3    3    0    0 -0.60059690431E+01  0.32453282550E+01  0.17568273513E+01  0.70491320198E+01  0.51100000000E-03 0. -1.
        -11    1    3    3    0    0 -0.33455124784E+01  0.53803177298E+01 -0.46732055893E+01  0.78726820943E+01  0.51100000000E-03 0.  1.
        -12    1    3    3    0    0 -0.91012822172E+01  0.30082395076E+02  0.96101249238E+01  0.32865458046E+02  0.00000000000E+00 0.  1.
</event>
<event>
 7    1  0.1736465E-010  0.4778727E+02  0.7816164E-02  0.1312668E+00
        -11   -1    0    0    0    0  0.00000000000E+00  0.00000000000E+00  0.45593999997E+02  0.45594000000E+02  0.51100000000E-03 0.  1.
         11   -1    0    0    0    0 -0.00000000000E+00 -0.00000000000E+00 -0.45593999997E+02  0.45594000000E+02  0.51100000000E-03 0. -1.
    9900012    2    1    2    0    0  0.28722310498E+02 -0.31255752916E+02  0.90404698968E+01  0.47787270666E+02  0.19999998276E+02 0.  0.
         12    1    1    2    0    0 -0.28722310498E+02  0.31255752916E+02 -0.90404698968E+01  0.43400729334E+02  0.00000000000E+00 0. -1.
         11    1    3    3    0    0  0.16640631234E+01 -0.12937350196E+02  0.11943564704E+01  0.13098497006E+02  0.51100000000E-03 0. -1.
        -11    1    3    3    0    0  0.18977315882E+02 -0.17176354790E+02  0.52954175670E+01  0.26138231184E+02  0.51100000000E-03 0.  1.
        -12    1    3    3    0    0  0.80809314928E+01 -0.11420479300E+01  0.25506958594E+01  0.85505424759E+01  0.00000000000E+00 0.  1.
</event>
<event>
 7    1  0.1736465E-010  0.4778727E+02  0.7816164E-02  0.1312668E+00
        -11   -1    0    0    0    0  0.00000000000E+00  0.00000000000E+00  0.45593999997E+02  0.45594000000E+02  0.51100000000E-03 0.  1.
         11   -1    0    0    0    0 -0.00000000000E+00 -0.00000000000E+00 -0.45593999997E+02  0.45594000000E+02  0.51100000000E-03 0. -1.
    9900012    2    1    2    0    0 -0.40527080843E+01  0.17993535062E+02  0.39286530479E+02  0.47787271620E+02  0.20000002622E+02 0.  0.
         12    1    1    2    0    0  0.40527080843E+01 -0.17993535062E+02 -0.39286530479E+02  0.43400728380E+02  0.00000000000E+00 0. -1.
         11    1    3    3    0    0  0.16233826536E+01 -0.77080770681E+00  0.45869871887E+01  0.49264558753E+01  0.51100000000E-03 0. -1.
        -11    1    3    3    0    0  0.20233387869E+01 -0.19002314264E+01  0.64590191474E+01  0.70301997076E+01  0.51100000000E-03 0.  1.
        -12    1    3    3    0    0 -0.76994295248E+01  0.20664574195E+02  0.28240524143E+02  0.35830616037E+02  0.00000000000E+00 0.  1.
</event>
<event>
 7    1  0.1736465E-010  0.4778728E+02  0.7816164E-02  0.1312668E+00
        -11   -1    0    0    0    0  0.00000000000E+00  0.00000000000E+00  0.45593999997E+02  0.45594000000E+02  0.51100000000E-03 0.  1.
         11   -1    0    0    0    0 -0.00000000000E+00 -0.00000000000E+00 -0.45593999997E+02  0.45594000000E+02  0.51100000000E-03 0. -1.
    9900012    2    1    2    0    0 -0.24378659135E+02  0.18797031826E+01  0.35857639577E+02  0.47787278562E+02  0.20000034275E+02 0.  0.
         12    1    1    2    0    0  0.24378659135E+02 -0.18797031826E+01 -0.35857639577E+02  0.43400721438E+02  0.00000000000E+00 0. -1.
         11    1    3    3    0    0 -0.48101617268E+01 -0.61711215651E+01  0.39312177796E+01  0.87564188285E+01  0.51100000000E-03 0. -1.
        -11    1    3    3    0    0 -0.91490431547E+01  0.13342568067E+01  0.18946843282E+02  0.21082412160E+02  0.51100000000E-03 0.  1.
        -12    1    3    3    0    0 -0.10419454254E+02  0.67165679410E+01  0.12979578516E+02  0.17948447574E+02  0.00000000000E+00 0.  1.
</event>
<event>
 7    1  0.1736465E-010  0.4778729E+02  0.7816164E-02  0.1312668E+00
        -11   -1    0    0    0    0  0.00000000000E+00  0.00000000000E+00  0.45593999997E+02  0.45594000000E+02  0.51100000000E-03 0.  1.
         11   -1    0    0    0    0 -0.00000000000E+00 -0.00000000000E+00 -0.45593999997E+02  0.45594000000E+02  0.51100000000E-03 0. -1.
    9900012    2    1    2    0    0 -0.88822484208E+01 -0.16418298013E+01  0.42450344782E+02  0.47787289013E+02  0.20000081924E+02 0.  0.
         12    1    1    2    0    0  0.88822484208E+01  0.16418298013E+01 -0.42450344782E+02  0.43400710987E+02  0.00000000000E+00 0. -1.
         11    1    3    3    0    0 -0.11937794980E+02  0.22591619249E+01  0.16012137525E+02  0.20099833580E+02  0.51100000000E-03 0.  1.
        -11    1    3    3    0    0  0.97724746864E+00 -0.40097126193E+01  0.69099422916E+01  0.80486092363E+01  0.51100000000E-03 0. -1.
        -12    1    3    3    0    0  0.20782990904E+01  0.10872089302E+00  0.19528264966E+02  0.19638846196E+02  0.00000000000E+00 0.  1.
</event>
<event>
 7    1  0.1736465E-010  0.4778728E+02  0.7816164E-02  0.1312668E+00
        -11   -1    0    0    0    0  0.00000000000E+00  0.00000000000E+00  0.45593999997E+02  0.45594000000E+02  0.51100000000E-03 0. -1.
         11   -1    0    0    0    0 -0.00000000000E+00 -0.00000000000E+00 -0.45593999997E+02  0.45594000000E+02  0.51100000000E-03 0.  1.
    9900012    2    1    2    0    0  0.93655724858E+01  0.40011114646E+02 -0.13964943669E+02  0.47787275410E+02  0.20000019906E+02 0.  0.
         12    1    1    2    0    0 -0.93655724858E+01 -0.40011114646E+02  0.13964943669E+02  0.43400724590E+02  0.00000000000E+00 0. -1.
         11    1    3    3    0    0  0.60230189284E+00 -0.68766893494E+00 -0.74039054443E+00  0.11763649747E+01  0.51100000000E-03 0. -1.
        -11    1    3    3    0    0  0.31485938199E+01  0.23426711612E+01 -0.60138510119E+01  0.71810970935E+01  0.51100000000E-03 0.  1.
        -12    1    3    3    0    0  0.56146767730E+01  0.38356112420E+02 -0.72107021126E+01  0.39429813342E+02  0.00000000000E+00 0.  1.
</event>
<event>
 7    1  0.1736465E-010  0.4778727E+02  0.7816164E-02  0.1312668E+00
        -11   -1    0    0    0    0  0.00000000000E+00  0.00000000000E+00  0.45593999997E+02  0.45594000000E+02  0.51100000000E-03 0. -1.
         11   -1    0    0    0    0 -0.00000000000E+00 -0.00000000000E+00 -0.45593999997E+02  0.45594000000E+02  0.51100000000E-03 0.  1.
    9900012    2    1    2    0    0 -0.20813193369E+02  0.20060108222E+02 -0.32373232803E+02  0.47787272331E+02  0.20000005866E+02 0.  0.
         12    1    1    2    0    0  0.20813193369E+02 -0.20060108222E+02  0.32373232803E+02  0.43400727669E+02  0.00000000000E+00 0. -1.
         11    1    3    3    0    0  0.18994924564E+01  0.23751315331E+01 -0.41068408659E+01  0.51103291039E+01  0.51100000000E-03 0. -1.
        -11    1    3    3    0    0 -0.16849959062E+02  0.10635702744E+02 -0.26793773836E+02  0.33390801276E+02  0.51100000000E-03 0.  1.
        -12    1    3    3    0    0 -0.58627267640E+01  0.70492739449E+01 -0.14726181009E+01  0.92861419508E+01  0.00000000000E+00 0.  1.
</event>
<event>
 7    1  0.1736465E-010  0.4778726E+02  0.7816164E-02  0.1312668E+00
        -11   -1    0    0    0    0  0.00000000000E+00  0.00000000000E+00  0.45593999997E+02  0.45594000000E+02  0.51100000000E-03 0.  1.
         11   -1    0    0    0    0 -0.00000000000E+00 -0.00000000000E+00 -0.45593999997E+02  0.45594000000E+02  0.51100000000E-03 0. -1.
    9900012    2    1    2    0    0 -0.27099566127E+02  0.32523270596E+02  0.95642177520E+01  0.47787264111E+02  0.19999968387E+02 0.  0.
         12    1    1    2    0    0  0.27099566127E+02 -0.32523270596E+02 -0.95642177520E+01  0.43400735889E+02  0.00000000000E+00 0. -1.
         11    1    3    3    0    0 -0.65320831073E+01  0.26870194800E+01  0.59834023408E+01  0.92568508274E+01  0.51100000000E-03 0. -1.
        -11    1    3    3    0    0 -0.58732237121E+01  0.50069679759E+01  0.57098695674E+01  0.96003695669E+01  0.51100000000E-03 0.  1.
         12    1    3    3    0    0 -0.14694259308E+02  0.24829283140E+02 -0.21290541562E+01  0.28930043716E+02  0.00000000000E+00 0. -1.
</event>
<event>
 7    1  0.1736465E-010  0.4778727E+02  0.7816164E-02  0.1312668E+00
        -11   -1    0    0    0    0  0.00000000000E+00  0.00000000000E+00  0.45593999997E+02  0.45594000000E+02  0.51100000000E-03 0. -1.
         11   -1    0    0    0    0 -0.00000000000E+00 -0.00000000000E+00 -0.45593999997E+02  0.45594000000E+02  0.51100000000E-03 0.  1.
    9900012    2    1    2    0    0  0.53959077289E+01  0.36511405814E+02 -0.22834726962E+02  0.47787270396E+02  0.19999997043E+02 0.  0.
         12    1    1    2    0    0 -0.53959077289E+01 -0.36511405814E+02  0.22834726962E+02  0.43400729604E+02  0.00000000000E+00 0. -1.
         11    1    3    3    0    0  0.57813548578E+00  0.36514698349E-01 -0.18475092264E+01  0.19361984830E+01  0.51100000000E-03 0. -1.
        -11    1    3    3    0    0 -0.16482184757E+01  0.30791484716E+02 -0.20883332350E+02  0.37241720227E+02  0.51100000000E-03 0.  1.
        -12    1    3    3    0    0  0.64659907188E+01  0.56834064002E+01 -0.10388538569E+00  0.86093516863E+01  0.00000000000E+00 0.  1.
</event>
<event>
 7    1  0.1736465E-010  0.4778727E+02  0.7816164E-02  0.1312668E+00
        -11   -1    0    0    0    0  0.00000000000E+00  0.00000000000E+00  0.45593999997E+02  0.45594000000E+02  0.51100000000E-03 0.  1.
         11   -1    0    0    0    0 -0.00000000000E+00 -0.00000000000E+00 -0.45593999997E+02  0.45594000000E+02  0.51100000000E-03 0. -1.
    9900012    2    1    2    0    0 -0.16754751168E+02  0.26144719526E+02  0.30320869936E+02  0.47787271901E+02  0.20000003907E+02 0.  0.
         12    1    1    2    0    0  0.16754751168E+02 -0.26144719526E+02 -0.30320869936E+02  0.43400728099E+02  0.00000000000E+00 0. -1.
         11    1    3    3    0    0  0.14644826879E+01  0.74331529235E+01  0.16455059964E+02  0.18115337993E+02  0.51100000000E-03 0. -1.
        -11    1    3    3    0    0 -0.15052569503E+02  0.15570327085E+02  0.12508705337E+02  0.25009651010E+02  0.51100000000E-03 0.  1.
         12    1    3    3    0    0 -0.31666643537E+01  0.31412395178E+01  0.13571046350E+01  0.46622828987E+01  0.00000000000E+00 0. -1.
</event>
<event>
 7    1  0.1736465E-010  0.4778727E+02  0.7816164E-02  0.1312668E+00
        -11   -1    0    0    0    0  0.00000000000E+00  0.00000000000E+00  0.45593999997E+02  0.45594000000E+02  0.51100000000E-03 0.  1.
         11   -1    0    0    0    0 -0.00000000000E+00 -0.00000000000E+00 -0.45593999997E+02  0.45594000000E+02  0.51100000000E-03 0. -1.
    9900012    2    1    2    0    0 -0.38189070470E+02 -0.60788013795E+01  0.19704475097E+02  0.47787271107E+02  0.20000000286E+02 0.  0.
         12    1    1    2    0    0  0.38189070470E+02  0.60788013795E+01 -0.19704475097E+02  0.43400728893E+02  0.00000000000E+00 0. -1.
         11    1    3    3    0    0 -0.10948430313E+02 -0.66540367626E+01  0.11727254959E+02  0.17368731694E+02  0.51100000000E-03 0. -1.
        -11    1    3    3    0    0 -0.56620789327E+00  0.25283563392E+01  0.41359028225E+00  0.26237824489E+01  0.51100000000E-03 0.  1.
        -12    1    3    3    0    0 -0.26674432264E+02 -0.19531209562E+01  0.75636298565E+01  0.27794756964E+02  0.00000000000E+00 0.  1.
</event>
<event>
 7    1  0.1736465E-010  0.4778727E+02  0.7816164E-02  0.1312668E+00
        -11   -1    0    0    0    0  0.00000000000E+00  0.00000000000E+00  0.45593999997E+02  0.45594000000E+02  0.51100000000E-03 0. -1.
         11   -1    0    0    0    0 -0.00000000000E+00 -0.00000000000E+00 -0.45593999997E+02  0.45594000000E+02  0.51100000000E-03 0.  1.
    9900012    2    1    2    0    0  0.65671915824E+01 -0.41848631691E+02  0.94438938611E+01  0.47787272921E+02  0.20000008557E+02 0.  0.
         12    1    1    2    0    0 -0.65671915824E+01  0.41848631691E+02 -0.94438938611E+01  0.43400727079E+02  0.00000000000E+00 0. -1.
         11    1    3    3    0    0  0.49737317158E+01 -0.12386223411E+02 -0.46359604972E+01  0.14129708686E+02  0.51100000000E-03 0. -1.
        -11    1    3    3    0    0  0.24318592364E+01 -0.62684621627E+01  0.44196975092E+00  0.67381670173E+01  0.51100000000E-03 0.  1.
        -12    1    3    3    0    0 -0.83839936975E+00 -0.23193946117E+02  0.13637884607E+02  0.26919397218E+02  0.00000000000E+00 0.  1.
</event>
<event>
 7    1  0.1736465E-010  0.4778727E+02  0.7816164E-02  0.1312668E+00
        -11   -1    0    0    0    0  0.00000000000E+00  0.00000000000E+00  0.45593999997E+02  0.45594000000E+02  0.51100000000E-03 0.  1.
         11   -1    0    0    0    0 -0.00000000000E+00 -0.00000000000E+00 -0.45593999997E+02  0.45594000000E+02  0.51100000000E-03 0. -1.
    9900012    2    1    2    0    0  0.37647068330E+02  0.15339649426E+02  0.15199247357E+02  0.47787265921E+02  0.19999976640E+02 0.  0.
         12    1    1    2    0    0 -0.37647068330E+02 -0.15339649426E+02 -0.15199247357E+02  0.43400734079E+02  0.00000000000E+00 0. -1.
         11    1    3    3    0    0  0.16726287016E+02  0.66454535926E+01  0.12396376077E+02  0.21854081333E+02  0.51100000000E-03 0.  1.
        -11    1    3    3    0    0  0.21225263811E+02  0.10687529069E+02  0.26334822928E+01  0.23909628410E+02  0.51100000000E-03 0. -1.
         12    1    3    3    0    0 -0.30448249700E+00 -0.19933332355E+01  0.16938898755E+00  0.20235561786E+01  0.00000000000E+00 0. -1.
</event>
<event>
 7    1  0.1736465E-010  0.4778727E+02  0.7816164E-02  0.1312668E+00
        -11   -1    0    0    0    0  0.00000000000E+00  0.00000000000E+00  0.45593999997E+02  0.45594000000E+02  0.51100000000E-03 0.  1.
         11   -1    0    0    0    0 -0.00000000000E+00 -0.00000000000E+00 -0.45593999997E+02  0.45594000000E+02  0.51100000000E-03 0. -1.
    9900012    2    1    2    0    0  0.11757800187E+02 -0.10203420617E+02  0.40512567438E+02  0.47787265237E+02  0.19999973522E+02 0.  0.
         12    1    1    2    0    0 -0.11757800187E+02  0.10203420617E+02 -0.40512567438E+02  0.43400734763E+02  0.00000000000E+00 0. -1.
         11    1    3    3    0    0  0.68683719614E+01  0.21502488146E+01  0.96575705120E+01  0.12044366809E+02  0.51100000000E-03 0. -1.
        -11    1    3    3    0    0 -0.29531255520E+01 -0.32602416825E+01  0.27697786613E+01  0.51982497485E+01  0.51100000000E-03 0.  1.
        -12    1    3    3    0    0  0.78425537781E+01 -0.90934277493E+01  0.28085218265E+02  0.30544648680E+02  0.00000000000E+00 0.  1.
</event>
<event>
 7    1  0.1736465E-010  0.4778727E+02  0.7816164E-02  0.1312668E+00
        -11   -1    0    0    0    0  0.00000000000E+00  0.00000000000E+00  0.45593999997E+02  0.45594000000E+02  0.51100000000E-03 0.  1.
         11   -1    0    0    0    0 -0.00000000000E+00 -0.00000000000E+00 -0.45593999997E+02  0.45594000000E+02  0.51100000000E-03 0. -1.
    9900012    2    1    2    0    0  0.39676598966E+01  0.38426445090E+02  0.19781028985E+02  0.47787272874E+02  0.20000008344E+02 0.  0.
         12    1    1    2    0    0 -0.39676598966E+01 -0.38426445090E+02 -0.19781028985E+02  0.43400727126E+02  0.00000000000E+00 0. -1.
         11    1    3    3    0    0  0.41458814234E+01  0.76376845301E+01  0.10814022051E+02  0.13873198296E+02  0.51100000000E-03 0. -1.
        -11    1    3    3    0    0 -0.49925071143E+01  0.12775026855E+02  0.62441067101E+01  0.15070345294E+02  0.51100000000E-03 0.  1.
         12    1    3    3    0    0  0.48142855874E+01  0.18013733705E+02  0.27229002236E+01  0.18843729285E+02  0.00000000000E+00 0. -1.
</event>
<event>
 7    1  0.1736465E-010  0.4778728E+02  0.7816164E-02  0.1312668E+00
        -11   -1    0    0    0    0  0.00000000000E+00  0.00000000000E+00  0.45593999997E+02  0.45594000000E+02  0.51100000000E-03 0. -1.
         11   -1    0    0    0    0 -0.00000000000E+00 -0.00000000000E+00 -0.45593999997E+02  0.45594000000E+02  0.51100000000E-03 0.  1.
    9900012    2    1    2    0    0 -0.27058410966E+02 -0.31498515695E+02 -0.12621726055E+02  0.47787284987E+02  0.20000063571E+02 0.  0.
         12    1    1    2    0    0  0.27058410966E+02  0.31498515695E+02  0.12621726055E+02  0.43400715013E+02  0.00000000000E+00 0. -1.
         11    1    3    3    0    0 -0.21698675581E+02 -0.27083388160E+02 -0.74878264790E+01  0.35502253194E+02  0.51100000000E-03 0.  1.
        -11    1    3    3    0    0 -0.67135042750E+01 -0.17863988144E+01 -0.73659674198E+00  0.69860529196E+01  0.51100000000E-03 0. -1.
         12    1    3    3    0    0  0.13537688897E+01 -0.26287287211E+01 -0.43973028339E+01  0.52989788742E+01  0.00000000000E+00 0. -1.
</event>
<event>
 7    1  0.1736465E-010  0.4778727E+02  0.7816164E-02  0.1312668E+00
        -11   -1    0    0    0    0  0.00000000000E+00  0.00000000000E+00  0.45593999997E+02  0.45594000000E+02  0.51100000000E-03 0.  1.
         11   -1    0    0    0    0 -0.00000000000E+00 -0.00000000000E+00 -0.45593999997E+02  0.45594000000E+02  0.51100000000E-03 0. -1.
    9900012    2    1    2    0    0 -0.10359869380E+02  0.10752622297E+02  0.40751410725E+02  0.47787271251E+02  0.20000000941E+02 0.  0.
         12    1    1    2    0    0  0.10359869380E+02 -0.10752622297E+02 -0.40751410725E+02  0.43400728749E+02  0.00000000000E+00 0. -1.
         11    1    3    3    0    0  0.16958677289E+01  0.81388450754E+01  0.20603867575E+02  0.22217923526E+02  0.51100000000E-03 0. -1.
        -11    1    3    3    0    0 -0.47267781237E+01 -0.14634326507E+01  0.14842572207E+02  0.15645638898E+02  0.51100000000E-03 0.  1.
        -12    1    3    3    0    0 -0.73289589854E+01  0.40772098727E+01  0.53049709436E+01  0.99237088262E+01  0.00000000000E+00 0.  1.
</event>
<event>
 7    1  0.1736465E-010  0.4778727E+02  0.7816164E-02  0.1312668E+00
        -11   -1    0    0    0    0  0.00000000000E+00  0.00000000000E+00  0.45593999997E+02  0.45594000000E+02  0.51100000000E-03 0.  1.
         11   -1    0    0    0    0 -0.00000000000E+00 -0.00000000000E+00 -0.45593999997E+02  0.45594000000E+02  0.51100000000E-03 0. -1.
    9900012    2    1    2    0    0  0.31860080532E+02 -0.12412183941E+02  0.26730061980E+02  0.47787271261E+02  0.20000000986E+02 0.  0.
         12    1    1    2    0    0 -0.31860080532E+02  0.12412183941E+02 -0.26730061980E+02  0.43400728739E+02  0.00000000000E+00 0. -1.
         11    1    3    3    0    0  0.34281120105E+01 -0.38245121005E+01 -0.23707439260E+01  0.56567898836E+01  0.51100000000E-03 0. -1.
        -11    1    3    3    0    0  0.68206807471E+01 -0.79241443105E+00  0.10616102230E+02  0.12643228753E+02  0.51100000000E-03 0.  1.
         12    1    3    3    0    0  0.21611287774E+02 -0.77952574090E+01  0.18484703676E+02  0.29487252624E+02  0.00000000000E+00 0. -1.
</event>
<event>
 7    1  0.1736465E-010  0.4778727E+02  0.7816164E-02  0.1312668E+00
        -11   -1    0    0    0    0  0.00000000000E+00  0.00000000000E+00  0.45593999997E+02  0.45594000000E+02  0.51100000000E-03 0.  1.
         11   -1    0    0    0    0 -0.00000000000E+00 -0.00000000000E+00 -0.45593999997E+02  0.45594000000E+02  0.51100000000E-03 0. -1.
    9900012    2    1    2    0    0 -0.13850765232E+02 -0.40900237854E+02  0.43531390401E+01  0.47787274505E+02  0.20000015777E+02 0.  0.
         12    1    1    2    0    0  0.13850765232E+02  0.40900237854E+02 -0.43531390401E+01  0.43400725495E+02  0.00000000000E+00 0. -1.
         11    1    3    3    0    0 -0.29148849247E+01 -0.37857851493E+01  0.57543074763E+01  0.74793567981E+01  0.51100000000E-03 0. -1.
        -11    1    3    3    0    0  0.84615416377E+00 -0.13790286367E+02 -0.29624068924E+01  0.14130245214E+02  0.51100000000E-03 0.  1.
        -12    1    3    3    0    0 -0.11782034471E+02 -0.23324166337E+02  0.15612384562E+01  0.26177672492E+02  0.00000000000E+00 0.  1.
</event>
<event>
 7    1  0.1736465E-010  0.4778727E+02  0.7816164E-02  0.1312668E+00
        -11   -1    0    0    0    0  0.00000000000E+00  0.00000000000E+00  0.45593999997E+02  0.45594000000E+02  0.51100000000E-03 0.  1.
         11   -1    0    0    0    0 -0.00000000000E+00 -0.00000000000E+00 -0.45593999997E+02  0.45594000000E+02  0.51100000000E-03 0. -1.
    9900012    2    1    2    0    0  0.40394718226E+01  0.91367208434E+01  0.42235366804E+02  0.47787271787E+02  0.20000003386E+02 0.  0.
         12    1    1    2    0    0 -0.40394718226E+01 -0.91367208434E+01 -0.42235366804E+02  0.43400728213E+02  0.00000000000E+00 0. -1.
         11    1    3    3    0    0 -0.26311174978E+01  0.55434297916E+01  0.11011181867E+02  0.12605495607E+02  0.51100000000E-03 0. -1.
        -11    1    3    3    0    0 -0.19237818755E+01  0.61535073733E+01  0.18684077047E+02  0.19765154314E+02  0.51100000000E-03 0.  1.
         12    1    3    3    0    0  0.85943711959E+01 -0.25602163216E+01  0.12540107890E+02  0.15416621866E+02  0.00000000000E+00 0. -1.
</event>
<event>
 7    1  0.1736465E-010  0.4778726E+02  0.7816164E-02  0.1312668E+00
        -11   -1    0    0    0    0  0.00000000000E+00  0.00000000000E+00  0.45593999997E+02  0.45594000000E+02  0.51100000000E-03 0.  1.
         11   -1    0    0    0    0 -0.00000000000E+00 -0.00000000000E+00 -0.45593999997E+02  0.45594000000E+02  0.51100000000E-03 0. -1.
    9900012    2    1    2    0    0 -0.13588274684E+02  0.35765970162E+02 -0.20488495510E+02  0.47787259468E+02  0.19999947217E+02 0.  0.
         12    1    1    2    0    0  0.13588274684E+02 -0.35765970162E+02  0.20488495510E+02  0.43400740532E+02  0.00000000000E+00 0. -1.
         11    1    3    3    0    0  0.29025093834E+01  0.97062134394E+01 -0.70118659990E+01  0.12320771287E+02  0.51100000000E-03 0. -1.
        -11    1    3    3    0    0 -0.11129672472E+01  0.11376577325E+02 -0.33206176124E+01  0.11903432669E+02  0.51100000000E-03 0.  1.
         12    1    3    3    0    0 -0.15377816820E+02  0.14683179397E+02 -0.10156011899E+02  0.23563055512E+02  0.00000000000E+00 0. -1.
</event>
<event>
 7    1  0.1736465E-010  0.4778728E+02  0.7816164E-02  0.1312668E+00
        -11   -1    0    0    0    0  0.00000000000E+00  0.00000000000E+00  0.45593999997E+02  0.45594000000E+02  0.51100000000E-03 0.  1.
         11   -1    0    0    0    0 -0.00000000000E+00 -0.00000000000E+00 -0.45593999997E+02  0.45594000000E+02  0.51100000000E-03 0. -1.
    9900012    2    1    2    0    0  0.30963266576E+02  0.78273820389E+01  0.29387599103E+02  0.47787276876E+02  0.20000026589E+02 0.  0.
         12    1    1    2    0    0 -0.30963266576E+02 -0.78273820389E+01 -0.29387599103E+02  0.43400723124E+02  0.00000000000E+00 0. -1.
         11    1    3    3    0    0  0.80424196202E+01  0.11959166345E+01  0.17392059238E+02  0.19198813889E+02  0.51100000000E-03 0. -1.
        -11    1    3    3    0    0  0.14649894333E+02  0.87383539674E+01  0.10172138020E+02  0.19860781107E+02  0.51100000000E-03 0.  1.
         12    1    3    3    0    0  0.82709526227E+01 -0.21068885630E+01  0.18234018448E+01  0.87276818796E+01  0.00000000000E+00 0. -1.
</event>
<event>
 7    1  0.1736465E-010  0.4778727E+02  0.7816164E-02  0.1312668E+00
        -11   -1    0    0    0    0  0.00000000000E+00  0.00000000000E+00  0.45593999997E+02  0.45594000000E+02  0.51100000000E-03 0.  1.
         11   -1    0    0    0    0 -0.00000000000E+00 -0.00000000000E+00 -0.45593999997E+02  0.45594000000E+02  0.51100000000E-03 0. -1.
    9900012    2    1    2    0    0 -0.70453760148E+01  0.25020236960E+02  0.34755914856E+02  0.47787271916E+02  0.20000003975E+02 0.  0.
         12    1    1    2    0    0  0.70453760148E+01 -0.25020236960E+02 -0.34755914856E+02  0.43400728084E+02  0.00000000000E+00 0. -1.
         11    1    3    3    0    0 -0.71496644261E+01  0.52468022383E+01  0.42821881680E+01  0.98480338597E+01  0.51100000000E-03 0. -1.
        -11    1    3    3    0    0  0.42424384576E+01  0.52148196702E+01  0.52775802270E+01  0.85466649386E+01  0.51100000000E-03 0.  1.
        -12    1    3    3    0    0 -0.41381500462E+01  0.14558615052E+02  0.25196146461E+02  0.29392573118E+02  0.00000000000E+00 0.  1.
</event>
<event>
 7    1  0.1736465E-010  0.4778727E+02  0.7816164E-02  0.1312668E+00
        -11   -1    0    0    0    0  0.00000000000E+00  0.00000000000E+00  0.45593999997E+02  0.45594000000E+02  0.51100000000E-03 0. -1.
         11   -1    0    0    0    0 -0.00000000000E+00 -0.00000000000E+00 -0.45593999997E+02  0.45594000000E+02  0.51100000000E-03 0.  1.
    9900012    2    1    2    0    0 -0.19259389270E+02  0.19890444669E+02 -0.33422588833E+02  0.47787270646E+02  0.19999998184E+02 0.  0.
         12    1    1    2    0    0  0.19259389270E+02 -0.19890444669E+02  0.33422588833E+02  0.43400729354E+02  0.00000000000E+00 0. -1.
         11    1    3    3    0    0 -0.36115302584E+01  0.15001192783E+01 -0.10609567055E+02  0.11307361408E+02  0.51100000000E-03 0. -1.
        -11    1    3    3    0    0 -0.17669058037E+02  0.18291287525E+02 -0.17710569699E+02  0.30990822683E+02  0.51100000000E-03 0.  1.
        -12    1    3    3    0    0  0.20211990254E+01  0.99037865965E-01 -0.51024520790E+01  0.54890865558E+01  0.00000000000E+00 0.  1.
</event>
<event>
 7    1  0.1736465E-010  0.4778727E+02  0.7816164E-02  0.1312668E+00
        -11   -1    0    0    0    0  0.00000000000E+00  0.00000000000E+00  0.45593999997E+02  0.45594000000E+02  0.51100000000E-03 0. -1.
         11   -1    0    0    0    0 -0.00000000000E+00 -0.00000000000E+00 -0.45593999997E+02  0.45594000000E+02  0.51100000000E-03 0.  1.
    9900012    2    1    2    0    0 -0.39040309321E+02 -0.15067948323E+02 -0.11508022925E+02  0.47787269474E+02  0.19999992841E+02 0.  0.
         12    1    1    2    0    0  0.39040309321E+02  0.15067948323E+02  0.11508022925E+02  0.43400730526E+02  0.00000000000E+00 0. -1.
         11    1    3    3    0    0 -0.35476816810E+01  0.14000252627E+01 -0.10682193398E+00  0.38154327713E+01  0.51100000000E-03 0. -1.
        -11    1    3    3    0    0 -0.29652449989E+02 -0.19289934625E+02 -0.12238167174E+02  0.37431832766E+02  0.51100000000E-03 0.  1.
        -12    1    3    3    0    0 -0.58401776510E+01  0.28219610396E+01  0.83696618307E+00  0.65400039370E+01  0.00000000000E+00 0.  1.
</event>
<event>
 7    1  0.1736465E-010  0.4778727E+02  0.7816164E-02  0.1312668E+00
        -11   -1    0    0    0    0  0.00000000000E+00  0.00000000000E+00  0.45593999997E+02  0.45594000000E+02  0.51100000000E-03 0. -1.
         11   -1    0    0    0    0 -0.00000000000E+00 -0.00000000000E+00 -0.45593999997E+02  0.45594000000E+02  0.51100000000E-03 0.  1.
    9900012    2    1    2    0    0 -0.31461621657E+02  0.18814539377E+02 -0.23233661769E+02  0.47787267651E+02  0.19999984527E+02 0.  0.
         12    1    1    2    0    0  0.31461621657E+02 -0.18814539377E+02  0.23233661769E+02  0.43400732349E+02  0.00000000000E+00 0. -1.
         11    1    3    3    0    0 -0.12241599488E+02  0.94616952120E+01 -0.18111558550E+02  0.23820348185E+02  0.51100000000E-03 0. -1.
        -11    1    3    3    0    0 -0.11597439168E+02  0.10521668961E+02 -0.41072892931E+01  0.16188759637E+02  0.51100000000E-03 0.  1.
         12    1    3    3    0    0 -0.76225830008E+01 -0.11688247964E+01 -0.10148139262E+01  0.77781598282E+01  0.00000000000E+00 0. -1.
</event>
<event>
 7    1  0.1736465E-010  0.4778723E+02  0.7816164E-02  0.1312668E+00
        -11   -1    0    0    0    0  0.00000000000E+00  0.00000000000E+00  0.45593999997E+02  0.45594000000E+02  0.51100000000E-03 0.  1.
         11   -1    0    0    0    0 -0.00000000000E+00 -0.00000000000E+00 -0.45593999997E+02  0.45594000000E+02  0.51100000000E-03 0. -1.
    9900012    2    1    2    0    0  0.18534438829E+02 -0.15256373189E+01  0.39214457701E+02  0.47787231750E+02  0.19999820841E+02 0.  0.
         12    1    1    2    0    0 -0.18534438829E+02  0.15256373189E+01 -0.39214457701E+02  0.43400768250E+02  0.00000000000E+00 0. -1.
         11    1    3    3    0    0  0.66856549164E+01  0.28597584034E+01  0.20878023121E+02  0.22108099183E+02  0.51100000000E-03 0. -1.
        -11    1    3    3    0    0  0.93813854317E+01  0.10525234274E+01  0.41984283992E+01  0.10331747164E+02  0.51100000000E-03 0.  1.
         12    1    3    3    0    0  0.24673984806E+01 -0.54379191497E+01  0.14138006181E+02  0.15347385403E+02  0.00000000000E+00 0. -1.
</event>
<event>
 7    1  0.1736465E-010  0.4778727E+02  0.7816164E-02  0.1312668E+00
        -11   -1    0    0    0    0  0.00000000000E+00  0.00000000000E+00  0.45593999997E+02  0.45594000000E+02  0.51100000000E-03 0.  1.
         11   -1    0    0    0    0 -0.00000000000E+00 -0.00000000000E+00 -0.45593999997E+02  0.45594000000E+02  0.51100000000E-03 0. -1.
    9900012    2    1    2    0    0  0.12144874437E+01 -0.14820075109E+02  0.40773932368E+02  0.47787272278E+02  0.20000005626E+02 0.  0.
         12    1    1    2    0    0 -0.12144874437E+01  0.14820075109E+02 -0.40773932368E+02  0.43400727722E+02  0.00000000000E+00 0. -1.
         11    1    3    3    0    0  0.59497449039E+01 -0.27464967108E+01  0.11112348415E+02  0.12900658749E+02  0.51100000000E-03 0. -1.
        -11    1    3    3    0    0 -0.39270335010E+01 -0.22746723939E+01  0.21885533428E+02  0.22351114073E+02  0.51100000000E-03 0.  1.
        -12    1    3    3    0    0 -0.80822395928E+00 -0.97989060042E+01  0.77760505260E+01  0.12535499457E+02  0.00000000000E+00 0.  1.
</event>
<event>
 7    1  0.1736465E-010  0.4778727E+02  0.7816164E-02  0.1312668E+00
        -11   -1    0    0    0    0  0.00000000000E+00  0.00000000000E+00  0.45593999997E+02  0.45594000000E+02  0.51100000000E-03 0.  1.
         11   -1    0    0    0    0 -0.00000000000E+00 -0.00000000000E+00 -0.45593999997E+02  0.45594000000E+02  0.51100000000E-03 0. -1.
    9900012    2    1    2    0    0  0.30694891190E+02  0.20681484168E+02  0.22665455671E+02  0.47787274046E+02  0.20000013686E+02 0.  0.
         12    1    1    2    0    0 -0.30694891190E+02 -0.20681484168E+02 -0.22665455671E+02  0.43400725954E+02  0.00000000000E+00 0. -1.
         11    1    3    3    0    0  0.22432399033E+01  0.14298284673E+01 -0.14306435860E+01  0.30204761282E+01  0.51100000000E-03 0. -1.
        -11    1    3    3    0    0  0.67763015558E+01  0.21625307518E+01 -0.13330079528E+01  0.72368302793E+01  0.51100000000E-03 0.  1.
        -12    1    3    3    0    0  0.21675349730E+02  0.17089124949E+02  0.25429107210E+02  0.37529967639E+02  0.00000000000E+00 0.  1.
</event>
<event>
 7    1  0.1736465E-010  0.4778728E+02  0.7816164E-02  0.1312668E+00
        -11   -1    0    0    0    0  0.00000000000E+00  0.00000000000E+00  0.45593999997E+02  0.45594000000E+02  0.51100000000E-03 0. -1.
         11   -1    0    0    0    0 -0.00000000000E+00 -0.00000000000E+00 -0.45593999997E+02  0.45594000000E+02  0.51100000000E-03 0.  1.
    9900012    2    1    2    0    0  0.14832010707E+01  0.10884586615E+02 -0.41987478726E+02  0.47787280180E+02  0.20000041651E+02 0.  0.
         12    1    1    2    0    0 -0.14832010707E+01 -0.10884586615E+02  0.41987478726E+02  0.43400719820E+02  0.00000000000E+00 0. -1.
         11    1    3    3    0    0 -0.16684178698E+01 -0.34447007389E+01 -0.27560243658E+01  0.47164872453E+01  0.51100000000E-03 0. -1.
        -11    1    3    3    0    0 -0.19253128962E+01  0.18982719256E+00 -0.14674962441E+01  0.24282523754E+01  0.51100000000E-03 0.  1.
         12    1    3    3    0    0  0.50769318367E+01  0.14139460161E+02 -0.37763958116E+02  0.40642540559E+02  0.00000000000E+00 0. -1.
</event>
<event>
 7    1  0.1736465E-010  0.4778727E+02  0.7816164E-02  0.1312668E+00
        -11   -1    0    0    0    0  0.00000000000E+00  0.00000000000E+00  0.45593999997E+02  0.45594000000E+02  0.51100000000E-03 0.  1.
         11   -1    0    0    0    0 -0.00000000000E+00 -0.00000000000E+00 -0.45593999997E+02  0.45594000000E+02  0.51100000000E-03 0. -1.
    9900012    2    1    2    0    0 -0.31306716382E+02  0.25370139207E+02  0.16120453388E+02  0.47787268768E+02  0.19999989622E+02 0.  0.
         12    1    1    2    0    0  0.31306716382E+02 -0.25370139207E+02 -0.16120453388E+02  0.43400731232E+02  0.00000000000E+00 0. -1.
         11    1    3    3    0    0 -0.11111921462E+02  0.19809972655E+02  0.72371841800E+01  0.23838763607E+02  0.51100000000E-03 0. -1.
        -11    1    3    3    0    0 -0.88356894888E+01 -0.17115000331E+00  0.79704337050E+00  0.88732169737E+01  0.51100000000E-03 0.  1.
        -12    1    3    3    0    0 -0.11359105431E+02  0.57313165551E+01  0.80862258374E+01  0.15075288188E+02  0.00000000000E+00 0.  1.
</event>
<event>
 7    1  0.1736465E-010  0.4778727E+02  0.7816164E-02  0.1312668E+00
        -11   -1    0    0    0    0  0.00000000000E+00  0.00000000000E+00  0.45593999997E+02  0.45594000000E+02  0.51100000000E-03 0. -1.
         11   -1    0    0    0    0 -0.00000000000E+00 -0.00000000000E+00 -0.45593999997E+02  0.45594000000E+02  0.51100000000E-03 0.  1.
    9900012    2    1    2    0    0 -0.42500293729E+02 -0.70400717651E+01 -0.52712288124E+01  0.47787269238E+02  0.19999991764E+02 0.  0.
         12    1    1    2    0    0  0.42500293729E+02  0.70400717651E+01  0.52712288124E+01  0.43400730762E+02  0.00000000000E+00 0. -1.
         11    1    3    3    0    0 -0.12680545247E+02 -0.55860686172E+01  0.50962328215E+01  0.14763874139E+02  0.51100000000E-03 0. -1.
        -11    1    3    3    0    0 -0.81927072453E+01  0.38918551309E+01 -0.27142635443E+01  0.94675348014E+01  0.51100000000E-03 0.  1.
        -12    1    3    3    0    0 -0.21627041236E+02 -0.53458582789E+01 -0.76531980896E+01  0.23555860298E+02  0.00000000000E+00 0.  1.
</event>
<event>
 7    1  0.1736465E-010  0.4778727E+02  0.7816164E-02  0.1312668E+00
        -11   -1    0    0    0    0  0.00000000000E+00  0.00000000000E+00  0.45593999997E+02  0.45594000000E+02  0.51100000000E-03 0.  1.
         11   -1    0    0    0    0 -0.00000000000E+00 -0.00000000000E+00 -0.45593999997E+02  0.45594000000E+02  0.51100000000E-03 0. -1.
    9900012    2    1    2    0    0 -0.31170682238E+01 -0.20167816848E+02  0.38303609094E+02  0.47787269357E+02  0.19999992306E+02 0.  0.
         12    1    1    2    0    0  0.31170682238E+01  0.20167816848E+02 -0.38303609094E+02  0.43400730643E+02  0.00000000000E+00 0. -1.
         11    1    3    3    0    0 -0.34415868761E+01 -0.26646251661E+01  0.13778026778E+00  0.43547366355E+01  0.51100000000E-03 0. -1.
        -11    1    3    3    0    0 -0.34710566599E+01 -0.16325789093E+02  0.29386235320E+02  0.33795420554E+02  0.51100000000E-03 0.  1.
         12    1    3    3    0    0  0.37955753122E+01 -0.11774025891E+01  0.87795935060E+01  0.96371121680E+01  0.00000000000E+00 0. -1.
</event>
<event>
 7    1  0.1736465E-010  0.4778727E+02  0.7816164E-02  0.1312668E+00
        -11   -1    0    0    0    0  0.00000000000E+00  0.00000000000E+00  0.45593999997E+02  0.45594000000E+02  0.51100000000E-03 0.  1.
         11   -1    0    0    0    0 -0.00000000000E+00 -0.00000000000E+00 -0.45593999997E+02  0.45594000000E+02  0.51100000000E-03 0. -1.
    9900012    2    1    2    0    0 -0.33738072733E+02 -0.25994576579E+02  0.83455244517E+01  0.47787270264E+02  0.19999996442E+02 0.  0.
         12    1    1    2    0    0  0.33738072733E+02  0.25994576579E+02 -0.83455244517E+01  0.43400729736E+02  0.00000000000E+00 0. -1.
         11    1    3    3    0    0 -0.10193285181E+02 -0.31877241800E+01 -0.15638010555E+01  0.10793985466E+02  0.51100000000E-03 0. -1.
        -11    1    3    3    0    0  0.14262999241E+01  0.42262670026E+00  0.37307657993E-01  0.14880648251E+01  0.51100000000E-03 0.  1.
        -12    1    3    3    0    0 -0.24971087476E+02 -0.23229479099E+02  0.98720178493E+01  0.35505219973E+02  0.00000000000E+00 0.  1.
</event>
<event>
 7    1  0.1736465E-010  0.4778727E+02  0.7816164E-02  0.1312668E+00
        -11   -1    0    0    0    0  0.00000000000E+00  0.00000000000E+00  0.45593999997E+02  0.45594000000E+02  0.51100000000E-03 0. -1.
         11   -1    0    0    0    0 -0.00000000000E+00 -0.00000000000E+00 -0.45593999997E+02  0.45594000000E+02  0.51100000000E-03 0.  1.
    9900012    2    1    2    0    0  0.38647133615E+02  0.18043531573E+02 -0.80282758876E+01  0.47787272102E+02  0.20000004824E+02 0.  0.
         12    1    1    2    0    0 -0.38647133615E+02 -0.18043531573E+02  0.80282758876E+01  0.43400727898E+02  0.00000000000E+00 0. -1.
         11    1    3    3    0    0  0.12802386588E+02  0.11363660603E+02 -0.54502318352E+01  0.17964935624E+02  0.51100000000E-03 0.  1.
        -11    1    3    3    0    0  0.18661795983E+02  0.10505147285E+02 -0.32325629516E+01  0.21658028818E+02  0.51100000000E-03 0. -1.
         12    1    3    3    0    0  0.71829510438E+01 -0.38252763145E+01  0.65451889921E+00  0.81643076602E+01  0.00000000000E+00 0. -1.
</event>
<event>
 7    1  0.1923245E-010  0.4778727E+02  0.7816164E-02  0.1312668E+00
        -11   -1    0    0    0    0  0.00000000000E+00  0.00000000000E+00  0.45593999997E+02  0.45594000000E+02  0.51100000000E-03 0. -1.
         11   -1    0    0    0    0 -0.00000000000E+00 -0.00000000000E+00 -0.45593999997E+02  0.45594000000E+02  0.51100000000E-03 0.  1.
    9900012    2    1    2    0    0 -0.44539646411E+01 -0.42808804012E+02  0.55849808919E+01  0.47787268284E+02  0.19999987412E+02 0.  0.
         12    1    1    2    0    0  0.44539646411E+01  0.42808804012E+02 -0.55849808919E+01  0.43400731716E+02  0.00000000000E+00 0. -1.
         11    1    3    3    0    0  0.28387654945E+01 -0.79134584656E+00  0.14552227742E+01  0.32867143723E+01  0.51100000000E-03 0. -1.
        -11    1    3    3    0    0 -0.18618111451E+01 -0.21346633422E+02 -0.36889927543E+01  0.21742901532E+02  0.51100000000E-03 0.  1.
        -12    1    3    3    0    0 -0.54309189905E+01 -0.20670824743E+02  0.78187508719E+01  0.22757652380E+02  0.00000000000E+00 0.  1.
</event>
<event>
 7    1  0.1736465E-010  0.4778727E+02  0.7816164E-02  0.1312668E+00
        -11   -1    0    0    0    0  0.00000000000E+00  0.00000000000E+00  0.45593999997E+02  0.45594000000E+02  0.51100000000E-03 0.  1.
         11   -1    0    0    0    0 -0.00000000000E+00 -0.00000000000E+00 -0.45593999997E+02  0.45594000000E+02  0.51100000000E-03 0. -1.
    9900012    2    1    2    0    0  0.26498661499E+02 -0.30715426579E+02  0.15427469101E+02  0.47787270812E+02  0.19999998941E+02 0.  0.
         12    1    1    2    0    0 -0.26498661499E+02  0.30715426579E+02 -0.15427469101E+02  0.43400729188E+02  0.00000000000E+00 0. -1.
         11    1    3    3    0    0  0.53629430893E+01 -0.20973500070E+02  0.82476870447E+01  0.23166208270E+02  0.51100000000E-03 0.  1.
        -11    1    3    3    0    0  0.13346019172E+02 -0.72785738169E+01  0.61004853073E+01  0.16380164401E+02  0.51100000000E-03 0. -1.
        -12    1    3    3    0    0  0.77896992375E+01 -0.24633526921E+01  0.10792967488E+01  0.82408981409E+01  0.00000000000E+00 0.  1.
</event>
<event>
 7    1  0.1736465E-010  0.4778727E+02  0.7816164E-02  0.1312668E+00
        -11   -1    0    0    0    0  0.00000000000E+00  0.00000000000E+00  0.45593999997E+02  0.45594000000E+02  0.51100000000E-03 0.  1.
         11   -1    0    0    0    0 -0.00000000000E+00 -0.00000000000E+00 -0.45593999997E+02  0.45594000000E+02  0.51100000000E-03 0. -1.
    9900012    2    1    2    0    0 -0.63343264342E+01  0.41321328994E+02 -0.11663922316E+02  0.47787274142E+02  0.20000014124E+02 0.  0.
         12    1    1    2    0    0  0.63343264342E+01 -0.41321328994E+02  0.11663922316E+02  0.43400725858E+02  0.00000000000E+00 0. -1.
         11    1    3    3    0    0  0.38570199381E+01  0.14305109047E+02 -0.79417080468E+01  0.16810219351E+02  0.51100000000E-03 0. -1.
        -11    1    3    3    0    0 -0.78290077246E+01  0.11592097843E+02 -0.59757810082E+01  0.15211181850E+02  0.51100000000E-03 0.  1.
         12    1    3    3    0    0 -0.23623386477E+01  0.15424122104E+02  0.22535667390E+01  0.15765872942E+02  0.00000000000E+00 0. -1.
</event>
<event>
 7    1  0.1736465E-010  0.4778727E+02  0.7816164E-02  0.1312668E+00
        -11   -1    0    0    0    0  0.00000000000E+00  0.00000000000E+00  0.45593999997E+02  0.45594000000E+02  0.51100000000E-03 0.  1.
         11   -1    0    0    0    0 -0.00000000000E+00 -0.00000000000E+00 -0.45593999997E+02  0.45594000000E+02  0.51100000000E-03 0. -1.
    9900012    2    1    2    0    0 -0.15483297565E+01 -0.16204165750E+02  0.40232462589E+02  0.47787270067E+02  0.19999995546E+02 0.  0.
         12    1    1    2    0    0  0.15483297565E+01  0.16204165750E+02 -0.40232462589E+02  0.43400729933E+02  0.00000000000E+00 0. -1.
         11    1    3    3    0    0 -0.12982738991E+01 -0.24129437335E+01 -0.72579623859E+00  0.28345357678E+01  0.51100000000E-03 0. -1.
        -11    1    3    3    0    0 -0.55709376776E+01 -0.74842038591E+01  0.28678890952E+02  0.30158372644E+02  0.51100000000E-03 0.  1.
         12    1    3    3    0    0  0.53208818201E+01 -0.63070181577E+01  0.12279367876E+02  0.14794361656E+02  0.00000000000E+00 0. -1.
</event>
<event>
 7    1  0.1736465E-010  0.4778726E+02  0.7816164E-02  0.1312668E+00
        -11   -1    0    0    0    0  0.00000000000E+00  0.00000000000E+00  0.45593999997E+02  0.45594000000E+02  0.51100000000E-03 0.  1.
         11   -1    0    0    0    0 -0.00000000000E+00 -0.00000000000E+00 -0.45593999997E+02  0.45594000000E+02  0.51100000000E-03 0. -1.
    9900012    2    1    2    0    0 -0.39864684248E+01 -0.12058534874E+02  0.41500887201E+02  0.47787264611E+02  0.19999970669E+02 0.  0.
         12    1    1    2    0    0  0.39864684248E+01  0.12058534874E+02 -0.41500887201E+02  0.43400735389E+02  0.00000000000E+00 0. -1.
         11    1    3    3    0    0  0.55725201845E-01 -0.98110276700E-01 -0.15578073716E+01  0.15618882779E+01  0.51100000000E-03 0. -1.
        -11    1    3    3    0    0 -0.65910512714E+00 -0.14582853458E+01 -0.17137704698E+00  0.16094676361E+01  0.51100000000E-03 0.  1.
        -12    1    3    3    0    0 -0.33830884995E+01 -0.10502139252E+02  0.43230071620E+02  0.44615908697E+02  0.00000000000E+00 0.  1.
</event>
<event>
 7    1  0.1736465E-010  0.4778727E+02  0.7816164E-02  0.1312668E+00
        -11   -1    0    0    0    0  0.00000000000E+00  0.00000000000E+00  0.45593999997E+02  0.45594000000E+02  0.51100000000E-03 0.  1.
         11   -1    0    0    0    0 -0.00000000000E+00 -0.00000000000E+00 -0.45593999997E+02  0.45594000000E+02  0.51100000000E-03 0. -1.
    9900012    2    1    2    0    0  0.30651574638E+02 -0.18984065819E+02 -0.24160077944E+02  0.47787272482E+02  0.20000006555E+02 0.  0.
         12    1    1    2    0    0 -0.30651574638E+02  0.18984065819E+02  0.24160077944E+02  0.43400727518E+02  0.00000000000E+00 0. -1.
         11    1    3    3    0    0  0.12964497101E+01 -0.66516233324E+01 -0.68377031891E+01  0.96269964148E+01  0.51100000000E-03 0. -1.
        -11    1    3    3    0    0  0.16438643569E+02 -0.11943867505E+02 -0.65873877421E+01  0.21360680020E+02  0.51100000000E-03 0.  1.
         12    1    3    3    0    0  0.12916481359E+02 -0.38857498161E+00 -0.10734987012E+02  0.16799596048E+02  0.00000000000E+00 0. -1.
</event>
<event>
 7    1  0.1736465E-010  0.4778730E+02  0.7816164E-02  0.1312668E+00
        -11   -1    0    0    0    0  0.00000000000E+00  0.00000000000E+00  0.45593999997E+02  0.45594000000E+02  0.51100000000E-03 0.  1.
         11   -1    0    0    0    0 -0.00000000000E+00 -0.00000000000E+00 -0.45593999997E+02  0.45594000000E+02  0.51100000000E-03 0. -1.
    9900012    2    1    2    0    0 -0.17548435533E+02 -0.38827237741E+02 -0.82534339116E+01  0.47787295494E+02  0.20000111475E+02 0.  0.
         12    1    1    2    0    0  0.17548435533E+02  0.38827237741E+02  0.82534339116E+01  0.43400704506E+02  0.00000000000E+00 0. -1.
         11    1    3    3    0    0 -0.12972747304E+02 -0.11801550234E+02 -0.56691847106E+01  0.18431180539E+02  0.51100000000E-03 0. -1.
        -11    1    3    3    0    0 -0.70800579206E+01 -0.13385716125E+02 -0.31890139635E+01  0.15474961281E+02  0.51100000000E-03 0.  1.
         12    1    3    3    0    0  0.25043696920E+01 -0.13639971383E+02  0.60476476244E+00  0.13881153673E+02  0.00000000000E+00 0. -1.
</event>
<event>
 7    1  0.1736465E-010  0.4778727E+02  0.7816164E-02  0.1312668E+00
        -11   -1    0    0    0    0  0.00000000000E+00  0.00000000000E+00  0.45593999997E+02  0.45594000000E+02  0.51100000000E-03 0. -1.
         11   -1    0    0    0    0 -0.00000000000E+00 -0.00000000000E+00 -0.45593999997E+02  0.45594000000E+02  0.51100000000E-03 0.  1.
    9900012    2    1    2    0    0 -0.41401219895E+02 -0.11092268990E+02 -0.68208318503E+01  0.47787272042E+02  0.20000004547E+02 0.  0.
         12    1    1    2    0    0  0.41401219895E+02  0.11092268990E+02  0.68208318503E+01  0.43400727958E+02  0.00000000000E+00 0. -1.
         11    1    3    3    0    0 -0.15744536221E+02 -0.14086736765E+01 -0.24964191964E+01  0.16003340007E+02  0.51100000000E-03 0. -1.
        -11    1    3    3    0    0 -0.71651658897E+01 -0.10678198295E+02 -0.30850399608E+01  0.13224257744E+02  0.51100000000E-03 0.  1.
        -12    1    3    3    0    0 -0.18491517785E+02  0.99460298170E+00 -0.12393726931E+01  0.18559674290E+02  0.00000000000E+00 0.  1.
</event>
<event>
 7    1  0.1736465E-010  0.4778727E+02  0.7816164E-02  0.1312668E+00
        -11   -1    0    0    0    0  0.00000000000E+00  0.00000000000E+00  0.45593999997E+02  0.45594000000E+02  0.51100000000E-03 0.  1.
         11   -1    0    0    0    0 -0.00000000000E+00 -0.00000000000E+00 -0.45593999997E+02  0.45594000000E+02  0.51100000000E-03 0. -1.
    9900012    2    1    2    0    0 -0.20226889514E+02 -0.38245938846E+02 -0.34270121508E+01  0.47787270629E+02  0.19999998105E+02 0.  0.
         12    1    1    2    0    0  0.20226889514E+02  0.38245938846E+02  0.34270121508E+01  0.43400729371E+02  0.00000000000E+00 0. -1.
         11    1    3    3    0    0 -0.15679591428E+01 -0.15680728144E+01  0.40823813547E+01  0.46457707660E+01  0.51100000000E-03 0. -1.
        -11    1    3    3    0    0 -0.11150208901E+02 -0.21136932146E+02  0.95743711103E+00  0.23916808842E+02  0.51100000000E-03 0.  1.
        -12    1    3    3    0    0 -0.75087214700E+01 -0.15540933886E+02 -0.84668306165E+01  0.19224691021E+02  0.00000000000E+00 0.  1.
</event>
<event>
 7    1  0.1736465E-010  0.4778727E+02  0.7816164E-02  0.1312668E+00
        -11   -1    0    0    0    0  0.00000000000E+00  0.00000000000E+00  0.45593999997E+02  0.45594000000E+02  0.51100000000E-03 0.  1.
         11   -1    0    0    0    0 -0.00000000000E+00 -0.00000000000E+00 -0.45593999997E+02  0.45594000000E+02  0.51100000000E-03 0. -1.
    9900012    2    1    2    0    0  0.29750114378E+02  0.18036379169E+02  0.25946925152E+02  0.47787271851E+02  0.20000003678E+02 0.  0.
         12    1    1    2    0    0 -0.29750114378E+02 -0.18036379169E+02 -0.25946925152E+02  0.43400728149E+02  0.00000000000E+00 0. -1.
         11    1    3    3    0    0  0.13092700711E+02  0.51906106733E+01  0.44354784727E+01  0.14765998802E+02  0.51100000000E-03 0. -1.
        -11    1    3    3    0    0  0.10238670172E+02  0.14909370546E+02  0.13616303385E+02  0.22638979993E+02  0.51100000000E-03 0.  1.
         12    1    3    3    0    0  0.64187434938E+01 -0.20636020505E+01  0.78951432943E+01  0.10382293056E+02  0.00000000000E+00 0. -1.
</event>
<event>
 7    1  0.1736465E-010  0.4778727E+02  0.7816164E-02  0.1312668E+00
        -11   -1    0    0    0    0  0.00000000000E+00  0.00000000000E+00  0.45593999997E+02  0.45594000000E+02  0.51100000000E-03 0.  1.
         11   -1    0    0    0    0 -0.00000000000E+00 -0.00000000000E+00 -0.45593999997E+02  0.45594000000E+02  0.51100000000E-03 0. -1.
    9900012    2    1    2    0    0 -0.22228131624E+02  0.13622812117E+02  0.34698014989E+02  0.47787273167E+02  0.20000009678E+02 0.  0.
         12    1    1    2    0    0  0.22228131624E+02 -0.13622812117E+02 -0.34698014989E+02  0.43400726833E+02  0.00000000000E+00 0. -1.
         11    1    3    3    0    0 -0.45825534615E-01 -0.25786008199E+01  0.79192271880E+00  0.26978554486E+01  0.51100000000E-03 0. -1.
        -11    1    3    3    0    0 -0.62165320105E+01 -0.35419079366E-01  0.11880625852E+02  0.13408795459E+02  0.51100000000E-03 0.  1.
         12    1    3    3    0    0 -0.15965774079E+02  0.16236832016E+02  0.22025466418E+02  0.31680622260E+02  0.00000000000E+00 0. -1.
</event>
<event>
 7    1  0.1736465E-010  0.4778727E+02  0.7816164E-02  0.1312668E+00
        -11   -1    0    0    0    0  0.00000000000E+00  0.00000000000E+00  0.45593999997E+02  0.45594000000E+02  0.51100000000E-03 0. -1.
         11   -1    0    0    0    0 -0.00000000000E+00 -0.00000000000E+00 -0.45593999997E+02  0.45594000000E+02  0.51100000000E-03 0.  1.
    9900012    2    1    2    0    0 -0.19126704633E+02 -0.24935363811E+02 -0.29933594004E+02  0.47787271337E+02  0.20000001332E+02 0.  0.
         12    1    1    2    0    0  0.19126704633E+02  0.24935363811E+02  0.29933594004E+02  0.43400728663E+02  0.00000000000E+00 0. -1.
         11    1    3    3    0    0 -0.12850635024E+01  0.15193540259E+01 -0.36432499655E+00  0.20230071244E+01  0.51100000000E-03 0. -1.
        -11    1    3    3    0    0 -0.33510557953E+01  0.11366008241E+01 -0.47541188108E+01  0.59264730072E+01  0.51100000000E-03 0.  1.
        -12    1    3    3    0    0 -0.14490585335E+02 -0.27591318661E+02 -0.24815150197E+02  0.39837791205E+02  0.00000000000E+00 0.  1.
</event>
<event>
 7    1  0.1736465E-010  0.4778725E+02  0.7816164E-02  0.1312668E+00
        -11   -1    0    0    0    0  0.00000000000E+00  0.00000000000E+00  0.45593999997E+02  0.45594000000E+02  0.51100000000E-03 0. -1.
         11   -1    0    0    0    0 -0.00000000000E+00 -0.00000000000E+00 -0.45593999997E+02  0.45594000000E+02  0.51100000000E-03 0.  1.
    9900012    2    1    2    0    0  0.17595956768E+02  0.36214422286E+02 -0.16202549455E+02  0.47787254788E+02  0.19999925882E+02 0.  0.
         12    1    1    2    0    0 -0.17595956768E+02 -0.36214422286E+02  0.16202549455E+02  0.43400745212E+02  0.00000000000E+00 0. -1.
         11    1    3    3    0    0  0.13146750094E+01 -0.53227983190E+00  0.25860276868E+01  0.29494459917E+01  0.51100000000E-03 0. -1.
        -11    1    3    3    0    0  0.93561765492E+01  0.13313195518E+02 -0.72022265638E+01  0.17794698150E+02  0.51100000000E-03 0.  1.
         12    1    3    3    0    0  0.69251052098E+01  0.23433506600E+02 -0.11586350577E+02  0.27043110646E+02  0.00000000000E+00 0. -1.
</event>
<event>
 7    1  0.1736465E-010  0.4778727E+02  0.7816164E-02  0.1312668E+00
        -11   -1    0    0    0    0  0.00000000000E+00  0.00000000000E+00  0.45593999997E+02  0.45594000000E+02  0.51100000000E-03 0. -1.
         11   -1    0    0    0    0 -0.00000000000E+00 -0.00000000000E+00 -0.45593999997E+02  0.45594000000E+02  0.51100000000E-03 0.  1.
    9900012    2    1    2    0    0 -0.30715787483E+02  0.29774340529E+02 -0.73247992806E+01  0.47787266836E+02  0.19999980814E+02 0.  0.
         12    1    1    2    0    0  0.30715787483E+02 -0.29774340529E+02  0.73247992806E+01  0.43400733164E+02  0.00000000000E+00 0. -1.
         11    1    3    3    0    0 -0.56913035595E+00  0.27045215206E+01  0.34320125325E+01  0.44064789007E+01  0.51100000000E-03 0. -1.
        -11    1    3    3    0    0 -0.14503594552E+02  0.59018569187E+01 -0.50041815286E+01  0.16438613173E+02  0.51100000000E-03 0.  1.
        -12    1    3    3    0    0 -0.15643062576E+02  0.21167962090E+02 -0.57526302845E+01  0.26942174763E+02  0.00000000000E+00 0.  1.
</event>
<event>
 7    1  0.1736465E-010  0.4778727E+02  0.7816164E-02  0.1312668E+00
        -11   -1    0    0    0    0  0.00000000000E+00  0.00000000000E+00  0.45593999997E+02  0.45594000000E+02  0.51100000000E-03 0.  1.
         11   -1    0    0    0    0 -0.00000000000E+00 -0.00000000000E+00 -0.45593999997E+02  0.45594000000E+02  0.51100000000E-03 0. -1.
    9900012    2    1    2    0    0  0.15297320058E+02 -0.30135160793E+02  0.27230268944E+02  0.47787268857E+02  0.19999990028E+02 0.  0.
         12    1    1    2    0    0 -0.15297320058E+02  0.30135160793E+02 -0.27230268944E+02  0.43400731143E+02  0.00000000000E+00 0. -1.
         11    1    3    3    0    0  0.56699814396E+01 -0.24061109101E+01 -0.12560457901E+01  0.62861522830E+01  0.51100000000E-03 0. -1.
        -11    1    3    3    0    0  0.58266767345E+01 -0.77970867432E+01  0.11259796379E+02  0.14883807920E+02  0.51100000000E-03 0.  1.
         12    1    3    3    0    0  0.38006618838E+01 -0.19931963139E+02  0.17226518356E+02  0.26617308654E+02  0.00000000000E+00 0. -1.
</event>
<event>
 7    1  0.1736465E-010  0.4778727E+02  0.7816164E-02  0.1312668E+00
        -11   -1    0    0    0    0  0.00000000000E+00  0.00000000000E+00  0.45593999997E+02  0.45594000000E+02  0.51100000000E-03 0.  1.
         11   -1    0    0    0    0 -0.00000000000E+00 -0.00000000000E+00 -0.45593999997E+02  0.45594000000E+02  0.51100000000E-03 0. -1.
    9900012    2    1    2    0    0 -0.83636801779E+01  0.37535531321E-01  0.42587213655E+02  0.47787270490E+02  0.19999997474E+02 0.  0.
         12    1    1    2    0    0  0.83636801779E+01 -0.37535531321E-01 -0.42587213655E+02  0.43400729510E+02  0.00000000000E+00 0. -1.
         11    1    3    3    0    0 -0.83836300750E+01 -0.34921166582E+01  0.18569017979E+02  0.20670959362E+02  0.51100000000E-03 0. -1.
        -11    1    3    3    0    0  0.31307876302E+01  0.54070668741E+01  0.22182161426E+02  0.23045313822E+02  0.51100000000E-03 0.  1.
         12    1    3    3    0    0 -0.31108377331E+01 -0.18774146846E+01  0.18360342507E+01  0.40709973065E+01  0.00000000000E+00 0. -1.
</event>
<event>
 7    1  0.1736465E-010  0.4778729E+02  0.7816164E-02  0.1312668E+00
        -11   -1    0    0    0    0  0.00000000000E+00  0.00000000000E+00  0.45593999997E+02  0.45594000000E+02  0.51100000000E-03 0. -1.
         11   -1    0    0    0    0 -0.00000000000E+00 -0.00000000000E+00 -0.45593999997E+02  0.45594000000E+02  0.51100000000E-03 0.  1.
    9900012    2    1    2    0    0  0.13305702638E+02 -0.24472265764E+02 -0.33281952912E+02  0.47787286826E+02  0.20000071956E+02 0.  0.
         12    1    1    2    0    0 -0.13305702638E+02  0.24472265764E+02  0.33281952912E+02  0.43400713174E+02  0.00000000000E+00 0. -1.
         11    1    3    3    0    0  0.47927695130E+01  0.21529226103E+01 -0.19739608838E+01  0.56126853824E+01  0.51100000000E-03 0. -1.
        -11    1    3    3    0    0  0.15261310892E+01 -0.87589052640E+01 -0.77565897961E+01  0.11798821257E+02  0.51100000000E-03 0.  1.
         12    1    3    3    0    0  0.69868020359E+01 -0.17866283111E+02 -0.23551402232E+02  0.30375780187E+02  0.00000000000E+00 0. -1.
</event>
<event>
 7    1  0.1736465E-010  0.4778728E+02  0.7816164E-02  0.1312668E+00
        -11   -1    0    0    0    0  0.00000000000E+00  0.00000000000E+00  0.45593999997E+02  0.45594000000E+02  0.51100000000E-03 0.  1.
         11   -1    0    0    0    0 -0.00000000000E+00 -0.00000000000E+00 -0.45593999997E+02  0.45594000000E+02  0.51100000000E-03 0. -1.
    9900012    2    1    2    0    0  0.28255476823E+02  0.13492261316E+02  0.30053448290E+02  0.47787276042E+02  0.20000022787E+02 0.  0.
         12    1    1    2    0    0 -0.28255476823E+02 -0.13492261316E+02 -0.30053448290E+02  0.43400723958E+02  0.00000000000E+00 0. -1.
         11    1    3    3    0    0 -0.89389917334E+00  0.47857989251E+01  0.50586018963E+01  0.70208532593E+01  0.51100000000E-03 0. -1.
        -11    1    3    3    0    0  0.93842093960E+01 -0.17394254503E+01  0.10141217390E+02  0.13925992866E+02  0.51100000000E-03 0.  1.
         12    1    3    3    0    0  0.19765166601E+02  0.10445887842E+02  0.14853629003E+02  0.26840429917E+02  0.00000000000E+00 0. -1.
</event>
<event>
 7    1  0.1736465E-010  0.4778728E+02  0.7816164E-02  0.1312668E+00
        -11   -1    0    0    0    0  0.00000000000E+00  0.00000000000E+00  0.45593999997E+02  0.45594000000E+02  0.51100000000E-03 0.  1.
         11   -1    0    0    0    0 -0.00000000000E+00 -0.00000000000E+00 -0.45593999997E+02  0.45594000000E+02  0.51100000000E-03 0. -1.
    9900012    2    1    2    0    0  0.39481743990E+02 -0.18009508449E+02 -0.68699710752E+00  0.47787280327E+02  0.20000042324E+02 0.  0.
         12    1    1    2    0    0 -0.39481743990E+02  0.18009508449E+02  0.68699710752E+00  0.43400719673E+02  0.00000000000E+00 0. -1.
         11    1    3    3    0    0  0.81991830255E+01 -0.64332622988E+00  0.36745712032E+01  0.90079378723E+01  0.51100000000E-03 0.  1.
        -11    1    3    3    0    0  0.47054458233E+01  0.17610675932E+01 -0.33129769926E+01  0.60181721709E+01  0.51100000000E-03 0. -1.
        -12    1    3    3    0    0  0.26577115141E+02 -0.19127249812E+02 -0.10485913182E+01  0.32761170284E+02  0.00000000000E+00 0.  1.
</event>
