<event>
 7    1  0.1503436E-008  0.4614232E+02  0.7816164E-02  0.1320468E+00
        -11   -1    0    0    0    0  0.00000000000E+00  0.00000000000E+00  0.45593999997E+02  0.45594000000E+02  0.51100000000E-03 0.  1.
         11   -1    0    0    0    0 -0.00000000000E+00 -0.00000000000E+00 -0.45593999997E+02  0.45594000000E+02  0.51100000000E-03 0. -1.
    9900012    2    1    2    0    0 -0.15046850440E+02 -0.42280765296E+02  0.38785016085E+01  0.46142316556E+02  0.99999890121E+01 0.  0.
         12    1    1    2    0    0  0.15046850440E+02  0.42280765296E+02 -0.38785016085E+01  0.45045683444E+02  0.00000000000E+00 0. -1.
         11    1    3    3    0    0  0.23275186565E+00 -0.14093853992E+01  0.12735213891E+01  0.19137391734E+01  0.51100000000E-03 0. -1.
        -11    1    3    3    0    0 -0.15078578051E+02 -0.40744603509E+02  0.19023473233E+01  0.43486838891E+02  0.51100000000E-03 0.  1.
        -12    1    3    3    0    0 -0.20102425382E+00 -0.12677638839E+00  0.70263289608E+00  0.74173849160E+00  0.00000000000E+00 0.  1.
</event>
<event>
 7    1  0.1503436E-008  0.4614231E+02  0.7816164E-02  0.1320468E+00
        -11   -1    0    0    0    0  0.00000000000E+00  0.00000000000E+00  0.45593999997E+02  0.45594000000E+02  0.51100000000E-03 0.  1.
         11   -1    0    0    0    0 -0.00000000000E+00 -0.00000000000E+00 -0.45593999997E+02  0.45594000000E+02  0.51100000000E-03 0. -1.
    9900012    2    1    2    0    0 -0.18295485472E+02 -0.33081694429E+02  0.24494703954E+02  0.46142314116E+02  0.99999667650E+01 0.  0.
         12    1    1    2    0    0  0.18295485472E+02  0.33081694429E+02 -0.24494703954E+02  0.45045685884E+02  0.00000000000E+00 0. -1.
         11    1    3    3    0    0  0.27830504352E+00 -0.50038530994E+01  0.50831545050E+01  0.71382392451E+01  0.51100000000E-03 0. -1.
        -11    1    3    3    0    0 -0.11984933662E+02 -0.20422526161E+02  0.14573922201E+02  0.27804989089E+02  0.51100000000E-03 0.  1.
         12    1    3    3    0    0 -0.65888568535E+01 -0.76553151681E+01  0.48376272483E+01  0.11199085782E+02  0.00000000000E+00 0. -1.
</event>
<event>
 7    1  0.1503436E-008  0.4614232E+02  0.7816164E-02  0.1320468E+00
        -11   -1    0    0    0    0  0.00000000000E+00  0.00000000000E+00  0.45593999997E+02  0.45594000000E+02  0.51100000000E-03 0.  1.
         11   -1    0    0    0    0 -0.00000000000E+00 -0.00000000000E+00 -0.45593999997E+02  0.45594000000E+02  0.51100000000E-03 0. -1.
    9900012    2    1    2    0    0  0.24744124709E+02  0.34460295679E+02  0.15143638163E+02  0.46142318046E+02  0.10000002596E+02 0.  0.
         12    1    1    2    0    0 -0.24744124709E+02 -0.34460295679E+02 -0.15143638163E+02  0.45045681954E+02  0.00000000000E+00 0. -1.
         11    1    3    3    0    0  0.10677949625E+02  0.91999413575E+01  0.77151813810E+01  0.16068028914E+02  0.51100000000E-03 0. -1.
        -11    1    3    3    0    0  0.11760894283E+02  0.19401760118E+02  0.44968855666E+01  0.23129394935E+02  0.51100000000E-03 0.  1.
         12    1    3    3    0    0  0.23052808019E+01  0.58585942037E+01  0.29315712151E+01  0.69448941971E+01  0.00000000000E+00 0. -1.
</event>
<event>
 7    1  0.1503436E-008  0.4614232E+02  0.7816164E-02  0.1320468E+00
        -11   -1    0    0    0    0  0.00000000000E+00  0.00000000000E+00  0.45593999997E+02  0.45594000000E+02  0.51100000000E-03 0. -1.
         11   -1    0    0    0    0 -0.00000000000E+00 -0.00000000000E+00 -0.45593999997E+02  0.45594000000E+02  0.51100000000E-03 0.  1.
    9900012    2    1    2    0    0  0.29671232681E+02  0.33626100423E+02 -0.42446341756E+01  0.46142316547E+02  0.99999889283E+01 0.  0.
         12    1    1    2    0    0 -0.29671232681E+02 -0.33626100423E+02  0.42446341756E+01  0.45045683453E+02  0.00000000000E+00 0. -1.
         11    1    3    3    0    0  0.12802673903E+02  0.91884009188E+01 -0.22845283044E+00  0.15760309688E+02  0.51100000000E-03 0. -1.
        -11    1    3    3    0    0  0.16528165007E+02  0.22220665404E+02 -0.28116056799E+01  0.27836007908E+02  0.51100000000E-03 0.  1.
         12    1    3    3    0    0  0.34039377002E+00  0.22170341004E+01 -0.12045756653E+01  0.25459989503E+01  0.00000000000E+00 0. -1.
</event>
<event>
 7    1  0.1503436E-008  0.4614232E+02  0.7816164E-02  0.1320468E+00
        -11   -1    0    0    0    0  0.00000000000E+00  0.00000000000E+00  0.45593999997E+02  0.45594000000E+02  0.51100000000E-03 0.  1.
         11   -1    0    0    0    0 -0.00000000000E+00 -0.00000000000E+00 -0.45593999997E+02  0.45594000000E+02  0.51100000000E-03 0. -1.
    9900012    2    1    2    0    0 -0.85869609432E+00 -0.10043602071E+02  0.43903329089E+02  0.46142316448E+02  0.99999880279E+01 0.  0.
         12    1    1    2    0    0  0.85869609432E+00  0.10043602071E+02 -0.43903329089E+02  0.45045683552E+02  0.00000000000E+00 0. -1.
         11    1    3    3    0    0  0.23008739792E+01 -0.31729108535E+00  0.18284256003E+02  0.18431188582E+02  0.51100000000E-03 0. -1.
        -11    1    3    3    0    0 -0.32466569320E+01 -0.98271903595E+01  0.25537175772E+02  0.27554705556E+02  0.51100000000E-03 0.  1.
        -12    1    3    3    0    0  0.87086858537E-01  0.10087937411E+00  0.81897313608E-01  0.15642230988E+00  0.00000000000E+00 0.  1.
</event>
<event>
 7    1  0.1503436E-008  0.4614232E+02  0.7816164E-02  0.1320468E+00
        -11   -1    0    0    0    0  0.00000000000E+00  0.00000000000E+00  0.45593999997E+02  0.45594000000E+02  0.51100000000E-03 0.  1.
         11   -1    0    0    0    0 -0.00000000000E+00 -0.00000000000E+00 -0.45593999997E+02  0.45594000000E+02  0.51100000000E-03 0. -1.
    9900012    2    1    2    0    0  0.36241666221E+02 -0.12225850380E+02  0.23794615570E+02  0.46142317431E+02  0.99999969877E+01 0.  0.
         12    1    1    2    0    0 -0.36241666221E+02  0.12225850380E+02 -0.23794615570E+02  0.45045682569E+02  0.00000000000E+00 0. -1.
         11    1    3    3    0    0  0.81681582377E-01  0.33465808227E-01 -0.73555742582E-01  0.11490234814E+00  0.51100000000E-03 0. -1.
        -11    1    3    3    0    0  0.29167611535E+02 -0.56026751658E+01  0.17957168663E+02  0.34707339833E+02  0.51100000000E-03 0.  1.
        -12    1    3    3    0    0  0.69923731040E+01 -0.66566410220E+01  0.59110026499E+01  0.11320075249E+02  0.00000000000E+00 0.  1.
</event>
<event>
 7    1  0.1503436E-008  0.4614232E+02  0.7816164E-02  0.1320468E+00
        -11   -1    0    0    0    0  0.00000000000E+00  0.00000000000E+00  0.45593999997E+02  0.45594000000E+02  0.51100000000E-03 0. -1.
         11   -1    0    0    0    0 -0.00000000000E+00 -0.00000000000E+00 -0.45593999997E+02  0.45594000000E+02  0.51100000000E-03 0.  1.
    9900012    2    1    2    0    0  0.42400559002E+02 -0.32899051415E+01 -0.14848656709E+02  0.46142317792E+02  0.10000000285E+02 0.  0.
         12    1    1    2    0    0 -0.42400559002E+02  0.32899051415E+01  0.14848656709E+02  0.45045682208E+02  0.00000000000E+00 0. -1.
         11    1    3    3    0    0  0.11427813682E+02  0.29962334585E+01 -0.51393297612E+01  0.12883518586E+02  0.51100000000E-03 0. -1.
        -11    1    3    3    0    0  0.22266445933E+02 -0.49662016824E+01 -0.86119325540E+01  0.24384896068E+02  0.51100000000E-03 0.  1.
         12    1    3    3    0    0  0.87062993861E+01 -0.13199369176E+01 -0.10973943936E+01  0.88739031391E+01  0.00000000000E+00 0. -1.
</event>
<event>
 7    1  0.1503436E-008  0.4614232E+02  0.7816164E-02  0.1320468E+00
        -11   -1    0    0    0    0  0.00000000000E+00  0.00000000000E+00  0.45593999997E+02  0.45594000000E+02  0.51100000000E-03 0.  1.
         11   -1    0    0    0    0 -0.00000000000E+00 -0.00000000000E+00 -0.45593999997E+02  0.45594000000E+02  0.51100000000E-03 0. -1.
    9900012    2    1    2    0    0 -0.27531545008E+02 -0.92070842693E+01  0.34443536284E+02  0.46142316933E+02  0.99999924445E+01 0.  0.
         12    1    1    2    0    0  0.27531545008E+02  0.92070842693E+01 -0.34443536284E+02  0.45045683067E+02  0.00000000000E+00 0. -1.
         11    1    3    3    0    0 -0.13811652235E+01 -0.37705812820E+00 -0.30132305815E+00  0.14630741790E+01  0.51100000000E-03 0. -1.
        -11    1    3    3    0    0 -0.21407489175E+02 -0.90965548372E+01  0.27525984838E+02  0.36037587936E+02  0.51100000000E-03 0.  1.
         12    1    3    3    0    0 -0.47428906095E+01  0.26652869613E+00  0.72188745042E+01  0.86416548176E+01  0.00000000000E+00 0. -1.
</event>
<event>
 7    1  0.1503436E-008  0.4614232E+02  0.7816164E-02  0.1320468E+00
        -11   -1    0    0    0    0  0.00000000000E+00  0.00000000000E+00  0.45593999997E+02  0.45594000000E+02  0.51100000000E-03 0.  1.
         11   -1    0    0    0    0 -0.00000000000E+00 -0.00000000000E+00 -0.45593999997E+02  0.45594000000E+02  0.51100000000E-03 0. -1.
    9900012    2    1    2    0    0 -0.22398792142E+02 -0.29671426431E+02  0.25436471265E+02  0.46142317562E+02  0.99999981868E+01 0.  0.
         12    1    1    2    0    0  0.22398792142E+02  0.29671426431E+02 -0.25436471265E+02  0.45045682438E+02  0.00000000000E+00 0. -1.
         11    1    3    3    0    0 -0.11885815998E+02 -0.13396214001E+02  0.13178395508E+02  0.22235136157E+02  0.51100000000E-03 0. -1.
        -11    1    3    3    0    0  0.83299984885E+00 -0.14906412821E+01  0.22190618698E+00  0.17219589998E+01  0.51100000000E-03 0.  1.
        -12    1    3    3    0    0 -0.11345975992E+02 -0.14784571148E+02  0.12036169570E+02  0.22185222405E+02  0.00000000000E+00 0.  1.
</event>
<event>
 7    1  0.1503436E-008  0.4614232E+02  0.7816164E-02  0.1320468E+00
        -11   -1    0    0    0    0  0.00000000000E+00  0.00000000000E+00  0.45593999997E+02  0.45594000000E+02  0.51100000000E-03 0.  1.
         11   -1    0    0    0    0 -0.00000000000E+00 -0.00000000000E+00 -0.45593999997E+02  0.45594000000E+02  0.51100000000E-03 0. -1.
    9900012    2    1    2    0    0  0.13154718905E+02  0.42828192723E+02  0.46704095750E+01  0.46142318220E+02  0.10000004188E+02 0.  0.
         12    1    1    2    0    0 -0.13154718905E+02 -0.42828192723E+02 -0.46704095750E+01  0.45045681780E+02  0.00000000000E+00 0. -1.
         11    1    3    3    0    0  0.11910175200E+02  0.34171108374E+02  0.61318025239E+01  0.36703077844E+02  0.51100000000E-03 0.  1.
        -11    1    3    3    0    0  0.87849312769E+00  0.61633541757E+01 -0.25057384064E+01  0.67109917369E+01  0.51100000000E-03 0. -1.
         12    1    3    3    0    0  0.36605057745E+00  0.24937301734E+01  0.10443454574E+01  0.27282486392E+01  0.00000000000E+00 0. -1.
</event>
<event>
 7    1  0.1503436E-008  0.4614232E+02  0.7816164E-02  0.1320468E+00
        -11   -1    0    0    0    0  0.00000000000E+00  0.00000000000E+00  0.45593999997E+02  0.45594000000E+02  0.51100000000E-03 0.  1.
         11   -1    0    0    0    0 -0.00000000000E+00 -0.00000000000E+00 -0.45593999997E+02  0.45594000000E+02  0.51100000000E-03 0. -1.
    9900012    2    1    2    0    0  0.21737598391E+02  0.57815679932E+01  0.39027731439E+02  0.46142317260E+02  0.99999954270E+01 0.  0.
         12    1    1    2    0    0 -0.21737598391E+02 -0.57815679932E+01 -0.39027731439E+02  0.45045682740E+02  0.00000000000E+00 0. -1.
         11    1    3    3    0    0  0.62295434146E+01  0.25094292651E+01  0.14213146973E+02  0.15719987071E+02  0.51100000000E-03 0. -1.
        -11    1    3    3    0    0  0.13542746658E+02  0.52978325706E+01  0.18709196566E+02  0.23696140053E+02  0.51100000000E-03 0.  1.
        -12    1    3    3    0    0  0.19653083188E+01 -0.20256938425E+01  0.61053878997E+01  0.67261901354E+01  0.00000000000E+00 0.  1.
</event>
<event>
 7    1  0.1503436E-008  0.4614232E+02  0.7816164E-02  0.1320468E+00
        -11   -1    0    0    0    0  0.00000000000E+00  0.00000000000E+00  0.45593999997E+02  0.45594000000E+02  0.51100000000E-03 0. -1.
         11   -1    0    0    0    0 -0.00000000000E+00 -0.00000000000E+00 -0.45593999997E+02  0.45594000000E+02  0.51100000000E-03 0.  1.
    9900012    2    1    2    0    0 -0.30148579979E+01  0.42625194804E+02  0.14251906742E+02  0.46142318225E+02  0.10000004226E+02 0.  0.
         12    1    1    2    0    0  0.30148579979E+01 -0.42625194804E+02 -0.14251906742E+02  0.45045681775E+02  0.00000000000E+00 0. -1.
         11    1    3    3    0    0 -0.11026499752E+01  0.46337747467E+01  0.79250245983E+00  0.48286401586E+01  0.51100000000E-03 0. -1.
        -11    1    3    3    0    0 -0.15739978971E+01  0.14836349098E+02  0.84543084130E+00  0.14943543004E+02  0.51100000000E-03 0.  1.
        -12    1    3    3    0    0 -0.33821012552E+00  0.23155070959E+02  0.12613973441E+02  0.26370135062E+02  0.00000000000E+00 0.  1.
</event>
<event>
 7    1  0.1503436E-008  0.4614232E+02  0.7816164E-02  0.1320468E+00
        -11   -1    0    0    0    0  0.00000000000E+00  0.00000000000E+00  0.45593999997E+02  0.45594000000E+02  0.51100000000E-03 0.  1.
         11   -1    0    0    0    0 -0.00000000000E+00 -0.00000000000E+00 -0.45593999997E+02  0.45594000000E+02  0.51100000000E-03 0. -1.
    9900012    2    1    2    0    0  0.35633643579E+02  0.26638312248E+02  0.70538854750E+01  0.46142317250E+02  0.99999953407E+01 0.  0.
         12    1    1    2    0    0 -0.35633643579E+02 -0.26638312248E+02 -0.70538854750E+01  0.45045682750E+02  0.00000000000E+00 0. -1.
         11    1    3    3    0    0  0.32575767389E+01  0.46033487628E+01  0.77698846952E-01  0.56399169687E+01  0.51100000000E-03 0. -1.
        -11    1    3    3    0    0  0.14001513836E+02  0.81411084720E+01 -0.72652555422E+00  0.16212583893E+02  0.51100000000E-03 0.  1.
         12    1    3    3    0    0  0.18374553004E+02  0.13893855013E+02  0.77027121823E+01  0.24289816388E+02  0.00000000000E+00 0. -1.
</event>
<event>
 7    1  0.1503436E-008  0.4614232E+02  0.7816164E-02  0.1320468E+00
        -11   -1    0    0    0    0  0.00000000000E+00  0.00000000000E+00  0.45593999997E+02  0.45594000000E+02  0.51100000000E-03 0.  1.
         11   -1    0    0    0    0 -0.00000000000E+00 -0.00000000000E+00 -0.45593999997E+02  0.45594000000E+02  0.51100000000E-03 0. -1.
    9900012    2    1    2    0    0 -0.30597569416E+02 -0.28593901302E+02  0.16591891740E+02  0.46142319660E+02  0.10000017313E+02 0.  0.
         12    1    1    2    0    0  0.30597569416E+02  0.28593901302E+02 -0.16591891740E+02  0.45045680340E+02  0.00000000000E+00 0. -1.
         11    1    3    3    0    0 -0.48649688166E+01 -0.24398392771E+01 -0.59397479537E+00  0.54748099148E+01  0.51100000000E-03 0. -1.
        -11    1    3    3    0    0 -0.19494941202E+02 -0.19369169749E+02  0.11188528997E+02  0.29671546144E+02  0.51100000000E-03 0.  1.
         12    1    3    3    0    0 -0.62376593973E+01 -0.67848922759E+01  0.59973375387E+01  0.10995963601E+02  0.00000000000E+00 0. -1.
</event>
<event>
 7    1  0.1503436E-008  0.4614232E+02  0.7816164E-02  0.1320468E+00
        -11   -1    0    0    0    0  0.00000000000E+00  0.00000000000E+00  0.45593999997E+02  0.45594000000E+02  0.51100000000E-03 0. -1.
         11   -1    0    0    0    0 -0.00000000000E+00 -0.00000000000E+00 -0.45593999997E+02  0.45594000000E+02  0.51100000000E-03 0.  1.
    9900012    2    1    2    0    0  0.10115634399E+02 -0.61103216515E+01 -0.43467818102E+02  0.46142319846E+02  0.10000019011E+02 0.  0.
         12    1    1    2    0    0 -0.10115634399E+02  0.61103216515E+01  0.43467818102E+02  0.45045680154E+02  0.00000000000E+00 0. -1.
         11    1    3    3    0    0 -0.62060200793E+00 -0.11818910795E+01 -0.79625514069E+01  0.80736756526E+01  0.51100000000E-03 0. -1.
        -11    1    3    3    0    0  0.76017759874E+01 -0.64909501265E+01 -0.22915303179E+02  0.25000611028E+02  0.51100000000E-03 0.  1.
         12    1    3    3    0    0  0.31344604192E+01  0.15625195545E+01 -0.12589963516E+02  0.13068033165E+02  0.00000000000E+00 0. -1.
</event>
<event>
 7    1  0.1503436E-008  0.4614232E+02  0.7816164E-02  0.1320468E+00
        -11   -1    0    0    0    0  0.00000000000E+00  0.00000000000E+00  0.45593999997E+02  0.45594000000E+02  0.51100000000E-03 0.  1.
         11   -1    0    0    0    0 -0.00000000000E+00 -0.00000000000E+00 -0.45593999997E+02  0.45594000000E+02  0.51100000000E-03 0. -1.
    9900012    2    1    2    0    0 -0.30858697148E+02  0.31816667880E+02  0.80345479500E+01  0.46142317572E+02  0.99999982712E+01 0.  0.
         12    1    1    2    0    0  0.30858697148E+02 -0.31816667880E+02 -0.80345479500E+01  0.45045682428E+02  0.00000000000E+00 0. -1.
         11    1    3    3    0    0 -0.16746662828E+02  0.14680108195E+02  0.48880036217E+01  0.22800194564E+02  0.51100000000E-03 0. -1.
        -11    1    3    3    0    0 -0.78786796305E+01  0.12371003207E+02 -0.53160811099E+00  0.14676441003E+02  0.51100000000E-03 0.  1.
         12    1    3    3    0    0 -0.62333546900E+01  0.47655564776E+01  0.36781524393E+01  0.86656820043E+01  0.00000000000E+00 0. -1.
</event>
<event>
 7    1  0.1503436E-008  0.4614232E+02  0.7816164E-02  0.1320468E+00
        -11   -1    0    0    0    0  0.00000000000E+00  0.00000000000E+00  0.45593999997E+02  0.45594000000E+02  0.51100000000E-03 0.  1.
         11   -1    0    0    0    0 -0.00000000000E+00 -0.00000000000E+00 -0.45593999997E+02  0.45594000000E+02  0.51100000000E-03 0. -1.
    9900012    2    1    2    0    0  0.27776198391E+02  0.33220240003E+02  0.12410154321E+02  0.46142317930E+02  0.10000001538E+02 0.  0.
         12    1    1    2    0    0 -0.27776198391E+02 -0.33220240003E+02 -0.12410154321E+02  0.45045682070E+02  0.00000000000E+00 0. -1.
         11    1    3    3    0    0  0.19459961754E+01  0.39330065279E+01 -0.44331058307E+00  0.44104383000E+01  0.51100000000E-03 0. -1.
        -11    1    3    3    0    0  0.20069863732E+02  0.17856298840E+02  0.95692902802E+01  0.28516980121E+02  0.51100000000E-03 0.  1.
        -12    1    3    3    0    0  0.57603384837E+01  0.11430934635E+02  0.32841746243E+01  0.13214899509E+02  0.00000000000E+00 0.  1.
</event>
<event>
 7    1  0.1503436E-008  0.4614232E+02  0.7816164E-02  0.1320468E+00
        -11   -1    0    0    0    0  0.00000000000E+00  0.00000000000E+00  0.45593999997E+02  0.45594000000E+02  0.51100000000E-03 0.  1.
         11   -1    0    0    0    0 -0.00000000000E+00 -0.00000000000E+00 -0.45593999997E+02  0.45594000000E+02  0.51100000000E-03 0. -1.
    9900012    2    1    2    0    0 -0.37207379151E+02 -0.72086853260E+00  0.25381189666E+02  0.46142317592E+02  0.99999984563E+01 0.  0.
         12    1    1    2    0    0  0.37207379151E+02  0.72086853260E+00 -0.25381189666E+02  0.45045682408E+02  0.00000000000E+00 0. -1.
         11    1    3    3    0    0  0.22309646394E-02 -0.49966052264E-01  0.33119161363E+00  0.33494735354E+00  0.51100000000E-03 0. -1.
        -11    1    3    3    0    0 -0.11777172437E+02 -0.89043951175E+00  0.13311408865E+02  0.17795737674E+02  0.51100000000E-03 0.  1.
         12    1    3    3    0    0 -0.25432437679E+02  0.21953703142E+00  0.11738589188E+02  0.28011632565E+02  0.00000000000E+00 0. -1.
</event>
<event>
 7    1  0.1503436E-008  0.4614232E+02  0.7816164E-02  0.1320468E+00
        -11   -1    0    0    0    0  0.00000000000E+00  0.00000000000E+00  0.45593999997E+02  0.45594000000E+02  0.51100000000E-03 0.  1.
         11   -1    0    0    0    0 -0.00000000000E+00 -0.00000000000E+00 -0.45593999997E+02  0.45594000000E+02  0.51100000000E-03 0. -1.
    9900012    2    1    2    0    0  0.17999072030E+01  0.42315073376E+02  0.15339768275E+02  0.46142316617E+02  0.99999895659E+01 0.  0.
         12    1    1    2    0    0 -0.17999072030E+01 -0.42315073376E+02 -0.15339768275E+02  0.45045683383E+02  0.00000000000E+00 0. -1.
         11    1    3    3    0    0  0.21439875727E+01  0.88670854468E+01  0.55337464525E+01  0.10669781492E+02  0.51100000000E-03 0. -1.
        -11    1    3    3    0    0  0.60706795954E+00  0.32927166669E+02  0.98876470132E+01  0.34385060711E+02  0.51100000000E-03 0.  1.
         12    1    3    3    0    0 -0.95114832919E+00  0.52082125924E+00 -0.81625190378E-01  0.10874744134E+01  0.00000000000E+00 0. -1.
</event>
<event>
 7    1  0.1503436E-008  0.4614232E+02  0.7816164E-02  0.1320468E+00
        -11   -1    0    0    0    0  0.00000000000E+00  0.00000000000E+00  0.45593999997E+02  0.45594000000E+02  0.51100000000E-03 0. -1.
         11   -1    0    0    0    0 -0.00000000000E+00 -0.00000000000E+00 -0.45593999997E+02  0.45594000000E+02  0.51100000000E-03 0.  1.
    9900012    2    1    2    0    0  0.43663099824E+02 -0.10542422968E+02 -0.33918174620E+01  0.46142318808E+02  0.10000009550E+02 0.  0.
         12    1    1    2    0    0 -0.43663099824E+02  0.10542422968E+02  0.33918174620E+01  0.45045681192E+02  0.00000000000E+00 0. -1.
         11    1    3    3    0    0  0.30426621268E+02 -0.79374654310E+01 -0.56475483036E+01  0.31948042841E+02  0.51100000000E-03 0.  1.
        -11    1    3    3    0    0  0.79923449614E+01 -0.32350302641E+01  0.22557383481E+01  0.89124269730E+01  0.51100000000E-03 0. -1.
         12    1    3    3    0    0  0.52441335946E+01  0.63007272688E+00 -0.75064727055E-05  0.52818489943E+01  0.00000000000E+00 0. -1.
</event>
<event>
 7    1  0.1503436E-008  0.4614232E+02  0.7816164E-02  0.1320468E+00
        -11   -1    0    0    0    0  0.00000000000E+00  0.00000000000E+00  0.45593999997E+02  0.45594000000E+02  0.51100000000E-03 0.  1.
         11   -1    0    0    0    0 -0.00000000000E+00 -0.00000000000E+00 -0.45593999997E+02  0.45594000000E+02  0.51100000000E-03 0. -1.
    9900012    2    1    2    0    0  0.72631647987E+00 -0.44969389743E+02  0.25178704127E+01  0.46142320730E+02  0.10000027074E+02 0.  0.
         12    1    1    2    0    0 -0.72631647987E+00  0.44969389743E+02 -0.25178704127E+01  0.45045679270E+02  0.00000000000E+00 0. -1.
         11    1    3    3    0    0  0.21877791921E+00 -0.10003792587E+02 -0.18729608426E+01  0.10179966232E+02  0.51100000000E-03 0. -1.
        -11    1    3    3    0    0 -0.12777328128E+01 -0.32881245139E+02  0.35774265077E+01  0.33099952624E+02  0.51100000000E-03 0.  1.
         12    1    3    3    0    0  0.17852713735E+01 -0.20843520167E+01  0.81340474756E+00  0.28624018743E+01  0.00000000000E+00 0. -1.
</event>
<event>
 7    1  0.1503436E-008  0.4614232E+02  0.7816164E-02  0.1320468E+00
        -11   -1    0    0    0    0  0.00000000000E+00  0.00000000000E+00  0.45593999997E+02  0.45594000000E+02  0.51100000000E-03 0.  1.
         11   -1    0    0    0    0 -0.00000000000E+00 -0.00000000000E+00 -0.45593999997E+02  0.45594000000E+02  0.51100000000E-03 0. -1.
    9900012    2    1    2    0    0  0.23900511192E+02  0.72991835058E+00  0.38175204363E+02  0.46142318251E+02  0.10000004469E+02 0.  0.
         12    1    1    2    0    0 -0.23900511192E+02 -0.72991835058E+00 -0.38175204363E+02  0.45045681749E+02  0.00000000000E+00 0. -1.
         11    1    3    3    0    0  0.46632564383E+01  0.29313158420E+01  0.14307739334E+02  0.15331339742E+02  0.51100000000E-03 0. -1.
        -11    1    3    3    0    0  0.18097319391E+02 -0.18242014579E+01  0.23032233730E+02  0.29348329952E+02  0.51100000000E-03 0.  1.
        -12    1    3    3    0    0  0.11399353632E+01 -0.37719603350E+00  0.83523129893E+00  0.14626485574E+01  0.00000000000E+00 0.  1.
</event>
<event>
 7    1  0.1676335E-008  0.4614232E+02  0.7816164E-02  0.1320468E+00
        -11   -1    0    0    0    0  0.00000000000E+00  0.00000000000E+00  0.45593999997E+02  0.45594000000E+02  0.51100000000E-03 0. -1.
         11   -1    0    0    0    0 -0.00000000000E+00 -0.00000000000E+00 -0.45593999997E+02  0.45594000000E+02  0.51100000000E-03 0.  1.
    9900012    2    1    2    0    0 -0.32594304948E+01 -0.24418201243E+02 -0.37712610680E+02  0.46142318261E+02  0.10000004556E+02 0.  0.
         12    1    1    2    0    0  0.32594304948E+01  0.24418201243E+02  0.37712610680E+02  0.45045681739E+02  0.00000000000E+00 0. -1.
         11    1    3    3    0    0  0.73818849981E-01  0.24831521569E+00 -0.12012599988E+00  0.28555242238E+00  0.51100000000E-03 0. -1.
        -11    1    3    3    0    0 -0.38280323121E+01 -0.99297288100E+01 -0.21751252695E+02  0.24215084962E+02  0.51100000000E-03 0.  1.
        -12    1    3    3    0    0  0.49478296731E+00 -0.14736787649E+02 -0.15841231984E+02  0.21641680877E+02  0.00000000000E+00 0.  1.
</event>
<event>
 7    1  0.1503436E-008  0.4614232E+02  0.7816164E-02  0.1320468E+00
        -11   -1    0    0    0    0  0.00000000000E+00  0.00000000000E+00  0.45593999997E+02  0.45594000000E+02  0.51100000000E-03 0.  1.
         11   -1    0    0    0    0 -0.00000000000E+00 -0.00000000000E+00 -0.45593999997E+02  0.45594000000E+02  0.51100000000E-03 0. -1.
    9900012    2    1    2    0    0  0.37222748486E+02 -0.12737646517E+02  0.21939297772E+02  0.46142318405E+02  0.10000005870E+02 0.  0.
         12    1    1    2    0    0 -0.37222748486E+02  0.12737646517E+02 -0.21939297772E+02  0.45045681595E+02  0.00000000000E+00 0. -1.
         11    1    3    3    0    0  0.15685641534E+01  0.81380323903E+00 -0.11161232644E+00  0.17706289243E+01  0.51100000000E-03 0. -1.
        -11    1    3    3    0    0  0.12369593744E+02 -0.68087570075E+01  0.99856115565E+01  0.17293885041E+02  0.51100000000E-03 0.  1.
         12    1    3    3    0    0  0.23284590588E+02 -0.67426927483E+01  0.12065298542E+02  0.27077804440E+02  0.00000000000E+00 0. -1.
</event>
<event>
 7    1  0.1503436E-008  0.4614232E+02  0.7816164E-02  0.1320468E+00
        -11   -1    0    0    0    0  0.00000000000E+00  0.00000000000E+00  0.45593999997E+02  0.45594000000E+02  0.51100000000E-03 0. -1.
         11   -1    0    0    0    0 -0.00000000000E+00 -0.00000000000E+00 -0.45593999997E+02  0.45594000000E+02  0.51100000000E-03 0.  1.
    9900012    2    1    2    0    0  0.26544423638E+02  0.35963983984E+02  0.55766414547E+01  0.46142317630E+02  0.99999988065E+01 0.  0.
         12    1    1    2    0    0 -0.26544423638E+02 -0.35963983984E+02 -0.55766414547E+01  0.45045682370E+02  0.00000000000E+00 0. -1.
         11    1    3    3    0    0  0.13696440987E+02  0.23721303394E+02  0.66399193504E+01  0.28184769995E+02  0.51100000000E-03 0. -1.
        -11    1    3    3    0    0  0.65856457798E+01  0.78727046314E+01 -0.13416732837E+00  0.10264901835E+02  0.51100000000E-03 0.  1.
         12    1    3    3    0    0  0.62623368713E+01  0.43699759584E+01 -0.92911056736E+00  0.76926458006E+01  0.00000000000E+00 0. -1.
</event>
<event>
 7    1  0.1503436E-008  0.4614232E+02  0.7816164E-02  0.1320468E+00
        -11   -1    0    0    0    0  0.00000000000E+00  0.00000000000E+00  0.45593999997E+02  0.45594000000E+02  0.51100000000E-03 0. -1.
         11   -1    0    0    0    0 -0.00000000000E+00 -0.00000000000E+00 -0.45593999997E+02  0.45594000000E+02  0.51100000000E-03 0.  1.
    9900012    2    1    2    0    0  0.20329614777E+02 -0.37919091019E+02 -0.13340265582E+02  0.46142318892E+02  0.10000010314E+02 0.  0.
         12    1    1    2    0    0 -0.20329614777E+02  0.37919091019E+02  0.13340265582E+02  0.45045681108E+02  0.00000000000E+00 0. -1.
         11    1    3    3    0    0  0.89509013438E+01 -0.11272747750E+02 -0.70008190351E+01  0.16006403222E+02  0.51100000000E-03 0. -1.
        -11    1    3    3    0    0  0.11480206933E+02 -0.25932872734E+02 -0.69407919405E+01  0.29197322351E+02  0.51100000000E-03 0.  1.
         12    1    3    3    0    0 -0.10149350004E+00 -0.71347053541E+00  0.60134539354E+00  0.93859331863E+00  0.00000000000E+00 0. -1.
</event>
<event>
 7    1  0.1503436E-008  0.4614232E+02  0.7816164E-02  0.1320468E+00
        -11   -1    0    0    0    0  0.00000000000E+00  0.00000000000E+00  0.45593999997E+02  0.45594000000E+02  0.51100000000E-03 0. -1.
         11   -1    0    0    0    0 -0.00000000000E+00 -0.00000000000E+00 -0.45593999997E+02  0.45594000000E+02  0.51100000000E-03 0.  1.
    9900012    2    1    2    0    0 -0.10557957617E+02  0.11720384687E+02 -0.42193311076E+02  0.46142318900E+02  0.10000010384E+02 0.  0.
         12    1    1    2    0    0  0.10557957617E+02 -0.11720384687E+02  0.42193311076E+02  0.45045681100E+02  0.00000000000E+00 0. -1.
         11    1    3    3    0    0 -0.31749661439E+01 -0.45113032617E+00 -0.29597159403E+01  0.43639256747E+01  0.51100000000E-03 0. -1.
        -11    1    3    3    0    0 -0.56538030522E+01  0.10554981377E+02 -0.31964928287E+02  0.34133997151E+02  0.51100000000E-03 0.  1.
         12    1    3    3    0    0 -0.17291884207E+01  0.16165336360E+01 -0.72686668479E+01  0.76443960740E+01  0.00000000000E+00 0. -1.
</event>
<event>
 7    1  0.1503436E-008  0.4614232E+02  0.7816164E-02  0.1320468E+00
        -11   -1    0    0    0    0  0.00000000000E+00  0.00000000000E+00  0.45593999997E+02  0.45594000000E+02  0.51100000000E-03 0. -1.
         11   -1    0    0    0    0 -0.00000000000E+00 -0.00000000000E+00 -0.45593999997E+02  0.45594000000E+02  0.51100000000E-03 0.  1.
    9900012    2    1    2    0    0  0.44188522353E+01 -0.43503353859E+02 -0.10818753256E+02  0.46142317920E+02  0.10000001447E+02 0.  0.
         12    1    1    2    0    0 -0.44188522353E+01  0.43503353859E+02  0.10818753256E+02  0.45045682080E+02  0.00000000000E+00 0. -1.
         11    1    3    3    0    0  0.44232425749E+01 -0.14616164522E+02 -0.27316446418E+01  0.15513195123E+02  0.51100000000E-03 0. -1.
        -11    1    3    3    0    0 -0.14109308647E+01 -0.14462866539E+02 -0.11936394262E+01  0.14580466720E+02  0.51100000000E-03 0.  1.
         12    1    3    3    0    0  0.14065405250E+01 -0.14424322798E+02 -0.68934691885E+01  0.16048656077E+02  0.00000000000E+00 0. -1.
</event>
<event>
 7    1  0.1503436E-008  0.4614232E+02  0.7816164E-02  0.1320468E+00
        -11   -1    0    0    0    0  0.00000000000E+00  0.00000000000E+00  0.45593999997E+02  0.45594000000E+02  0.51100000000E-03 0.  1.
         11   -1    0    0    0    0 -0.00000000000E+00 -0.00000000000E+00 -0.45593999997E+02  0.45594000000E+02  0.51100000000E-03 0. -1.
    9900012    2    1    2    0    0 -0.10119428466E+01 -0.31465874982E+02  0.32217823529E+02  0.46142317969E+02  0.10000001899E+02 0.  0.
         12    1    1    2    0    0  0.10119428466E+01  0.31465874982E+02 -0.32217823529E+02  0.45045682031E+02  0.00000000000E+00 0. -1.
         11    1    3    3    0    0 -0.86605316889E-01 -0.13037502836E+02  0.18182184853E+02  0.22373551953E+02  0.51100000000E-03 0.  1.
        -11    1    3    3    0    0 -0.29126201735E+01 -0.87290246642E+01  0.78412631322E+01  0.12089856725E+02  0.51100000000E-03 0. -1.
         12    1    3    3    0    0  0.19872826438E+01 -0.96993474810E+01  0.61943755431E+01  0.11678909291E+02  0.00000000000E+00 0. -1.
</event>
<event>
 7    1  0.1503436E-008  0.4614232E+02  0.7816164E-02  0.1320468E+00
        -11   -1    0    0    0    0  0.00000000000E+00  0.00000000000E+00  0.45593999997E+02  0.45594000000E+02  0.51100000000E-03 0.  1.
         11   -1    0    0    0    0 -0.00000000000E+00 -0.00000000000E+00 -0.45593999997E+02  0.45594000000E+02  0.51100000000E-03 0. -1.
    9900012    2    1    2    0    0  0.11962917556E+02 -0.26139868284E+02  0.34680097512E+02  0.46142320143E+02  0.10000021718E+02 0.  0.
         12    1    1    2    0    0 -0.11962917556E+02  0.26139868284E+02 -0.34680097512E+02  0.45045679857E+02  0.00000000000E+00 0. -1.
         11    1    3    3    0    0  0.78487854515E+00 -0.52788243247E+01  0.31012570739E+01  0.61725048628E+01  0.51100000000E-03 0. -1.
        -11    1    3    3    0    0  0.71729340760E+01 -0.90501392134E+01  0.19151023985E+02  0.22363311986E+02  0.51100000000E-03 0.  1.
         12    1    3    3    0    0  0.40051049349E+01 -0.11810904746E+02  0.12427816453E+02  0.17606503294E+02  0.00000000000E+00 0. -1.
</event>
<event>
 7    1  0.1503436E-008  0.4614232E+02  0.7816164E-02  0.1320468E+00
        -11   -1    0    0    0    0  0.00000000000E+00  0.00000000000E+00  0.45593999997E+02  0.45594000000E+02  0.51100000000E-03 0.  1.
         11   -1    0    0    0    0 -0.00000000000E+00 -0.00000000000E+00 -0.45593999997E+02  0.45594000000E+02  0.51100000000E-03 0. -1.
    9900012    2    1    2    0    0 -0.51097943553E+01  0.19277623335E+02  0.40390305472E+02  0.46142317233E+02  0.99999951836E+01 0.  0.
         12    1    1    2    0    0  0.51097943553E+01 -0.19277623335E+02 -0.40390305472E+02  0.45045682767E+02  0.00000000000E+00 0. -1.
         11    1    3    3    0    0  0.11798114216E+01  0.62570437442E+01  0.16247111659E+02  0.17450248965E+02  0.51100000000E-03 0. -1.
        -11    1    3    3    0    0 -0.34428843200E+01  0.10122021733E+02  0.13002462619E+02  0.16833680846E+02  0.51100000000E-03 0.  1.
         12    1    3    3    0    0 -0.28467214569E+01  0.28985578574E+01  0.11140731194E+02  0.11858387422E+02  0.00000000000E+00 0. -1.
</event>
<event>
 7    1  0.1503436E-008  0.4614232E+02  0.7816164E-02  0.1320468E+00
        -11   -1    0    0    0    0  0.00000000000E+00  0.00000000000E+00  0.45593999997E+02  0.45594000000E+02  0.51100000000E-03 0.  1.
         11   -1    0    0    0    0 -0.00000000000E+00 -0.00000000000E+00 -0.45593999997E+02  0.45594000000E+02  0.51100000000E-03 0. -1.
    9900012    2    1    2    0    0 -0.26505783742E+02 -0.10230117691E+02  0.34955709352E+02  0.46142317676E+02  0.99999992242E+01 0.  0.
         12    1    1    2    0    0  0.26505783742E+02  0.10230117691E+02 -0.34955709352E+02  0.45045682324E+02  0.00000000000E+00 0. -1.
         11    1    3    3    0    0 -0.10520388809E+02 -0.42069409617E+01  0.21543091240E+02  0.24340947258E+02  0.51100000000E-03 0. -1.
        -11    1    3    3    0    0 -0.91289587502E+01 -0.41876729078E+01  0.86356739594E+01  0.13245729774E+02  0.51100000000E-03 0.  1.
         12    1    3    3    0    0 -0.68564361830E+01 -0.18355038213E+01  0.47769441518E+01  0.85556406446E+01  0.00000000000E+00 0. -1.
</event>
<event>
 7    1  0.1503436E-008  0.4614232E+02  0.7816164E-02  0.1320468E+00
        -11   -1    0    0    0    0  0.00000000000E+00  0.00000000000E+00  0.45593999997E+02  0.45594000000E+02  0.51100000000E-03 0.  1.
         11   -1    0    0    0    0 -0.00000000000E+00 -0.00000000000E+00 -0.45593999997E+02  0.45594000000E+02  0.51100000000E-03 0. -1.
    9900012    2    1    2    0    0  0.42423909463E+02  0.19115243365E+01  0.15022369947E+02  0.46142316319E+02  0.99999868531E+01 0.  0.
         12    1    1    2    0    0 -0.42423909463E+02 -0.19115243365E+01 -0.15022369947E+02  0.45045683681E+02  0.00000000000E+00 0. -1.
         11    1    3    3    0    0  0.96239938966E+01  0.24066685274E+00 -0.43976723793E+00  0.96370417940E+01  0.51100000000E-03 0. -1.
        -11    1    3    3    0    0  0.15628713878E+02 -0.87205584344E+00  0.62587447152E+01  0.16857908072E+02  0.51100000000E-03 0.  1.
         12    1    3    3    0    0  0.17171201689E+02  0.25429133272E+01  0.92033924698E+01  0.19647366454E+02  0.00000000000E+00 0. -1.
</event>
<event>
 7    1  0.1503436E-008  0.4614232E+02  0.7816164E-02  0.1320468E+00
        -11   -1    0    0    0    0  0.00000000000E+00  0.00000000000E+00  0.45593999997E+02  0.45594000000E+02  0.51100000000E-03 0. -1.
         11   -1    0    0    0    0 -0.00000000000E+00 -0.00000000000E+00 -0.45593999997E+02  0.45594000000E+02  0.51100000000E-03 0.  1.
    9900012    2    1    2    0    0 -0.40852282557E+02  0.75120739203E+01 -0.17429089676E+02  0.46142318612E+02  0.10000007763E+02 0.  0.
         12    1    1    2    0    0  0.40852282557E+02 -0.75120739203E+01  0.17429089676E+02  0.45045681388E+02  0.00000000000E+00 0. -1.
         11    1    3    3    0    0 -0.97780692138E+01 -0.76359184595E+00 -0.65740722628E+01  0.11807291664E+02  0.51100000000E-03 0. -1.
        -11    1    3    3    0    0 -0.32809352230E+01  0.19084134409E+01  0.80962803373E-01  0.37964632272E+01  0.51100000000E-03 0.  1.
        -12    1    3    3    0    0 -0.27793278121E+02  0.63672523254E+01 -0.10935980217E+02  0.30538563721E+02  0.00000000000E+00 0.  1.
</event>
<event>
 7    1  0.1503436E-008  0.4614232E+02  0.7816164E-02  0.1320468E+00
        -11   -1    0    0    0    0  0.00000000000E+00  0.00000000000E+00  0.45593999997E+02  0.45594000000E+02  0.51100000000E-03 0.  1.
         11   -1    0    0    0    0 -0.00000000000E+00 -0.00000000000E+00 -0.45593999997E+02  0.45594000000E+02  0.51100000000E-03 0. -1.
    9900012    2    1    2    0    0 -0.38070129028E+02  0.23835974333E+02  0.34095584114E+01  0.46142317797E+02  0.10000000324E+02 0.  0.
         12    1    1    2    0    0  0.38070129028E+02 -0.23835974333E+02 -0.34095584114E+01  0.45045682203E+02  0.00000000000E+00 0. -1.
         11    1    3    3    0    0 -0.49926667955E+00  0.15094296784E+01  0.39586736873E+00  0.16384005634E+01  0.51100000000E-03 0. -1.
        -11    1    3    3    0    0 -0.10403781601E+02  0.76047517300E+01  0.42784253731E+01  0.13578506708E+02  0.51100000000E-03 0.  1.
         12    1    3    3    0    0 -0.27167080747E+02  0.14721792925E+02 -0.12647343305E+01  0.30925410525E+02  0.00000000000E+00 0. -1.
</event>
<event>
 7    1  0.1503436E-008  0.4614232E+02  0.7816164E-02  0.1320468E+00
        -11   -1    0    0    0    0  0.00000000000E+00  0.00000000000E+00  0.45593999997E+02  0.45594000000E+02  0.51100000000E-03 0.  1.
         11   -1    0    0    0    0 -0.00000000000E+00 -0.00000000000E+00 -0.45593999997E+02  0.45594000000E+02  0.51100000000E-03 0. -1.
    9900012    2    1    2    0    0  0.13371120500E+02  0.40495546669E+02  0.14506455723E+02  0.46142318508E+02  0.10000006810E+02 0.  0.
         12    1    1    2    0    0 -0.13371120500E+02 -0.40495546669E+02 -0.14506455723E+02  0.45045681492E+02  0.00000000000E+00 0. -1.
         11    1    3    3    0    0 -0.26778658482E+00  0.60477477286E+01 -0.39710238386E+00  0.60666838395E+01  0.51100000000E-03 0. -1.
        -11    1    3    3    0    0  0.10483878202E+02  0.22219771458E+02  0.10120690018E+02  0.26571757798E+02  0.51100000000E-03 0.  1.
         12    1    3    3    0    0  0.31550288827E+01  0.12228027483E+02  0.47828680891E+01  0.13503876870E+02  0.00000000000E+00 0. -1.
</event>
<event>
 7    1  0.1503436E-008  0.4614232E+02  0.7816164E-02  0.1320468E+00
        -11   -1    0    0    0    0  0.00000000000E+00  0.00000000000E+00  0.45593999997E+02  0.45594000000E+02  0.51100000000E-03 0.  1.
         11   -1    0    0    0    0 -0.00000000000E+00 -0.00000000000E+00 -0.45593999997E+02  0.45594000000E+02  0.51100000000E-03 0. -1.
    9900012    2    1    2    0    0  0.20751728768E+02 -0.24259513942E+02  0.31779796003E+02  0.46142315439E+02  0.99999788287E+01 0.  0.
         12    1    1    2    0    0 -0.20751728768E+02  0.24259513942E+02 -0.31779796003E+02  0.45045684561E+02  0.00000000000E+00 0. -1.
         11    1    3    3    0    0  0.38285723569E+01 -0.37044909713E+01  0.85739793813E+01  0.10094272749E+02  0.51100000000E-03 0. -1.
        -11    1    3    3    0    0  0.79916100117E+01 -0.14700352888E+02  0.16103367254E+02  0.23222502940E+02  0.51100000000E-03 0.  1.
         12    1    3    3    0    0  0.89315463996E+01 -0.58546700822E+01  0.71024493671E+01  0.12825539750E+02  0.00000000000E+00 0. -1.
</event>
<event>
 7    1  0.1503436E-008  0.4614232E+02  0.7816164E-02  0.1320468E+00
        -11   -1    0    0    0    0  0.00000000000E+00  0.00000000000E+00  0.45593999997E+02  0.45594000000E+02  0.51100000000E-03 0.  1.
         11   -1    0    0    0    0 -0.00000000000E+00 -0.00000000000E+00 -0.45593999997E+02  0.45594000000E+02  0.51100000000E-03 0. -1.
    9900012    2    1    2    0    0  0.27229207023E+02  0.73255300266E+01  0.35128627370E+02  0.46142316897E+02  0.99999921221E+01 0.  0.
         12    1    1    2    0    0 -0.27229207023E+02 -0.73255300266E+01 -0.35128627370E+02  0.45045683103E+02  0.00000000000E+00 0. -1.
         11    1    3    3    0    0  0.10124099498E+01  0.16171725198E+01  0.23964822450E+01  0.30632251430E+01  0.51100000000E-03 0. -1.
        -11    1    3    3    0    0  0.25308520344E+02  0.63087980679E+01  0.28179252632E+02  0.38397817832E+02  0.51100000000E-03 0.  1.
        -12    1    3    3    0    0  0.90827672949E+00 -0.60044056105E+00  0.45528924931E+01  0.46812739226E+01  0.00000000000E+00 0.  1.
</event>
<event>
 7    1  0.1503436E-008  0.4614232E+02  0.7816164E-02  0.1320468E+00
        -11   -1    0    0    0    0  0.00000000000E+00  0.00000000000E+00  0.45593999997E+02  0.45594000000E+02  0.51100000000E-03 0.  1.
         11   -1    0    0    0    0 -0.00000000000E+00 -0.00000000000E+00 -0.45593999997E+02  0.45594000000E+02  0.51100000000E-03 0. -1.
    9900012    2    1    2    0    0  0.18961550044E+02 -0.25069218686E+02  0.32266195912E+02  0.46142317586E+02  0.99999983998E+01 0.  0.
         12    1    1    2    0    0 -0.18961550044E+02  0.25069218686E+02 -0.32266195912E+02  0.45045682414E+02  0.00000000000E+00 0. -1.
         11    1    3    3    0    0  0.55953325612E+01 -0.10144205062E+02  0.66913084390E+01  0.13378574352E+02  0.51100000000E-03 0. -1.
        -11    1    3    3    0    0  0.70900387998E+01 -0.91918686308E+01  0.17756470738E+02  0.21214413789E+02  0.51100000000E-03 0.  1.
         12    1    3    3    0    0  0.62761786830E+01 -0.57331449930E+01  0.78184167350E+01  0.11549329444E+02  0.00000000000E+00 0. -1.
</event>
<event>
 7    1  0.1503436E-008  0.4614232E+02  0.7816164E-02  0.1320468E+00
        -11   -1    0    0    0    0  0.00000000000E+00  0.00000000000E+00  0.45593999997E+02  0.45594000000E+02  0.51100000000E-03 0.  1.
         11   -1    0    0    0    0 -0.00000000000E+00 -0.00000000000E+00 -0.45593999997E+02  0.45594000000E+02  0.51100000000E-03 0. -1.
    9900012    2    1    2    0    0 -0.32562160485E+02 -0.23281281668E+02  0.20659165967E+02  0.46142317520E+02  0.99999978043E+01 0.  0.
         12    1    1    2    0    0  0.32562160485E+02  0.23281281668E+02 -0.20659165967E+02  0.45045682480E+02  0.00000000000E+00 0. -1.
         11    1    3    3    0    0 -0.13480889496E+02 -0.42478826525E+01  0.73308219755E+01  0.15922306358E+02  0.51100000000E-03 0. -1.
        -11    1    3    3    0    0 -0.11644012134E+02 -0.10927987963E+02  0.63040138638E+01  0.17168125423E+02  0.51100000000E-03 0.  1.
         12    1    3    3    0    0 -0.74372588554E+01 -0.81054110527E+01  0.70243301280E+01  0.13051885740E+02  0.00000000000E+00 0. -1.
</event>
<event>
 7    1  0.1503436E-008  0.4614232E+02  0.7816164E-02  0.1320468E+00
        -11   -1    0    0    0    0  0.00000000000E+00  0.00000000000E+00  0.45593999997E+02  0.45594000000E+02  0.51100000000E-03 0.  1.
         11   -1    0    0    0    0 -0.00000000000E+00 -0.00000000000E+00 -0.45593999997E+02  0.45594000000E+02  0.51100000000E-03 0. -1.
    9900012    2    1    2    0    0  0.36900760159E+02  0.10970597351E+02  0.23390028869E+02  0.46142316999E+02  0.99999930493E+01 0.  0.
         12    1    1    2    0    0 -0.36900760159E+02 -0.10970597351E+02 -0.23390028869E+02  0.45045683001E+02  0.00000000000E+00 0. -1.
         11    1    3    3    0    0  0.24633731443E+02  0.10763859273E+02  0.13056290807E+02  0.29885583835E+02  0.51100000000E-03 0. -1.
        -11    1    3    3    0    0  0.68320811567E+01  0.14254275828E+01  0.56675700454E+01  0.89905799149E+01  0.51100000000E-03 0.  1.
         12    1    3    3    0    0  0.54349475592E+01 -0.12186895046E+01  0.46661680168E+01  0.72661532492E+01  0.00000000000E+00 0. -1.
</event>
<event>
 7    1  0.1503436E-008  0.4614232E+02  0.7816164E-02  0.1320468E+00
        -11   -1    0    0    0    0  0.00000000000E+00  0.00000000000E+00  0.45593999997E+02  0.45594000000E+02  0.51100000000E-03 0.  1.
         11   -1    0    0    0    0 -0.00000000000E+00 -0.00000000000E+00 -0.45593999997E+02  0.45594000000E+02  0.51100000000E-03 0. -1.
    9900012    2    1    2    0    0  0.42221112160E+02  0.18962503923E+01  0.15585103257E+02  0.46142317398E+02  0.99999966885E+01 0.  0.
         12    1    1    2    0    0 -0.42221112160E+02 -0.18962503923E+01 -0.15585103257E+02  0.45045682602E+02  0.00000000000E+00 0. -1.
         11    1    3    3    0    0  0.18593674395E+02 -0.32018348166E+01  0.50914550896E+01  0.19542246260E+02  0.51100000000E-03 0. -1.
        -11    1    3    3    0    0  0.18326037272E+02  0.32326562048E+01  0.94973366663E+01  0.20892417578E+02  0.51100000000E-03 0.  1.
         12    1    3    3    0    0  0.53014004928E+01  0.18654290041E+01  0.99631150105E+00  0.57076535600E+01  0.00000000000E+00 0. -1.
</event>
<event>
 7    1  0.1503436E-008  0.4614232E+02  0.7816164E-02  0.1320468E+00
        -11   -1    0    0    0    0  0.00000000000E+00  0.00000000000E+00  0.45593999997E+02  0.45594000000E+02  0.51100000000E-03 0. -1.
         11   -1    0    0    0    0 -0.00000000000E+00 -0.00000000000E+00 -0.45593999997E+02  0.45594000000E+02  0.51100000000E-03 0.  1.
    9900012    2    1    2    0    0 -0.14737725620E+02 -0.23198640793E+02 -0.35689437879E+02  0.46142317995E+02  0.10000002137E+02 0.  0.
         12    1    1    2    0    0  0.14737725620E+02  0.23198640793E+02  0.35689437879E+02  0.45045682005E+02  0.00000000000E+00 0. -1.
         11    1    3    3    0    0 -0.39306428338E+01 -0.20028964260E+01 -0.34345393909E+01  0.55908504066E+01  0.51100000000E-03 0. -1.
        -11    1    3    3    0    0 -0.72213116083E+01 -0.10039507194E+02 -0.20580143510E+02  0.24010026097E+02  0.51100000000E-03 0.  1.
        -12    1    3    3    0    0 -0.35857711777E+01 -0.11156237173E+02 -0.11674754979E+02  0.16541441492E+02  0.00000000000E+00 0.  1.
</event>
<event>
 7    1  0.1503436E-008  0.4614232E+02  0.7816164E-02  0.1320468E+00
        -11   -1    0    0    0    0  0.00000000000E+00  0.00000000000E+00  0.45593999997E+02  0.45594000000E+02  0.51100000000E-03 0.  1.
         11   -1    0    0    0    0 -0.00000000000E+00 -0.00000000000E+00 -0.45593999997E+02  0.45594000000E+02  0.51100000000E-03 0. -1.
    9900012    2    1    2    0    0  0.30087566203E+02 -0.16080096691E+02  0.29415683211E+02  0.46142316872E+02  0.99999918959E+01 0.  0.
         12    1    1    2    0    0 -0.30087566203E+02  0.16080096691E+02 -0.29415683211E+02  0.45045683128E+02  0.00000000000E+00 0. -1.
         11    1    3    3    0    0  0.13406609677E+02 -0.39105796484E+01  0.81690890824E+01  0.16179117186E+02  0.51100000000E-03 0. -1.
        -11    1    3    3    0    0  0.81373141136E+01 -0.32274062334E+01  0.91622904054E+01  0.12672000541E+02  0.51100000000E-03 0.  1.
         12    1    3    3    0    0  0.85436424131E+01 -0.89421108096E+01  0.12084303724E+02  0.17291199146E+02  0.00000000000E+00 0. -1.
</event>
<event>
 7    1  0.1503436E-008  0.4614232E+02  0.7816164E-02  0.1320468E+00
        -11   -1    0    0    0    0  0.00000000000E+00  0.00000000000E+00  0.45593999997E+02  0.45594000000E+02  0.51100000000E-03 0.  1.
         11   -1    0    0    0    0 -0.00000000000E+00 -0.00000000000E+00 -0.45593999997E+02  0.45594000000E+02  0.51100000000E-03 0. -1.
    9900012    2    1    2    0    0  0.19014612237E+02  0.15431301135E+02  0.37807842580E+02  0.46142317701E+02  0.99999994491E+01 0.  0.
         12    1    1    2    0    0 -0.19014612237E+02 -0.15431301135E+02 -0.37807842580E+02  0.45045682299E+02  0.00000000000E+00 0. -1.
         11    1    3    3    0    0  0.78525825634E+01  0.11251264491E+02  0.23131126292E+02  0.26894293249E+02  0.51100000000E-03 0. -1.
        -11    1    3    3    0    0  0.99207255334E+01  0.22772148384E+01  0.12145532829E+02  0.15846781077E+02  0.51100000000E-03 0.  1.
        -12    1    3    3    0    0  0.12413041402E+01  0.19028218060E+01  0.25311834591E+01  0.34012433753E+01  0.00000000000E+00 0.  1.
</event>
<event>
 7    1  0.1503436E-008  0.4614232E+02  0.7816164E-02  0.1320468E+00
        -11   -1    0    0    0    0  0.00000000000E+00  0.00000000000E+00  0.45593999997E+02  0.45594000000E+02  0.51100000000E-03 0.  1.
         11   -1    0    0    0    0 -0.00000000000E+00 -0.00000000000E+00 -0.45593999997E+02  0.45594000000E+02  0.51100000000E-03 0. -1.
    9900012    2    1    2    0    0  0.34621229324E+02  0.59817120930E+01  0.28190479101E+02  0.46142317506E+02  0.99999976702E+01 0.  0.
         12    1    1    2    0    0 -0.34621229324E+02 -0.59817120930E+01 -0.28190479101E+02  0.45045682494E+02  0.00000000000E+00 0. -1.
         11    1    3    3    0    0  0.73060906934E+01  0.39792226416E+01  0.59520403326E+01  0.10229367450E+02  0.51100000000E-03 0. -1.
        -11    1    3    3    0    0  0.20232936923E+02  0.17404010773E+01  0.12422133005E+02  0.23805674136E+02  0.51100000000E-03 0.  1.
         12    1    3    3    0    0  0.70822017080E+01  0.26208837402E+00  0.98163057631E+01  0.12107275919E+02  0.00000000000E+00 0. -1.
</event>
<event>
 7    1  0.1503436E-008  0.4614232E+02  0.7816164E-02  0.1320468E+00
        -11   -1    0    0    0    0  0.00000000000E+00  0.00000000000E+00  0.45593999997E+02  0.45594000000E+02  0.51100000000E-03 0.  1.
         11   -1    0    0    0    0 -0.00000000000E+00 -0.00000000000E+00 -0.45593999997E+02  0.45594000000E+02  0.51100000000E-03 0. -1.
    9900012    2    1    2    0    0  0.27299253111E+02 -0.18765232901E+02  0.30524257914E+02  0.46142317550E+02  0.99999980716E+01 0.  0.
         12    1    1    2    0    0 -0.27299253111E+02  0.18765232901E+02 -0.30524257914E+02  0.45045682450E+02  0.00000000000E+00 0. -1.
         11    1    3    3    0    0  0.53935928172E+01 -0.48453679362E+01  0.47267851736E+01  0.86551101814E+01  0.51100000000E-03 0.  1.
        -11    1    3    3    0    0  0.30205192306E+01 -0.59136783104E+01  0.72724996110E+01  0.98480647050E+01  0.51100000000E-03 0. -1.
        -12    1    3    3    0    0  0.18885141063E+02 -0.80061866540E+01  0.18524973129E+02  0.27639142663E+02  0.00000000000E+00 0.  1.
</event>
<event>
 7    1  0.1503436E-008  0.4614232E+02  0.7816164E-02  0.1320468E+00
        -11   -1    0    0    0    0  0.00000000000E+00  0.00000000000E+00  0.45593999997E+02  0.45594000000E+02  0.51100000000E-03 0. -1.
         11   -1    0    0    0    0 -0.00000000000E+00 -0.00000000000E+00 -0.45593999997E+02  0.45594000000E+02  0.51100000000E-03 0.  1.
    9900012    2    1    2    0    0 -0.11669958287E+02 -0.32988723166E+02 -0.28366701328E+02  0.46142317335E+02  0.99999961146E+01 0.  0.
         12    1    1    2    0    0  0.11669958287E+02  0.32988723166E+02  0.28366701328E+02  0.45045682665E+02  0.00000000000E+00 0. -1.
         11    1    3    3    0    0 -0.20745652980E+01 -0.34004558198E+01 -0.77647917646E+01  0.87269073771E+01  0.51100000000E-03 0. -1.
        -11    1    3    3    0    0 -0.44917352168E+01 -0.95427371300E+01 -0.70608952328E+01  0.12692350410E+02  0.51100000000E-03 0.  1.
         12    1    3    3    0    0 -0.51036577719E+01 -0.20045530216E+02 -0.13541014330E+02  0.24723059548E+02  0.00000000000E+00 0. -1.
</event>
<event>
 7    1  0.1503436E-008  0.4614232E+02  0.7816164E-02  0.1320468E+00
        -11   -1    0    0    0    0  0.00000000000E+00  0.00000000000E+00  0.45593999997E+02  0.45594000000E+02  0.51100000000E-03 0.  1.
         11   -1    0    0    0    0 -0.00000000000E+00 -0.00000000000E+00 -0.45593999997E+02  0.45594000000E+02  0.51100000000E-03 0. -1.
    9900012    2    1    2    0    0 -0.28701096004E+02  0.48917555286E+01  0.34371953373E+02  0.46142319156E+02  0.10000012724E+02 0.  0.
         12    1    1    2    0    0  0.28701096004E+02 -0.48917555286E+01 -0.34371953373E+02  0.45045680844E+02  0.00000000000E+00 0. -1.
         11    1    3    3    0    0 -0.14789146912E+02  0.62967461323E+01  0.18873381636E+02  0.24790571047E+02  0.51100000000E-03 0.  1.
        -11    1    3    3    0    0 -0.81189787839E+01 -0.17694735798E+01  0.11927919411E+02  0.14536991263E+02  0.51100000000E-03 0. -1.
        -12    1    3    3    0    0 -0.57929703086E+01  0.36448297609E+00  0.35706523261E+01  0.68147568460E+01  0.00000000000E+00 0.  1.
</event>
<event>
 7    1  0.1503436E-008  0.4614232E+02  0.7816164E-02  0.1320468E+00
        -11   -1    0    0    0    0  0.00000000000E+00  0.00000000000E+00  0.45593999997E+02  0.45594000000E+02  0.51100000000E-03 0.  1.
         11   -1    0    0    0    0 -0.00000000000E+00 -0.00000000000E+00 -0.45593999997E+02  0.45594000000E+02  0.51100000000E-03 0. -1.
    9900012    2    1    2    0    0  0.30360327454E+02 -0.23718460564E+02  0.23340920283E+02  0.46142318583E+02  0.10000007495E+02 0.  0.
         12    1    1    2    0    0 -0.30360327454E+02  0.23718460564E+02 -0.23340920283E+02  0.45045681417E+02  0.00000000000E+00 0. -1.
         11    1    3    3    0    0  0.10202471392E+02 -0.55939019718E+01  0.10356164765E+02  0.15576659163E+02  0.51100000000E-03 0. -1.
        -11    1    3    3    0    0  0.76835088348E+00 -0.11115012364E+01 -0.52151826338E+00  0.14483713746E+01  0.51100000000E-03 0.  1.
        -12    1    3    3    0    0  0.19389505179E+02 -0.17013057356E+02  0.13506273781E+02  0.29117288045E+02  0.00000000000E+00 0.  1.
</event>
<event>
 7    1  0.1503436E-008  0.4614232E+02  0.7816164E-02  0.1320468E+00
        -11   -1    0    0    0    0  0.00000000000E+00  0.00000000000E+00  0.45593999997E+02  0.45594000000E+02  0.51100000000E-03 0.  1.
         11   -1    0    0    0    0 -0.00000000000E+00 -0.00000000000E+00 -0.45593999997E+02  0.45594000000E+02  0.51100000000E-03 0. -1.
    9900012    2    1    2    0    0 -0.33769354964E+02 -0.21883300655E+02  0.20245130755E+02  0.46142317615E+02  0.99999986689E+01 0.  0.
         12    1    1    2    0    0  0.33769354964E+02  0.21883300655E+02 -0.20245130755E+02  0.45045682385E+02  0.00000000000E+00 0. -1.
         11    1    3    3    0    0 -0.33028009178E+01 -0.42516227485E+01  0.60604546809E+01  0.81064111109E+01  0.51100000000E-03 0. -1.
        -11    1    3    3    0    0 -0.16309351648E+02 -0.79834968431E+01  0.74587666526E+01  0.19630699765E+02  0.51100000000E-03 0.  1.
         12    1    3    3    0    0 -0.14157202398E+02 -0.96481810637E+01  0.67259094214E+01  0.18405206740E+02  0.00000000000E+00 0. -1.
</event>
<event>
 7    1  0.1503436E-008  0.4614232E+02  0.7816164E-02  0.1320468E+00
        -11   -1    0    0    0    0  0.00000000000E+00  0.00000000000E+00  0.45593999997E+02  0.45594000000E+02  0.51100000000E-03 0. -1.
         11   -1    0    0    0    0 -0.00000000000E+00 -0.00000000000E+00 -0.45593999997E+02  0.45594000000E+02  0.51100000000E-03 0.  1.
    9900012    2    1    2    0    0  0.30994701930E+02 -0.32406363482E+02  0.42742889264E+01  0.46142317769E+02  0.10000000075E+02 0.  0.
         12    1    1    2    0    0 -0.30994701930E+02  0.32406363482E+02 -0.42742889264E+01  0.45045682231E+02  0.00000000000E+00 0. -1.
         11    1    3    3    0    0  0.15080888365E+02 -0.15106876532E+02 -0.25108840415E+01  0.21493148940E+02  0.51100000000E-03 0. -1.
        -11    1    3    3    0    0  0.55784169427E+01 -0.40539741235E+01  0.19199624413E+01  0.71581909599E+01  0.51100000000E-03 0.  1.
         12    1    3    3    0    0  0.10335396622E+02 -0.13245512826E+02  0.48652105266E+01  0.17490977869E+02  0.00000000000E+00 0. -1.
</event>
<event>
 7    1  0.1503436E-008  0.4614231E+02  0.7816164E-02  0.1320468E+00
        -11   -1    0    0    0    0  0.00000000000E+00  0.00000000000E+00  0.45593999997E+02  0.45594000000E+02  0.51100000000E-03 0.  1.
         11   -1    0    0    0    0 -0.00000000000E+00 -0.00000000000E+00 -0.45593999997E+02  0.45594000000E+02  0.51100000000E-03 0. -1.
    9900012    2    1    2    0    0 -0.19472460034E+02  0.29114404796E+02  0.28324704462E+02  0.46142310425E+02  0.99999331058E+01 0.  0.
         12    1    1    2    0    0  0.19472460034E+02 -0.29114404796E+02 -0.28324704462E+02  0.45045689575E+02  0.00000000000E+00 0. -1.
         11    1    3    3    0    0 -0.66041109783E+01  0.17088862006E+02  0.12250380464E+02  0.22038949799E+02  0.51100000000E-03 0. -1.
        -11    1    3    3    0    0 -0.12242774886E+02  0.12135292639E+02  0.14977209775E+02  0.22835666779E+02  0.51100000000E-03 0.  1.
         12    1    3    3    0    0 -0.62557416966E+00 -0.10974984900E+00  0.10971142233E+01  0.12676938472E+01  0.00000000000E+00 0. -1.
</event>
<event>
 7    1  0.1503436E-008  0.4614232E+02  0.7816164E-02  0.1320468E+00
        -11   -1    0    0    0    0  0.00000000000E+00  0.00000000000E+00  0.45593999997E+02  0.45594000000E+02  0.51100000000E-03 0. -1.
         11   -1    0    0    0    0 -0.00000000000E+00 -0.00000000000E+00 -0.45593999997E+02  0.45594000000E+02  0.51100000000E-03 0.  1.
    9900012    2    1    2    0    0 -0.39622339973E+02 -0.21094528484E+02  0.37688889889E+01  0.46142317842E+02  0.10000000733E+02 0.  0.
         12    1    1    2    0    0  0.39622339973E+02  0.21094528484E+02 -0.37688889889E+01  0.45045682158E+02  0.00000000000E+00 0. -1.
         11    1    3    3    0    0 -0.22936848568E+02 -0.13925445060E+02  0.48349695861E+01  0.27265252127E+02  0.51100000000E-03 0. -1.
        -11    1    3    3    0    0 -0.27038220869E+01 -0.31103146166E+01 -0.12837662222E+01  0.43165688765E+01  0.51100000000E-03 0.  1.
         12    1    3    3    0    0 -0.13981669318E+02 -0.40587688073E+01  0.21768562494E+00  0.14560496839E+02  0.00000000000E+00 0. -1.
</event>
<event>
 7    1  0.1503436E-008  0.4614232E+02  0.7816164E-02  0.1320468E+00
        -11   -1    0    0    0    0  0.00000000000E+00  0.00000000000E+00  0.45593999997E+02  0.45594000000E+02  0.51100000000E-03 0.  1.
         11   -1    0    0    0    0 -0.00000000000E+00 -0.00000000000E+00 -0.45593999997E+02  0.45594000000E+02  0.51100000000E-03 0. -1.
    9900012    2    1    2    0    0  0.39825552734E+02 -0.15892108152E+02 -0.13801436051E+02  0.46142318862E+02  0.10000010042E+02 0.  0.
         12    1    1    2    0    0 -0.39825552734E+02  0.15892108152E+02  0.13801436051E+02  0.45045681138E+02  0.00000000000E+00 0. -1.
         11    1    3    3    0    0  0.43880835672E+01 -0.47109441066E+01 -0.43895031038E+01  0.77920478392E+01  0.51100000000E-03 0. -1.
        -11    1    3    3    0    0  0.15186276781E+02 -0.45220171179E+01 -0.45377382277E+01  0.16482193718E+02  0.51100000000E-03 0.  1.
         12    1    3    3    0    0  0.20251192386E+02 -0.66591469278E+01 -0.48741947195E+01  0.21868077305E+02  0.00000000000E+00 0. -1.
</event>
<event>
 7    1  0.1503436E-008  0.4614232E+02  0.7816164E-02  0.1320468E+00
        -11   -1    0    0    0    0  0.00000000000E+00  0.00000000000E+00  0.45593999997E+02  0.45594000000E+02  0.51100000000E-03 0. -1.
         11   -1    0    0    0    0 -0.00000000000E+00 -0.00000000000E+00 -0.45593999997E+02  0.45594000000E+02  0.51100000000E-03 0.  1.
    9900012    2    1    2    0    0  0.10583223611E+01  0.73814164625E+01 -0.44424183940E+02  0.46142317921E+02  0.10000001458E+02 0.  0.
         12    1    1    2    0    0 -0.10583223611E+01 -0.73814164625E+01  0.44424183940E+02  0.45045682079E+02  0.00000000000E+00 0. -1.
         11    1    3    3    0    0 -0.15864119721E+01  0.35399547679E-01 -0.39597277822E+01  0.42658411180E+01  0.51100000000E-03 0. -1.
        -11    1    3    3    0    0 -0.80412222316E+00  0.67985644809E+01 -0.20609686391E+02  0.21716958004E+02  0.51100000000E-03 0.  1.
        -12    1    3    3    0    0  0.34488565563E+01  0.54745243388E+00 -0.19854769767E+02  0.20159518799E+02  0.00000000000E+00 0.  1.
</event>
<event>
 7    1  0.1503436E-008  0.4614232E+02  0.7816164E-02  0.1320468E+00
        -11   -1    0    0    0    0  0.00000000000E+00  0.00000000000E+00  0.45593999997E+02  0.45594000000E+02  0.51100000000E-03 0. -1.
         11   -1    0    0    0    0 -0.00000000000E+00 -0.00000000000E+00 -0.45593999997E+02  0.45594000000E+02  0.51100000000E-03 0.  1.
    9900012    2    1    2    0    0 -0.21548979143E+02 -0.13000825773E+02 -0.37359517349E+02  0.46142317527E+02  0.99999978648E+01 0.  0.
         12    1    1    2    0    0  0.21548979143E+02  0.13000825773E+02  0.37359517349E+02  0.45045682473E+02  0.00000000000E+00 0. -1.
         11    1    3    3    0    0 -0.42002963537E+01 -0.17860911551E+01 -0.59267644329E+01  0.74805847350E+01  0.51100000000E-03 0. -1.
        -11    1    3    3    0    0 -0.43031117057E+01  0.90777503162E+00 -0.39368595136E+01  0.59025154766E+01  0.51100000000E-03 0.  1.
        -12    1    3    3    0    0 -0.13045571084E+02 -0.12122509649E+02 -0.27495893403E+02  0.32759217315E+02  0.00000000000E+00 0.  1.
</event>
<event>
 7    1  0.1503436E-008  0.4614232E+02  0.7816164E-02  0.1320468E+00
        -11   -1    0    0    0    0  0.00000000000E+00  0.00000000000E+00  0.45593999997E+02  0.45594000000E+02  0.51100000000E-03 0.  1.
         11   -1    0    0    0    0 -0.00000000000E+00 -0.00000000000E+00 -0.45593999997E+02  0.45594000000E+02  0.51100000000E-03 0. -1.
    9900012    2    1    2    0    0 -0.15260807086E+02 -0.24294205689E+02  0.34727696078E+02  0.46142317211E+02  0.99999949871E+01 0.  0.
         12    1    1    2    0    0  0.15260807086E+02  0.24294205689E+02 -0.34727696078E+02  0.45045682789E+02  0.00000000000E+00 0. -1.
         11    1    3    3    0    0 -0.54201755852E+01 -0.13467320757E+02  0.17814234336E+02  0.22980295406E+02  0.51100000000E-03 0. -1.
        -11    1    3    3    0    0 -0.17657788455E+01 -0.61197104273E+01  0.55473922529E+01  0.84464425478E+01  0.51100000000E-03 0.  1.
         12    1    3    3    0    0 -0.80748526556E+01 -0.47071745054E+01  0.11366069490E+02  0.14715579257E+02  0.00000000000E+00 0. -1.
</event>
<event>
 7    1  0.1503436E-008  0.4614232E+02  0.7816164E-02  0.1320468E+00
        -11   -1    0    0    0    0  0.00000000000E+00  0.00000000000E+00  0.45593999997E+02  0.45594000000E+02  0.51100000000E-03 0.  1.
         11   -1    0    0    0    0 -0.00000000000E+00 -0.00000000000E+00 -0.45593999997E+02  0.45594000000E+02  0.51100000000E-03 0. -1.
    9900012    2    1    2    0    0 -0.30624802978E+02 -0.32664429373E+02  0.49264535573E+01  0.46142318205E+02  0.10000004051E+02 0.  0.
         12    1    1    2    0    0  0.30624802978E+02  0.32664429373E+02 -0.49264535573E+01  0.45045681795E+02  0.00000000000E+00 0. -1.
         11    1    3    3    0    0 -0.13659877775E+02 -0.16048638899E+02 -0.24641440704E+01  0.21218460774E+02  0.51100000000E-03 0. -1.
        -11    1    3    3    0    0 -0.31496082326E+01 -0.35087607820E+01  0.20819019411E+01  0.51541973378E+01  0.51100000000E-03 0.  1.
         12    1    3    3    0    0 -0.13815316970E+02 -0.13107029692E+02  0.53086956866E+01  0.19769660094E+02  0.00000000000E+00 0. -1.
</event>
<event>
 7    1  0.1503436E-008  0.4614232E+02  0.7816164E-02  0.1320468E+00
        -11   -1    0    0    0    0  0.00000000000E+00  0.00000000000E+00  0.45593999997E+02  0.45594000000E+02  0.51100000000E-03 0.  1.
         11   -1    0    0    0    0 -0.00000000000E+00 -0.00000000000E+00 -0.45593999997E+02  0.45594000000E+02  0.51100000000E-03 0. -1.
    9900012    2    1    2    0    0  0.20851537774E+02  0.19376747243E+02  0.34912298029E+02  0.46142317467E+02  0.99999973141E+01 0.  0.
         12    1    1    2    0    0 -0.20851537774E+02 -0.19376747243E+02 -0.34912298029E+02  0.45045682533E+02  0.00000000000E+00 0. -1.
         11    1    3    3    0    0  0.17661941890E+01 -0.23842992015E+00  0.34819837711E+01  0.39115856098E+01  0.51100000000E-03 0. -1.
        -11    1    3    3    0    0  0.11828461760E+02  0.10230264957E+02  0.22411344215E+02  0.27328358503E+02  0.51100000000E-03 0.  1.
         12    1    3    3    0    0  0.72568818244E+01  0.93849122064E+01  0.90189700433E+01  0.14902373354E+02  0.00000000000E+00 0. -1.
</event>
<event>
 7    1  0.1653969E-008  0.4614232E+02  0.7816164E-02  0.1320468E+00
        -11   -1    0    0    0    0  0.00000000000E+00  0.00000000000E+00  0.45593999997E+02  0.45594000000E+02  0.51100000000E-03 0. -1.
         11   -1    0    0    0    0 -0.00000000000E+00 -0.00000000000E+00 -0.45593999997E+02  0.45594000000E+02  0.51100000000E-03 0.  1.
    9900012    2    1    2    0    0 -0.36946546310E+02  0.46760182373E+01 -0.25341680632E+02  0.46142320873E+02  0.10000028376E+02 0.  0.
         12    1    1    2    0    0  0.36946546310E+02 -0.46760182373E+01  0.25341680632E+02  0.45045679127E+02  0.00000000000E+00 0. -1.
         11    1    3    3    0    0 -0.36643693649E+01  0.25315146795E+01 -0.13753626737E+01  0.46613079881E+01  0.51100000000E-03 0. -1.
        -11    1    3    3    0    0 -0.26705368133E+02  0.36313048241E+01 -0.20732149816E+02  0.34002721922E+02  0.51100000000E-03 0.  1.
        -12    1    3    3    0    0 -0.65768088121E+01 -0.14868012663E+01 -0.32341681423E+01  0.74782909631E+01  0.00000000000E+00 0.  1.
</event>
<event>
 7    1  0.1503436E-008  0.4614232E+02  0.7816164E-02  0.1320468E+00
        -11   -1    0    0    0    0  0.00000000000E+00  0.00000000000E+00  0.45593999997E+02  0.45594000000E+02  0.51100000000E-03 0.  1.
         11   -1    0    0    0    0 -0.00000000000E+00 -0.00000000000E+00 -0.45593999997E+02  0.45594000000E+02  0.51100000000E-03 0. -1.
    9900012    2    1    2    0    0  0.32791887468E+02 -0.14153756908E+02  0.27449529196E+02  0.46142319059E+02  0.10000011835E+02 0.  0.
         12    1    1    2    0    0 -0.32791887468E+02  0.14153756908E+02 -0.27449529196E+02  0.45045680941E+02  0.00000000000E+00 0. -1.
         11    1    3    3    0    0  0.14253902219E+01 -0.24282735100E+01  0.12628210741E+01  0.30859304676E+01  0.51100000000E-03 0. -1.
        -11    1    3    3    0    0  0.79711976227E+01 -0.41724216414E+01  0.36634041393E+01  0.97144029175E+01  0.51100000000E-03 0.  1.
        -12    1    3    3    0    0  0.23395299623E+02 -0.75530617567E+01  0.22523303983E+02  0.33341985674E+02  0.00000000000E+00 0.  1.
</event>
<event>
 7    1  0.1879864E-008  0.4614232E+02  0.7816164E-02  0.1320468E+00
        -11   -1    0    0    0    0  0.00000000000E+00  0.00000000000E+00  0.45593999997E+02  0.45594000000E+02  0.51100000000E-03 0. -1.
         11   -1    0    0    0    0 -0.00000000000E+00 -0.00000000000E+00 -0.45593999997E+02  0.45594000000E+02  0.51100000000E-03 0.  1.
    9900012    2    1    2    0    0 -0.11142236918E+02 -0.41847222189E+02 -0.12400565440E+02  0.46142317946E+02  0.10000001683E+02 0.  0.
         12    1    1    2    0    0  0.11142236918E+02  0.41847222189E+02  0.12400565440E+02  0.45045682054E+02  0.00000000000E+00 0. -1.
         11    1    3    3    0    0  0.92407090534E+00 -0.20148295207E+01 -0.14924867175E+00  0.22216481410E+01  0.51100000000E-03 0. -1.
        -11    1    3    3    0    0 -0.20239976351E+01 -0.13937812429E+02 -0.67050707125E+01  0.15598626711E+02  0.51100000000E-03 0.  1.
        -12    1    3    3    0    0 -0.10042310188E+02 -0.25894580240E+02 -0.55462460558E+01  0.28322043094E+02  0.00000000000E+00 0.  1.
</event>
<event>
 7    1  0.1503436E-008  0.4614232E+02  0.7816164E-02  0.1320468E+00
        -11   -1    0    0    0    0  0.00000000000E+00  0.00000000000E+00  0.45593999997E+02  0.45594000000E+02  0.51100000000E-03 0. -1.
         11   -1    0    0    0    0 -0.00000000000E+00 -0.00000000000E+00 -0.45593999997E+02  0.45594000000E+02  0.51100000000E-03 0.  1.
    9900012    2    1    2    0    0 -0.36943170670E+02 -0.23834722273E+02 -0.98092699879E+01  0.46142316271E+02  0.99999864077E+01 0.  0.
         12    1    1    2    0    0  0.36943170670E+02  0.23834722273E+02  0.98092699879E+01  0.45045683729E+02  0.00000000000E+00 0. -1.
         11    1    3    3    0    0 -0.26074067463E+01 -0.35948093333E-01 -0.65283878728E+00  0.26881333578E+01  0.51100000000E-03 0. -1.
        -11    1    3    3    0    0 -0.53521532215E+01 -0.70664828243E+01 -0.34094562610E+01  0.94976373836E+01  0.51100000000E-03 0.  1.
        -12    1    3    3    0    0 -0.28983610702E+02 -0.16732291356E+02 -0.57469749396E+01  0.33956545529E+02  0.00000000000E+00 0.  1.
</event>
<event>
 7    1  0.1503436E-008  0.4614232E+02  0.7816164E-02  0.1320468E+00
        -11   -1    0    0    0    0  0.00000000000E+00  0.00000000000E+00  0.45593999997E+02  0.45594000000E+02  0.51100000000E-03 0.  1.
         11   -1    0    0    0    0 -0.00000000000E+00 -0.00000000000E+00 -0.45593999997E+02  0.45594000000E+02  0.51100000000E-03 0. -1.
    9900012    2    1    2    0    0 -0.10391454841E+02  0.76739089465E+01  0.43153698389E+02  0.46142324327E+02  0.10000059873E+02 0.  0.
         12    1    1    2    0    0  0.10391454841E+02 -0.76739089465E+01 -0.43153698389E+02  0.45045675673E+02  0.00000000000E+00 0. -1.
         11    1    3    3    0    0 -0.30143932985E+01 -0.13727246585E+01  0.17815061261E+02  0.18120357280E+02  0.51100000000E-03 0. -1.
        -11    1    3    3    0    0 -0.72476770142E+01  0.79016992816E+01  0.23762649801E+02  0.26069698875E+02  0.51100000000E-03 0.  1.
         12    1    3    3    0    0 -0.12938452808E+00  0.11449343234E+01  0.15759873262E+01  0.19522681715E+01  0.00000000000E+00 0. -1.
</event>
<event>
 7    1  0.1503436E-008  0.4614232E+02  0.7816164E-02  0.1320468E+00
        -11   -1    0    0    0    0  0.00000000000E+00  0.00000000000E+00  0.45593999997E+02  0.45594000000E+02  0.51100000000E-03 0.  1.
         11   -1    0    0    0    0 -0.00000000000E+00 -0.00000000000E+00 -0.45593999997E+02  0.45594000000E+02  0.51100000000E-03 0. -1.
    9900012    2    1    2    0    0 -0.36623267968E+02  0.17546048453E+02  0.19493223965E+02  0.46142319258E+02  0.10000013649E+02 0.  0.
         12    1    1    2    0    0  0.36623267968E+02 -0.17546048453E+02 -0.19493223965E+02  0.45045680742E+02  0.00000000000E+00 0. -1.
         11    1    3    3    0    0 -0.52873689938E+01  0.48970722015E+01  0.72314062806E+00  0.72429634579E+01  0.51100000000E-03 0. -1.
        -11    1    3    3    0    0 -0.16824814910E+02  0.58054220273E+01  0.12113525930E+02  0.21529394613E+02  0.51100000000E-03 0.  1.
        -12    1    3    3    0    0 -0.14511084064E+02  0.68435542246E+01  0.66565574073E+01  0.17369961187E+02  0.00000000000E+00 0.  1.
</event>
<event>
 7    1  0.1503436E-008  0.4614232E+02  0.7816164E-02  0.1320468E+00
        -11   -1    0    0    0    0  0.00000000000E+00  0.00000000000E+00  0.45593999997E+02  0.45594000000E+02  0.51100000000E-03 0. -1.
         11   -1    0    0    0    0 -0.00000000000E+00 -0.00000000000E+00 -0.45593999997E+02  0.45594000000E+02  0.51100000000E-03 0.  1.
    9900012    2    1    2    0    0 -0.19775095659E+02 -0.37100231783E+02 -0.16175023012E+02  0.46142323448E+02  0.10000051854E+02 0.  0.
         12    1    1    2    0    0  0.19775095659E+02  0.37100231783E+02  0.16175023012E+02  0.45045676552E+02  0.00000000000E+00 0. -1.
         11    1    3    3    0    0 -0.35181279591E+01 -0.51148573750E+01  0.38587143725E+00  0.62199587885E+01  0.51100000000E-03 0. -1.
        -11    1    3    3    0    0 -0.51050136285E+01 -0.11508711245E+02 -0.29762620759E+01  0.12937145546E+02  0.51100000000E-03 0.  1.
         12    1    3    3    0    0 -0.11151954071E+02 -0.20476663163E+02 -0.13584632373E+02  0.26985219113E+02  0.00000000000E+00 0. -1.
</event>
<event>
 7    1  0.1503436E-008  0.4614232E+02  0.7816164E-02  0.1320468E+00
        -11   -1    0    0    0    0  0.00000000000E+00  0.00000000000E+00  0.45593999997E+02  0.45594000000E+02  0.51100000000E-03 0.  1.
         11   -1    0    0    0    0 -0.00000000000E+00 -0.00000000000E+00 -0.45593999997E+02  0.45594000000E+02  0.51100000000E-03 0. -1.
    9900012    2    1    2    0    0 -0.27453400232E+02  0.34485668593E+02  0.92824018176E+01  0.46142317564E+02  0.99999982047E+01 0.  0.
         12    1    1    2    0    0  0.27453400232E+02 -0.34485668593E+02 -0.92824018176E+01  0.45045682436E+02  0.00000000000E+00 0. -1.
         11    1    3    3    0    0 -0.24716141829E+01  0.76755818241E+01  0.38873348078E+01  0.89518045766E+01  0.51100000000E-03 0. -1.
        -11    1    3    3    0    0 -0.59383648452E+01  0.57347797989E+01 -0.11603561502E+00  0.82562304293E+01  0.51100000000E-03 0.  1.
        -12    1    3    3    0    0 -0.19043421204E+02  0.21075306970E+02  0.55111026248E+01  0.28934282558E+02  0.00000000000E+00 0.  1.
</event>
<event>
 7    1  0.1503436E-008  0.4614232E+02  0.7816164E-02  0.1320468E+00
        -11   -1    0    0    0    0  0.00000000000E+00  0.00000000000E+00  0.45593999997E+02  0.45594000000E+02  0.51100000000E-03 0.  1.
         11   -1    0    0    0    0 -0.00000000000E+00 -0.00000000000E+00 -0.45593999997E+02  0.45594000000E+02  0.51100000000E-03 0. -1.
    9900012    2    1    2    0    0 -0.23236448724E+02 -0.22288476224E+02  0.31502453418E+02  0.46142319929E+02  0.10000019770E+02 0.  0.
         12    1    1    2    0    0  0.23236448724E+02  0.22288476224E+02 -0.31502453418E+02  0.45045680071E+02  0.00000000000E+00 0. -1.
         11    1    3    3    0    0  0.84871274147E+00 -0.73906446191E+00  0.20052973563E+01  0.22995102402E+01  0.51100000000E-03 0. -1.
        -11    1    3    3    0    0 -0.70192907131E+01 -0.66553140873E+01  0.71983388468E+01  0.12057351705E+02  0.51100000000E-03 0.  1.
         12    1    3    3    0    0 -0.17065870753E+02 -0.14894097674E+02  0.22298817215E+02  0.31785457984E+02  0.00000000000E+00 0. -1.
</event>
<event>
 7    1  0.1503436E-008  0.4614232E+02  0.7816164E-02  0.1320468E+00
        -11   -1    0    0    0    0  0.00000000000E+00  0.00000000000E+00  0.45593999997E+02  0.45594000000E+02  0.51100000000E-03 0.  1.
         11   -1    0    0    0    0 -0.00000000000E+00 -0.00000000000E+00 -0.45593999997E+02  0.45594000000E+02  0.51100000000E-03 0. -1.
    9900012    2    1    2    0    0  0.19725540418E+02  0.64321358760E+01  0.39983048884E+02  0.46142317468E+02  0.99999973267E+01 0.  0.
         12    1    1    2    0    0 -0.19725540418E+02 -0.64321358760E+01 -0.39983048884E+02  0.45045682532E+02  0.00000000000E+00 0. -1.
         11    1    3    3    0    0  0.68307069502E+01 -0.15038326308E+01  0.11550086513E+02  0.13502761523E+02  0.51100000000E-03 0.  1.
        -11    1    3    3    0    0  0.30770034522E+01  0.38948568260E+01  0.12926282318E+02  0.13846538729E+02  0.51100000000E-03 0. -1.
        -12    1    3    3    0    0  0.98178300151E+01  0.40411116808E+01  0.15506680053E+02  0.18793017216E+02  0.00000000000E+00 0.  1.
</event>
<event>
 7    1  0.1503436E-008  0.4614232E+02  0.7816164E-02  0.1320468E+00
        -11   -1    0    0    0    0  0.00000000000E+00  0.00000000000E+00  0.45593999997E+02  0.45594000000E+02  0.51100000000E-03 0. -1.
         11   -1    0    0    0    0 -0.00000000000E+00 -0.00000000000E+00 -0.45593999997E+02  0.45594000000E+02  0.51100000000E-03 0.  1.
    9900012    2    1    2    0    0 -0.27962473462E+02 -0.29505656016E+02  0.19406953502E+02  0.46142317595E+02  0.99999984882E+01 0.  0.
         12    1    1    2    0    0  0.27962473462E+02  0.29505656016E+02 -0.19406953502E+02  0.45045682405E+02  0.00000000000E+00 0. -1.
         11    1    3    3    0    0 -0.11168352703E+02 -0.15375947894E+02  0.10118961492E+02  0.21530101200E+02  0.51100000000E-03 0. -1.
        -11    1    3    3    0    0 -0.82604411024E+01 -0.37641351189E+01  0.56845989283E+01  0.10710661307E+02  0.51100000000E-03 0.  1.
        -12    1    3    3    0    0 -0.85336796567E+01 -0.10365573004E+02  0.36033930814E+01  0.13901555088E+02  0.00000000000E+00 0.  1.
</event>
<event>
 7    1  0.1503436E-008  0.4614232E+02  0.7816164E-02  0.1320468E+00
        -11   -1    0    0    0    0  0.00000000000E+00  0.00000000000E+00  0.45593999997E+02  0.45594000000E+02  0.51100000000E-03 0.  1.
         11   -1    0    0    0    0 -0.00000000000E+00 -0.00000000000E+00 -0.45593999997E+02  0.45594000000E+02  0.51100000000E-03 0. -1.
    9900012    2    1    2    0    0 -0.61052220911E+01  0.40329098706E+02  0.19115532048E+02  0.46142317580E+02  0.99999983515E+01 0.  0.
         12    1    1    2    0    0  0.61052220911E+01 -0.40329098706E+02 -0.19115532048E+02  0.45045682420E+02  0.00000000000E+00 0. -1.
         11    1    3    3    0    0 -0.78423543573E+01  0.26448316555E+02  0.10211191581E+02  0.29415716959E+02  0.51100000000E-03 0. -1.
        -11    1    3    3    0    0  0.35951108228E+00  0.97069893535E+01  0.67731502044E+01  0.11841894041E+02  0.51100000000E-03 0.  1.
         12    1    3    3    0    0  0.13776211839E+01  0.41737927976E+01  0.21311902623E+01  0.48847065805E+01  0.00000000000E+00 0. -1.
</event>
<event>
 7    1  0.1503436E-008  0.4614232E+02  0.7816164E-02  0.1320468E+00
        -11   -1    0    0    0    0  0.00000000000E+00  0.00000000000E+00  0.45593999997E+02  0.45594000000E+02  0.51100000000E-03 0.  1.
         11   -1    0    0    0    0 -0.00000000000E+00 -0.00000000000E+00 -0.45593999997E+02  0.45594000000E+02  0.51100000000E-03 0. -1.
    9900012    2    1    2    0    0 -0.88296388142E+01  0.11545835656E+00  0.44171684090E+02  0.46142317326E+02  0.99999960348E+01 0.  0.
         12    1    1    2    0    0  0.88296388142E+01 -0.11545835656E+00 -0.44171684090E+02  0.45045682674E+02  0.00000000000E+00 0. -1.
         11    1    3    3    0    0 -0.35767061934E+01 -0.89555357263E-01  0.44801696438E+01  0.57334777975E+01  0.51100000000E-03 0. -1.
        -11    1    3    3    0    0 -0.14433488349E+00  0.15203132292E+01  0.18788367710E+02  0.18850330138E+02  0.51100000000E-03 0.  1.
        -12    1    3    3    0    0 -0.51085977373E+01 -0.13152995154E+01  0.20903146736E+02  0.21558509390E+02  0.00000000000E+00 0.  1.
</event>
<event>
 7    1  0.1503436E-008  0.4614232E+02  0.7816164E-02  0.1320468E+00
        -11   -1    0    0    0    0  0.00000000000E+00  0.00000000000E+00  0.45593999997E+02  0.45594000000E+02  0.51100000000E-03 0.  1.
         11   -1    0    0    0    0 -0.00000000000E+00 -0.00000000000E+00 -0.45593999997E+02  0.45594000000E+02  0.51100000000E-03 0. -1.
    9900012    2    1    2    0    0 -0.24593902713E+02  0.13579579525E+02  0.35211483067E+02  0.46142316850E+02  0.99999916874E+01 0.  0.
         12    1    1    2    0    0  0.24593902713E+02 -0.13579579525E+02 -0.35211483067E+02  0.45045683150E+02  0.00000000000E+00 0. -1.
         11    1    3    3    0    0  0.42183840822E-02 -0.87080975322E+00  0.70699421471E+00  0.11216811052E+01  0.51100000000E-03 0. -1.
        -11    1    3    3    0    0 -0.20855121614E+02  0.10145244533E+02  0.28378947259E+02  0.36650057735E+02  0.51100000000E-03 0.  1.
        -12    1    3    3    0    0 -0.37429994831E+01  0.43051447448E+01  0.61255415932E+01  0.83705780095E+01  0.00000000000E+00 0.  1.
</event>
<event>
 7    1  0.1503436E-008  0.4614232E+02  0.7816164E-02  0.1320468E+00
        -11   -1    0    0    0    0  0.00000000000E+00  0.00000000000E+00  0.45593999997E+02  0.45594000000E+02  0.51100000000E-03 0.  1.
         11   -1    0    0    0    0 -0.00000000000E+00 -0.00000000000E+00 -0.45593999997E+02  0.45594000000E+02  0.51100000000E-03 0. -1.
    9900012    2    1    2    0    0 -0.48742558203E+01 -0.38503076350E+01  0.44615360667E+02  0.46142316009E+02  0.99999840272E+01 0.  0.
         12    1    1    2    0    0  0.48742558203E+01  0.38503076350E+01 -0.44615360667E+02  0.45045683991E+02  0.00000000000E+00 0. -1.
         11    1    3    3    0    0 -0.27707697789E+01 -0.15391668725E+01  0.10179209106E+02  0.10661261563E+02  0.51100000000E-03 0. -1.
        -11    1    3    3    0    0 -0.13942947890E+01 -0.50331217203E+01  0.15980542957E+02  0.16812320651E+02  0.51100000000E-03 0.  1.
        -12    1    3    3    0    0 -0.70919125243E+00  0.27219809578E+01  0.18455608605E+02  0.18668733796E+02  0.00000000000E+00 0.  1.
</event>
<event>
 7    1  0.1503436E-008  0.4614232E+02  0.7816164E-02  0.1320468E+00
        -11   -1    0    0    0    0  0.00000000000E+00  0.00000000000E+00  0.45593999997E+02  0.45594000000E+02  0.51100000000E-03 0.  1.
         11   -1    0    0    0    0 -0.00000000000E+00 -0.00000000000E+00 -0.45593999997E+02  0.45594000000E+02  0.51100000000E-03 0. -1.
    9900012    2    1    2    0    0  0.18141608546E+02 -0.19680481180E+02  0.36230846878E+02  0.46142316904E+02  0.99999921804E+01 0.  0.
         12    1    1    2    0    0 -0.18141608546E+02  0.19680481180E+02 -0.36230846878E+02  0.45045683096E+02  0.00000000000E+00 0. -1.
         11    1    3    3    0    0  0.66806973295E+01 -0.13629618619E+02  0.16299972025E+02  0.22273017505E+02  0.51100000000E-03 0. -1.
        -11    1    3    3    0    0  0.64909529186E+01 -0.41388260910E+01  0.10229425390E+02  0.12802480044E+02  0.51100000000E-03 0.  1.
         12    1    3    3    0    0  0.49699582977E+01 -0.19120364707E+01  0.97014494633E+01  0.11066819355E+02  0.00000000000E+00 0. -1.
</event>
<event>
 7    1  0.1503436E-008  0.4614231E+02  0.7816164E-02  0.1320468E+00
        -11   -1    0    0    0    0  0.00000000000E+00  0.00000000000E+00  0.45593999997E+02  0.45594000000E+02  0.51100000000E-03 0.  1.
         11   -1    0    0    0    0 -0.00000000000E+00 -0.00000000000E+00 -0.45593999997E+02  0.45594000000E+02  0.51100000000E-03 0. -1.
    9900012    2    1    2    0    0  0.21531328109E+02  0.23499638894E+02  0.31832100852E+02  0.46142314713E+02  0.99999722053E+01 0.  0.
         12    1    1    2    0    0 -0.21531328109E+02 -0.23499638894E+02 -0.31832100852E+02  0.45045685287E+02  0.00000000000E+00 0. -1.
         11    1    3    3    0    0  0.30473250309E+01  0.16929717899E+01  0.77751416098E+00  0.35716763372E+01  0.51100000000E-03 0. -1.
        -11    1    3    3    0    0  0.14601989836E+02  0.16548807709E+02  0.27028435479E+02  0.34894375886E+02  0.51100000000E-03 0.  1.
        -12    1    3    3    0    0  0.38820132421E+01  0.52578593949E+01  0.40261512123E+01  0.76762624898E+01  0.00000000000E+00 0.  1.
</event>
<event>
 7    1  0.1503436E-008  0.4614232E+02  0.7816164E-02  0.1320468E+00
        -11   -1    0    0    0    0  0.00000000000E+00  0.00000000000E+00  0.45593999997E+02  0.45594000000E+02  0.51100000000E-03 0. -1.
         11   -1    0    0    0    0 -0.00000000000E+00 -0.00000000000E+00 -0.45593999997E+02  0.45594000000E+02  0.51100000000E-03 0.  1.
    9900012    2    1    2    0    0 -0.33731759390E+02  0.35836805074E+01 -0.29638472596E+02  0.46142318572E+02  0.10000007393E+02 0.  0.
         12    1    1    2    0    0  0.33731759390E+02 -0.35836805074E+01  0.29638472596E+02  0.45045681428E+02  0.00000000000E+00 0. -1.
         11    1    3    3    0    0 -0.35309359062E+01  0.17892617322E+01 -0.25525355366E+01  0.47100322554E+01  0.51100000000E-03 0. -1.
        -11    1    3    3    0    0 -0.28242714714E+02  0.38556325236E+00 -0.21996397546E+02  0.35800015345E+02  0.51100000000E-03 0.  1.
        -12    1    3    3    0    0 -0.19581087697E+01  0.14088555229E+01 -0.50895395134E+01  0.56322709716E+01  0.00000000000E+00 0.  1.
</event>
<event>
 7    1  0.1503436E-008  0.4614232E+02  0.7816164E-02  0.1320468E+00
        -11   -1    0    0    0    0  0.00000000000E+00  0.00000000000E+00  0.45593999997E+02  0.45594000000E+02  0.51100000000E-03 0.  1.
         11   -1    0    0    0    0 -0.00000000000E+00 -0.00000000000E+00 -0.45593999997E+02  0.45594000000E+02  0.51100000000E-03 0. -1.
    9900012    2    1    2    0    0 -0.23154796886E+02 -0.32514479351E+02  0.20875281770E+02  0.46142319016E+02  0.10000011444E+02 0.  0.
         12    1    1    2    0    0  0.23154796886E+02  0.32514479351E+02 -0.20875281770E+02  0.45045680984E+02  0.00000000000E+00 0. -1.
         11    1    3    3    0    0 -0.15443764190E+02 -0.15103778567E+02  0.12099105711E+02  0.24759287927E+02  0.51100000000E-03 0.  1.
        -11    1    3    3    0    0 -0.53005015923E+01 -0.14505417655E+02  0.55286781316E+01  0.16403314928E+02  0.51100000000E-03 0. -1.
         12    1    3    3    0    0 -0.24105311038E+01 -0.29052831291E+01  0.32474979270E+01  0.49797161615E+01  0.00000000000E+00 0. -1.
</event>
<event>
 7    1  0.1503436E-008  0.4614232E+02  0.7816164E-02  0.1320468E+00
        -11   -1    0    0    0    0  0.00000000000E+00  0.00000000000E+00  0.45593999997E+02  0.45594000000E+02  0.51100000000E-03 0.  1.
         11   -1    0    0    0    0 -0.00000000000E+00 -0.00000000000E+00 -0.45593999997E+02  0.45594000000E+02  0.51100000000E-03 0. -1.
    9900012    2    1    2    0    0 -0.11406826698E+02  0.19457569869E+02  0.38992315362E+02  0.46142318988E+02  0.10000011187E+02 0.  0.
         12    1    1    2    0    0  0.11406826698E+02 -0.19457569869E+02 -0.38992315362E+02  0.45045681012E+02  0.00000000000E+00 0. -1.
         11    1    3    3    0    0  0.44412684662E-01  0.70896565825E+01  0.10046829569E+02  0.12296503064E+02  0.51100000000E-03 0. -1.
        -11    1    3    3    0    0 -0.24478451805E+01  0.48183176346E+01  0.60568688262E+01  0.81174990665E+01  0.51100000000E-03 0.  1.
         12    1    3    3    0    0 -0.90033942025E+01  0.75495956516E+01  0.22888616967E+02  0.25728316858E+02  0.00000000000E+00 0. -1.
</event>
<event>
 7    1  0.1503436E-008  0.4614232E+02  0.7816164E-02  0.1320468E+00
        -11   -1    0    0    0    0  0.00000000000E+00  0.00000000000E+00  0.45593999997E+02  0.45594000000E+02  0.51100000000E-03 0. -1.
         11   -1    0    0    0    0 -0.00000000000E+00 -0.00000000000E+00 -0.45593999997E+02  0.45594000000E+02  0.51100000000E-03 0.  1.
    9900012    2    1    2    0    0 -0.18345926955E+02 -0.49714671154E+01 -0.40839010572E+02  0.46142319790E+02  0.10000018497E+02 0.  0.
         12    1    1    2    0    0  0.18345926955E+02  0.49714671154E+01  0.40839010572E+02  0.45045680210E+02  0.00000000000E+00 0. -1.
         11    1    3    3    0    0 -0.20717647410E+01  0.24592203926E+01 -0.48038693214E+01  0.57807555561E+01  0.51100000000E-03 0. -1.
        -11    1    3    3    0    0 -0.79841216441E+01 -0.43316172712E+01 -0.14933683466E+02  0.17479245085E+02  0.51100000000E-03 0.  1.
        -12    1    3    3    0    0 -0.82900405700E+01 -0.30990702369E+01 -0.21101457785E+02  0.22882319149E+02  0.00000000000E+00 0.  1.
</event>
<event>
 7    1  0.1503436E-008  0.4614232E+02  0.7816164E-02  0.1320468E+00
        -11   -1    0    0    0    0  0.00000000000E+00  0.00000000000E+00  0.45593999997E+02  0.45594000000E+02  0.51100000000E-03 0.  1.
         11   -1    0    0    0    0 -0.00000000000E+00 -0.00000000000E+00 -0.45593999997E+02  0.45594000000E+02  0.51100000000E-03 0. -1.
    9900012    2    1    2    0    0  0.62846490710E+01  0.26036261756E+02  0.36217808894E+02  0.46142318506E+02  0.10000006792E+02 0.  0.
         12    1    1    2    0    0 -0.62846490710E+01 -0.26036261756E+02 -0.36217808894E+02  0.45045681494E+02  0.00000000000E+00 0. -1.
         11    1    3    3    0    0  0.74011812231E+00 -0.76257655110E+00  0.14619969986E+01  0.18074106662E+01  0.51100000000E-03 0. -1.
        -11    1    3    3    0    0  0.13151786082E+01  0.13277226945E+02  0.16124909627E+02  0.20929098425E+02  0.51100000000E-03 0.  1.
         12    1    3    3    0    0  0.42293523404E+01  0.13521611361E+02  0.18630902269E+02  0.23405809415E+02  0.00000000000E+00 0. -1.
</event>
<event>
 7    1  0.1503436E-008  0.4614232E+02  0.7816164E-02  0.1320468E+00
        -11   -1    0    0    0    0  0.00000000000E+00  0.00000000000E+00  0.45593999997E+02  0.45594000000E+02  0.51100000000E-03 0. -1.
         11   -1    0    0    0    0 -0.00000000000E+00 -0.00000000000E+00 -0.45593999997E+02  0.45594000000E+02  0.51100000000E-03 0.  1.
    9900012    2    1    2    0    0 -0.37593570825E+02 -0.99094091052E+01  0.22751717208E+02  0.46142316610E+02  0.99999894992E+01 0.  0.
         12    1    1    2    0    0  0.37593570825E+02  0.99094091052E+01 -0.22751717208E+02  0.45045683390E+02  0.00000000000E+00 0. -1.
         11    1    3    3    0    0  0.46781591211E+00 -0.46503751556E+00  0.59659673228E+00  0.88940403675E+00  0.51100000000E-03 0. -1.
        -11    1    3    3    0    0 -0.10484467702E+02 -0.38428188220E+01  0.81215807286E+01  0.13807657052E+02  0.51100000000E-03 0.  1.
        -12    1    3    3    0    0 -0.27576919036E+02 -0.56015527676E+01  0.14033539747E+02  0.31445255520E+02  0.00000000000E+00 0.  1.
</event>
<event>
 7    1  0.1503436E-008  0.4614232E+02  0.7816164E-02  0.1320468E+00
        -11   -1    0    0    0    0  0.00000000000E+00  0.00000000000E+00  0.45593999997E+02  0.45594000000E+02  0.51100000000E-03 0.  1.
         11   -1    0    0    0    0 -0.00000000000E+00 -0.00000000000E+00 -0.45593999997E+02  0.45594000000E+02  0.51100000000E-03 0. -1.
    9900012    2    1    2    0    0 -0.26679708151E+02 -0.26686135749E+02  0.24599933716E+02  0.46142318663E+02  0.10000008228E+02 0.  0.
         12    1    1    2    0    0  0.26679708151E+02  0.26686135749E+02 -0.24599933716E+02  0.45045681337E+02  0.00000000000E+00 0. -1.
         11    1    3    3    0    0  0.27607042868E+00 -0.79016849251E+00  0.18377715471E+01  0.20194022999E+01  0.51100000000E-03 0. -1.
        -11    1    3    3    0    0 -0.22237272486E+02 -0.22133172470E+02  0.16591463003E+02  0.35491551897E+02  0.51100000000E-03 0.  1.
        -12    1    3    3    0    0 -0.47185060936E+01 -0.37627947867E+01  0.61706991662E+01  0.86313644670E+01  0.00000000000E+00 0.  1.
</event>
<event>
 7    1  0.1503436E-008  0.4614232E+02  0.7816164E-02  0.1320468E+00
        -11   -1    0    0    0    0  0.00000000000E+00  0.00000000000E+00  0.45593999997E+02  0.45594000000E+02  0.51100000000E-03 0. -1.
         11   -1    0    0    0    0 -0.00000000000E+00 -0.00000000000E+00 -0.45593999997E+02  0.45594000000E+02  0.51100000000E-03 0.  1.
    9900012    2    1    2    0    0  0.21479525569E+02 -0.22349270695E+02 -0.32684151987E+02  0.46142315296E+02  0.99999775255E+01 0.  0.
         12    1    1    2    0    0 -0.21479525569E+02  0.22349270695E+02  0.32684151987E+02  0.45045684704E+02  0.00000000000E+00 0. -1.
         11    1    3    3    0    0  0.26927538954E+01 -0.60597887983E+01 -0.72524044831E+01  0.98269697704E+01  0.51100000000E-03 0.  1.
        -11    1    3    3    0    0  0.10969488137E+02 -0.62557066364E+01 -0.16478708050E+02  0.20760812961E+02  0.51100000000E-03 0. -1.
         12    1    3    3    0    0  0.78172835363E+01 -0.10033775261E+02 -0.89530394538E+01  0.15554532565E+02  0.00000000000E+00 0. -1.
</event>
<event>
 7    1  0.1503436E-008  0.4614232E+02  0.7816164E-02  0.1320468E+00
        -11   -1    0    0    0    0  0.00000000000E+00  0.00000000000E+00  0.45593999997E+02  0.45594000000E+02  0.51100000000E-03 0.  1.
         11   -1    0    0    0    0 -0.00000000000E+00 -0.00000000000E+00 -0.45593999997E+02  0.45594000000E+02  0.51100000000E-03 0. -1.
    9900012    2    1    2    0    0 -0.11277901786E+02  0.31345752058E+02  0.30321050376E+02  0.46142319445E+02  0.10000015352E+02 0.  0.
         12    1    1    2    0    0  0.11277901786E+02 -0.31345752058E+02 -0.30321050376E+02  0.45045680555E+02  0.00000000000E+00 0. -1.
         11    1    3    3    0    0 -0.19350949326E+01 -0.34518991854E-01  0.22468270542E+01  0.29654706256E+01  0.51100000000E-03 0. -1.
        -11    1    3    3    0    0 -0.65105502340E+01  0.24621941992E+02  0.21408931522E+02  0.33271153285E+02  0.51100000000E-03 0.  1.
         12    1    3    3    0    0 -0.28322566194E+01  0.67583290580E+01  0.66652918008E+01  0.99056955336E+01  0.00000000000E+00 0. -1.
</event>
<event>
 7    1  0.1503436E-008  0.4614232E+02  0.7816164E-02  0.1320468E+00
        -11   -1    0    0    0    0  0.00000000000E+00  0.00000000000E+00  0.45593999997E+02  0.45594000000E+02  0.51100000000E-03 0.  1.
         11   -1    0    0    0    0 -0.00000000000E+00 -0.00000000000E+00 -0.45593999997E+02  0.45594000000E+02  0.51100000000E-03 0. -1.
    9900012    2    1    2    0    0 -0.34384652376E+02  0.16774068250E+02  0.23778977240E+02  0.46142318262E+02  0.10000004567E+02 0.  0.
         12    1    1    2    0    0  0.34384652376E+02 -0.16774068250E+02 -0.23778977240E+02  0.45045681738E+02  0.00000000000E+00 0. -1.
         11    1    3    3    0    0  0.31925609602E+00 -0.17445396301E+00  0.69294899574E+00  0.78264756555E+00  0.51100000000E-03 0. -1.
        -11    1    3    3    0    0 -0.77417383465E+01  0.63859331612E+01  0.49302254619E+01  0.11181313802E+02  0.51100000000E-03 0.  1.
         12    1    3    3    0    0 -0.26962170125E+02  0.10562589052E+02  0.18155802782E+02  0.34178356895E+02  0.00000000000E+00 0. -1.
</event>
<event>
 7    1  0.1503436E-008  0.4614232E+02  0.7816164E-02  0.1320468E+00
        -11   -1    0    0    0    0  0.00000000000E+00  0.00000000000E+00  0.45593999997E+02  0.45594000000E+02  0.51100000000E-03 0.  1.
         11   -1    0    0    0    0 -0.00000000000E+00 -0.00000000000E+00 -0.45593999997E+02  0.45594000000E+02  0.51100000000E-03 0. -1.
    9900012    2    1    2    0    0  0.24231168246E+02 -0.36865381950E+02 -0.91053693198E+01  0.46142315952E+02  0.99999835043E+01 0.  0.
         12    1    1    2    0    0 -0.24231168246E+02  0.36865381950E+02  0.91053693198E+01  0.45045684048E+02  0.00000000000E+00 0. -1.
         11    1    3    3    0    0  0.68924327093E+01 -0.51405706232E+01 -0.92419689268E-01  0.85988160025E+01  0.51100000000E-03 0.  1.
        -11    1    3    3    0    0  0.99301942282E+01 -0.13489891243E+02 -0.36551927840E+01  0.17144863887E+02  0.51100000000E-03 0. -1.
         12    1    3    3    0    0  0.74085413082E+01 -0.18234920084E+02 -0.53577568465E+01  0.20398636062E+02  0.00000000000E+00 0. -1.
</event>
<event>
 7    1  0.1503436E-008  0.4614232E+02  0.7816164E-02  0.1320468E+00
        -11   -1    0    0    0    0  0.00000000000E+00  0.00000000000E+00  0.45593999997E+02  0.45594000000E+02  0.51100000000E-03 0. -1.
         11   -1    0    0    0    0 -0.00000000000E+00 -0.00000000000E+00 -0.45593999997E+02  0.45594000000E+02  0.51100000000E-03 0.  1.
    9900012    2    1    2    0    0 -0.21604658000E+02 -0.31494480676E+02 -0.23884094909E+02  0.46142317078E+02  0.99999937667E+01 0.  0.
         12    1    1    2    0    0  0.21604658000E+02  0.31494480676E+02  0.23884094909E+02  0.45045682922E+02  0.00000000000E+00 0. -1.
         11    1    3    3    0    0 -0.88098885864E+01 -0.12203698988E+02 -0.13239804357E+02  0.20045868043E+02  0.51100000000E-03 0. -1.
        -11    1    3    3    0    0 -0.26093689744E+01 -0.77375285222E+01 -0.55526102130E+01  0.98746966796E+01  0.51100000000E-03 0.  1.
        -12    1    3    3    0    0 -0.10185400439E+02 -0.11553253165E+02 -0.50916803388E+01  0.16221752355E+02  0.00000000000E+00 0.  1.
</event>
<event>
 7    1  0.1503436E-008  0.4614231E+02  0.7816164E-02  0.1320468E+00
        -11   -1    0    0    0    0  0.00000000000E+00  0.00000000000E+00  0.45593999997E+02  0.45594000000E+02  0.51100000000E-03 0.  1.
         11   -1    0    0    0    0 -0.00000000000E+00 -0.00000000000E+00 -0.45593999997E+02  0.45594000000E+02  0.51100000000E-03 0. -1.
    9900012    2    1    2    0    0  0.39320432169E+02 -0.15187116789E+02  0.15886137307E+02  0.46142309187E+02  0.99999218134E+01 0.  0.
         12    1    1    2    0    0 -0.39320432169E+02  0.15187116789E+02 -0.15886137307E+02  0.45045690813E+02  0.00000000000E+00 0. -1.
         11    1    3    3    0    0  0.46238917820E+01 -0.42913650065E+01  0.38974273555E+01  0.74152632511E+01  0.51100000000E-03 0. -1.
        -11    1    3    3    0    0  0.18488713388E+02 -0.30427311233E+01  0.48600691212E+01  0.19357453540E+02  0.51100000000E-03 0.  1.
        -12    1    3    3    0    0  0.16207826999E+02 -0.78530206589E+01  0.71286408305E+01  0.19369592396E+02  0.00000000000E+00 0.  1.
</event>
<event>
 7    1  0.1503436E-008  0.4614232E+02  0.7816164E-02  0.1320468E+00
        -11   -1    0    0    0    0  0.00000000000E+00  0.00000000000E+00  0.45593999997E+02  0.45594000000E+02  0.51100000000E-03 0. -1.
         11   -1    0    0    0    0 -0.00000000000E+00 -0.00000000000E+00 -0.45593999997E+02  0.45594000000E+02  0.51100000000E-03 0.  1.
    9900012    2    1    2    0    0  0.26926390610E+02  0.31459210512E+02  0.17731356928E+02  0.46142318123E+02  0.10000003297E+02 0.  0.
         12    1    1    2    0    0 -0.26926390610E+02 -0.31459210512E+02 -0.17731356928E+02  0.45045681877E+02  0.00000000000E+00 0. -1.
         11    1    3    3    0    0  0.16477673305E+02  0.25379646749E+02  0.14099214977E+02  0.33383050338E+02  0.51100000000E-03 0.  1.
        -11    1    3    3    0    0  0.93015938489E+01  0.50159549890E+01  0.36908443161E+01  0.11193827969E+02  0.51100000000E-03 0. -1.
        -12    1    3    3    0    0  0.11471234558E+01  0.10636087744E+01 -0.58702365521E-01  0.15654398154E+01  0.00000000000E+00 0.  1.
</event>
<event>
 7    1  0.1503436E-008  0.4614232E+02  0.7816164E-02  0.1320468E+00
        -11   -1    0    0    0    0  0.00000000000E+00  0.00000000000E+00  0.45593999997E+02  0.45594000000E+02  0.51100000000E-03 0.  1.
         11   -1    0    0    0    0 -0.00000000000E+00 -0.00000000000E+00 -0.45593999997E+02  0.45594000000E+02  0.51100000000E-03 0. -1.
    9900012    2    1    2    0    0  0.26540067865E+02 -0.26491756527E+02  0.24958459037E+02  0.46142322698E+02  0.10000045015E+02 0.  0.
         12    1    1    2    0    0 -0.26540067865E+02  0.26491756527E+02 -0.24958459037E+02  0.45045677302E+02  0.00000000000E+00 0. -1.
         11    1    3    3    0    0  0.80021946984E+01 -0.10529907193E+02  0.40541729976E+01  0.13832945617E+02  0.51100000000E-03 0. -1.
        -11    1    3    3    0    0  0.74551776119E+01 -0.51269322038E+01  0.64048840143E+01  0.11085470064E+02  0.51100000000E-03 0.  1.
         12    1    3    3    0    0  0.11082695555E+02 -0.10834917130E+02  0.14499402025E+02  0.21223907017E+02  0.00000000000E+00 0. -1.
</event>
<event>
 7    1  0.1503436E-008  0.4614232E+02  0.7816164E-02  0.1320468E+00
        -11   -1    0    0    0    0  0.00000000000E+00  0.00000000000E+00  0.45593999997E+02  0.45594000000E+02  0.51100000000E-03 0.  1.
         11   -1    0    0    0    0 -0.00000000000E+00 -0.00000000000E+00 -0.45593999997E+02  0.45594000000E+02  0.51100000000E-03 0. -1.
    9900012    2    1    2    0    0 -0.10790532211E+02 -0.23125594070E+02  0.37119872591E+02  0.46142316215E+02  0.99999859020E+01 0.  0.
         12    1    1    2    0    0  0.10790532211E+02  0.23125594070E+02 -0.37119872591E+02  0.45045683785E+02  0.00000000000E+00 0. -1.
         11    1    3    3    0    0 -0.36528523202E+01 -0.33758941176E+01  0.24650499471E+01  0.55512577556E+01  0.51100000000E-03 0. -1.
        -11    1    3    3    0    0 -0.47377026786E+01 -0.11807771269E+02  0.23006747531E+02  0.26290297093E+02  0.51100000000E-03 0.  1.
         12    1    3    3    0    0 -0.23999772123E+01 -0.79419286842E+01  0.11648075113E+02  0.14300761367E+02  0.00000000000E+00 0. -1.
</event>
<event>
 7    1  0.1503436E-008  0.4614232E+02  0.7816164E-02  0.1320468E+00
        -11   -1    0    0    0    0  0.00000000000E+00  0.00000000000E+00  0.45593999997E+02  0.45594000000E+02  0.51100000000E-03 0.  1.
         11   -1    0    0    0    0 -0.00000000000E+00 -0.00000000000E+00 -0.45593999997E+02  0.45594000000E+02  0.51100000000E-03 0. -1.
    9900012    2    1    2    0    0 -0.31759494849E+01 -0.14446426538E+02  0.42547943574E+02  0.46142318773E+02  0.10000009224E+02 0.  0.
         12    1    1    2    0    0  0.31759494849E+01  0.14446426538E+02 -0.42547943574E+02  0.45045681227E+02  0.00000000000E+00 0. -1.
         11    1    3    3    0    0 -0.17756271268E-01 -0.73669772751E+01  0.30367055722E+02  0.31247891816E+02  0.51100000000E-03 0.  1.
        -11    1    3    3    0    0 -0.19990213609E+01 -0.26725693186E+01  0.81642884597E+01  0.88201088133E+01  0.51100000000E-03 0. -1.
         12    1    3    3    0    0 -0.11591718527E+01 -0.44068799448E+01  0.40165993927E+01  0.60743181439E+01  0.00000000000E+00 0. -1.
</event>
<event>
 7    1  0.1503436E-008  0.4614232E+02  0.7816164E-02  0.1320468E+00
        -11   -1    0    0    0    0  0.00000000000E+00  0.00000000000E+00  0.45593999997E+02  0.45594000000E+02  0.51100000000E-03 0.  1.
         11   -1    0    0    0    0 -0.00000000000E+00 -0.00000000000E+00 -0.45593999997E+02  0.45594000000E+02  0.51100000000E-03 0. -1.
    9900012    2    1    2    0    0  0.35509133343E+02 -0.11251310284E+02  0.25330279780E+02  0.46142316437E+02  0.99999879293E+01 0.  0.
         12    1    1    2    0    0 -0.35509133343E+02  0.11251310284E+02 -0.25330279780E+02  0.45045683563E+02  0.00000000000E+00 0. -1.
         11    1    3    3    0    0  0.50580375032E+01 -0.97877335632E+00  0.64246298741E+01  0.82351448043E+01  0.51100000000E-03 0.  1.
        -11    1    3    3    0    0  0.21430541869E+02 -0.55282620720E+01  0.15997145298E+02  0.27308212397E+02  0.51100000000E-03 0. -1.
         12    1    3    3    0    0  0.90205539706E+01 -0.47442748557E+01  0.29085046078E+01  0.10598959237E+02  0.00000000000E+00 0. -1.
</event>
<event>
 7    1  0.1503436E-008  0.4614232E+02  0.7816164E-02  0.1320468E+00
        -11   -1    0    0    0    0  0.00000000000E+00  0.00000000000E+00  0.45593999997E+02  0.45594000000E+02  0.51100000000E-03 0. -1.
         11   -1    0    0    0    0 -0.00000000000E+00 -0.00000000000E+00 -0.45593999997E+02  0.45594000000E+02  0.51100000000E-03 0.  1.
    9900012    2    1    2    0    0  0.44946401465E+02 -0.24121266345E+01 -0.17652438623E+01  0.46142318237E+02  0.10000004342E+02 0.  0.
         12    1    1    2    0    0 -0.44946401465E+02  0.24121266345E+01  0.17652438623E+01  0.45045681763E+02  0.00000000000E+00 0. -1.
         11    1    3    3    0    0  0.14581092794E+02  0.14194388811E+01 -0.41769900670E+01  0.15233854406E+02  0.51100000000E-03 0. -1.
        -11    1    3    3    0    0  0.11448703502E+02 -0.10143975751E+01  0.25928000418E+01  0.11782377800E+02  0.51100000000E-03 0.  1.
         12    1    3    3    0    0  0.18916605170E+02 -0.28171679405E+01 -0.18105383709E+00  0.19126086031E+02  0.00000000000E+00 0. -1.
</event>
<event>
 7    1  0.1503436E-008  0.4614232E+02  0.7816164E-02  0.1320468E+00
        -11   -1    0    0    0    0  0.00000000000E+00  0.00000000000E+00  0.45593999997E+02  0.45594000000E+02  0.51100000000E-03 0.  1.
         11   -1    0    0    0    0 -0.00000000000E+00 -0.00000000000E+00 -0.45593999997E+02  0.45594000000E+02  0.51100000000E-03 0. -1.
    9900012    2    1    2    0    0 -0.21398471066E+02  0.10053445777E+02  0.38342498950E+02  0.46142316947E+02  0.99999925767E+01 0.  0.
         12    1    1    2    0    0  0.21398471066E+02 -0.10053445777E+02 -0.38342498950E+02  0.45045683053E+02  0.00000000000E+00 0. -1.
         11    1    3    3    0    0 -0.47778363277E+01  0.61382366743E+01  0.92545252970E+01  0.12089330345E+02  0.51100000000E-03 0. -1.
        -11    1    3    3    0    0 -0.74609736259E+01 -0.56513584231E+00  0.13242293494E+02  0.15209991559E+02  0.51100000000E-03 0.  1.
        -12    1    3    3    0    0 -0.91596611124E+01  0.44803449446E+01  0.15845680159E+02  0.18842995044E+02  0.00000000000E+00 0.  1.
</event>
<event>
 7    1  0.1503436E-008  0.4614232E+02  0.7816164E-02  0.1320468E+00
        -11   -1    0    0    0    0  0.00000000000E+00  0.00000000000E+00  0.45593999997E+02  0.45594000000E+02  0.51100000000E-03 0.  1.
         11   -1    0    0    0    0 -0.00000000000E+00 -0.00000000000E+00 -0.45593999997E+02  0.45594000000E+02  0.51100000000E-03 0. -1.
    9900012    2    1    2    0    0 -0.37504309724E+02  0.23803246431E+02  0.74796826549E+01  0.46142318285E+02  0.10000004782E+02 0.  0.
         12    1    1    2    0    0  0.37504309724E+02 -0.23803246431E+02 -0.74796826549E+01  0.45045681715E+02  0.00000000000E+00 0. -1.
         11    1    3    3    0    0 -0.39953151963E+01  0.30850189687E+01  0.41734506704E+01  0.65496241353E+01  0.51100000000E-03 0. -1.
        -11    1    3    3    0    0 -0.85444031867E+01  0.42107624243E+01  0.76209696153E+00  0.95560524303E+01  0.51100000000E-03 0.  1.
         12    1    3    3    0    0 -0.24964591341E+02  0.16507465038E+02  0.25441350230E+01  0.30036641720E+02  0.00000000000E+00 0. -1.
</event>
<event>
 7    1  0.1503436E-008  0.4614232E+02  0.7816164E-02  0.1320468E+00
        -11   -1    0    0    0    0  0.00000000000E+00  0.00000000000E+00  0.45593999997E+02  0.45594000000E+02  0.51100000000E-03 0.  1.
         11   -1    0    0    0    0 -0.00000000000E+00 -0.00000000000E+00 -0.45593999997E+02  0.45594000000E+02  0.51100000000E-03 0. -1.
    9900012    2    1    2    0    0  0.12644731652E+02  0.39346512265E+02  0.17918598750E+02  0.46142318219E+02  0.10000004176E+02 0.  0.
         12    1    1    2    0    0 -0.12644731652E+02 -0.39346512265E+02 -0.17918598750E+02  0.45045681781E+02  0.00000000000E+00 0. -1.
         11    1    3    3    0    0  0.74789714794E+01  0.20181554437E+02  0.50717405491E+01  0.22112275015E+02  0.51100000000E-03 0. -1.
        -11    1    3    3    0    0  0.54926112337E+01  0.17280543588E+02  0.10328506726E+02  0.20867774590E+02  0.51100000000E-03 0.  1.
         12    1    3    3    0    0 -0.32685106072E+00  0.18844142395E+01  0.25183514741E+01  0.31622686143E+01  0.00000000000E+00 0. -1.
</event>
<event>
 7    1  0.1503436E-008  0.4614232E+02  0.7816164E-02  0.1320468E+00
        -11   -1    0    0    0    0  0.00000000000E+00  0.00000000000E+00  0.45593999997E+02  0.45594000000E+02  0.51100000000E-03 0.  1.
         11   -1    0    0    0    0 -0.00000000000E+00 -0.00000000000E+00 -0.45593999997E+02  0.45594000000E+02  0.51100000000E-03 0. -1.
    9900012    2    1    2    0    0 -0.32270746007E+02  0.68500755824E+01  0.30672279992E+02  0.46142319372E+02  0.10000014689E+02 0.  0.
         12    1    1    2    0    0  0.32270746007E+02 -0.68500755824E+01 -0.30672279992E+02  0.45045680628E+02  0.00000000000E+00 0. -1.
         11    1    3    3    0    0 -0.24911223703E+01  0.35884952770E+01  0.38965053787E+01  0.58536948540E+01  0.51100000000E-03 0. -1.
        -11    1    3    3    0    0 -0.18004513915E+02  0.56522801022E+00  0.15506468171E+02  0.23768309982E+02  0.51100000000E-03 0.  1.
         12    1    3    3    0    0 -0.11775109721E+02  0.26963522951E+01  0.11269306443E+02  0.16520314536E+02  0.00000000000E+00 0. -1.
</event>
<event>
 7    1  0.1503436E-008  0.4614232E+02  0.7816164E-02  0.1320468E+00
        -11   -1    0    0    0    0  0.00000000000E+00  0.00000000000E+00  0.45593999997E+02  0.45594000000E+02  0.51100000000E-03 0.  1.
         11   -1    0    0    0    0 -0.00000000000E+00 -0.00000000000E+00 -0.45593999997E+02  0.45594000000E+02  0.51100000000E-03 0. -1.
    9900012    2    1    2    0    0  0.32328688923E+02  0.22176808425E+02  0.22184640026E+02  0.46142320824E+02  0.10000027926E+02 0.  0.
         12    1    1    2    0    0 -0.32328688923E+02 -0.22176808425E+02 -0.22184640026E+02  0.45045679176E+02  0.00000000000E+00 0. -1.
         11    1    3    3    0    0  0.10260817058E+02  0.54899508874E+01  0.35552889364E+01  0.12168155453E+02  0.51100000000E-03 0. -1.
        -11    1    3    3    0    0  0.95760806648E+01  0.46183487040E+01  0.43434626369E+01  0.11484604198E+02  0.51100000000E-03 0.  1.
         12    1    3    3    0    0  0.12491791200E+02  0.12068508834E+02  0.14285888452E+02  0.22489561172E+02  0.00000000000E+00 0. -1.
</event>
<event>
 7    1  0.1503436E-008  0.4614232E+02  0.7816164E-02  0.1320468E+00
        -11   -1    0    0    0    0  0.00000000000E+00  0.00000000000E+00  0.45593999997E+02  0.45594000000E+02  0.51100000000E-03 0.  1.
         11   -1    0    0    0    0 -0.00000000000E+00 -0.00000000000E+00 -0.45593999997E+02  0.45594000000E+02  0.51100000000E-03 0. -1.
    9900012    2    1    2    0    0 -0.21946403149E+02  0.33815615615E+02  0.20099079042E+02  0.46142318199E+02  0.10000003995E+02 0.  0.
         12    1    1    2    0    0  0.21946403149E+02 -0.33815615615E+02 -0.20099079042E+02  0.45045681801E+02  0.00000000000E+00 0. -1.
         11    1    3    3    0    0 -0.30455452647E+01  0.94968401638E+01  0.45394210789E+01  0.10957721618E+02  0.51100000000E-03 0. -1.
        -11    1    3    3    0    0 -0.12289304321E+02  0.17347678441E+02  0.13989319801E+02  0.25449361814E+02  0.51100000000E-03 0.  1.
         12    1    3    3    0    0 -0.66115535627E+01  0.69710970099E+01  0.15703381620E+01  0.97352347674E+01  0.00000000000E+00 0. -1.
</event>
<event>
 7    1  0.1503436E-008  0.4614232E+02  0.7816164E-02  0.1320468E+00
        -11   -1    0    0    0    0  0.00000000000E+00  0.00000000000E+00  0.45593999997E+02  0.45594000000E+02  0.51100000000E-03 0.  1.
         11   -1    0    0    0    0 -0.00000000000E+00 -0.00000000000E+00 -0.45593999997E+02  0.45594000000E+02  0.51100000000E-03 0. -1.
    9900012    2    1    2    0    0  0.34143062825E+02  0.23110047065E+02  0.18146361653E+02  0.46142318124E+02  0.10000003311E+02 0.  0.
         12    1    1    2    0    0 -0.34143062825E+02 -0.23110047065E+02 -0.18146361653E+02  0.45045681876E+02  0.00000000000E+00 0. -1.
         11    1    3    3    0    0  0.75525982865E+01  0.10345834848E+01  0.51221546596E+01  0.91841478909E+01  0.51100000000E-03 0. -1.
        -11    1    3    3    0    0  0.10777996214E+02  0.98298143133E+01  0.54415375729E+01  0.15569225519E+02  0.51100000000E-03 0.  1.
         12    1    3    3    0    0  0.15812468324E+02  0.12245649267E+02  0.75826694203E+01  0.21388944715E+02  0.00000000000E+00 0. -1.
</event>
<event>
 7    1  0.1503436E-008  0.4614232E+02  0.7816164E-02  0.1320468E+00
        -11   -1    0    0    0    0  0.00000000000E+00  0.00000000000E+00  0.45593999997E+02  0.45594000000E+02  0.51100000000E-03 0. -1.
         11   -1    0    0    0    0 -0.00000000000E+00 -0.00000000000E+00 -0.45593999997E+02  0.45594000000E+02  0.51100000000E-03 0.  1.
    9900012    2    1    2    0    0  0.48425108774E+01 -0.36994873475E+02 -0.25239709772E+02  0.46142317361E+02  0.99999963505E+01 0.  0.
         12    1    1    2    0    0 -0.48425108774E+01  0.36994873475E+02  0.25239709772E+02  0.45045682639E+02  0.00000000000E+00 0. -1.
         11    1    3    3    0    0  0.49689139780E+01 -0.26377696869E+02 -0.19234732478E+02  0.33021931076E+02  0.51100000000E-03 0.  1.
        -11    1    3    3    0    0 -0.77508384771E-01 -0.13675538997E+01  0.84586142696E+00  0.16098736078E+01  0.51100000000E-03 0. -1.
         12    1    3    3    0    0 -0.48894715837E-01 -0.92496227062E+01 -0.68508387213E+01  0.11510512677E+02  0.00000000000E+00 0. -1.
</event>
<event>
 7    1  0.1503436E-008  0.4614232E+02  0.7816164E-02  0.1320468E+00
        -11   -1    0    0    0    0  0.00000000000E+00  0.00000000000E+00  0.45593999997E+02  0.45594000000E+02  0.51100000000E-03 0. -1.
         11   -1    0    0    0    0 -0.00000000000E+00 -0.00000000000E+00 -0.45593999997E+02  0.45594000000E+02  0.51100000000E-03 0.  1.
    9900012    2    1    2    0    0  0.79862853737E+01  0.15053909024E+02 -0.41697871201E+02  0.46142318812E+02  0.10000009583E+02 0.  0.
         12    1    1    2    0    0 -0.79862853737E+01 -0.15053909024E+02  0.41697871201E+02  0.45045681188E+02  0.00000000000E+00 0. -1.
         11    1    3    3    0    0  0.70496632882E+01  0.73446692465E+01 -0.27753898789E+02  0.29562151766E+02  0.51100000000E-03 0. -1.
        -11    1    3    3    0    0 -0.84269050505E+00  0.66965950406E+01 -0.11938311099E+02  0.13714145419E+02  0.51100000000E-03 0.  1.
         12    1    3    3    0    0  0.17793125906E+01  0.10126447365E+01 -0.20056613133E+01  0.28660216260E+01  0.00000000000E+00 0. -1.
</event>
<event>
 7    1  0.1503436E-008  0.4614232E+02  0.7816164E-02  0.1320468E+00
        -11   -1    0    0    0    0  0.00000000000E+00  0.00000000000E+00  0.45593999997E+02  0.45594000000E+02  0.51100000000E-03 0. -1.
         11   -1    0    0    0    0 -0.00000000000E+00 -0.00000000000E+00 -0.45593999997E+02  0.45594000000E+02  0.51100000000E-03 0.  1.
    9900012    2    1    2    0    0 -0.16734065150E+02 -0.94367516647E+01 -0.40743494875E+02  0.46142316599E+02  0.99999894024E+01 0.  0.
         12    1    1    2    0    0  0.16734065150E+02  0.94367516647E+01  0.40743494875E+02  0.45045683401E+02  0.00000000000E+00 0. -1.
         11    1    3    3    0    0 -0.66272656539E+01 -0.14436332157E+00 -0.76959603219E+01  0.10157228773E+02  0.51100000000E-03 0. -1.
        -11    1    3    3    0    0 -0.41584487463E+00 -0.17652895856E+01 -0.63252177278E+01  0.65800876777E+01  0.51100000000E-03 0.  1.
         12    1    3    3    0    0 -0.96909546217E+01 -0.75270987575E+01 -0.26722316825E+02  0.29405000148E+02  0.00000000000E+00 0. -1.
</event>
<event>
 7    1  0.1503436E-008  0.4614232E+02  0.7816164E-02  0.1320468E+00
        -11   -1    0    0    0    0  0.00000000000E+00  0.00000000000E+00  0.45593999997E+02  0.45594000000E+02  0.51100000000E-03 0. -1.
         11   -1    0    0    0    0 -0.00000000000E+00 -0.00000000000E+00 -0.45593999997E+02  0.45594000000E+02  0.51100000000E-03 0.  1.
    9900012    2    1    2    0    0 -0.12642919795E+01 -0.41075079493E+02 -0.18448648905E+02  0.46142320562E+02  0.10000025545E+02 0.  0.
         12    1    1    2    0    0  0.12642919795E+01  0.41075079493E+02  0.18448648905E+02  0.45045679438E+02  0.00000000000E+00 0. -1.
         11    1    3    3    0    0 -0.91718024735E+00 -0.69187855940E+01  0.34189554148E+00  0.69876824860E+01  0.51100000000E-03 0. -1.
        -11    1    3    3    0    0 -0.10074997964E+01 -0.26505413557E+02 -0.16041469852E+02  0.30998076697E+02  0.51100000000E-03 0.  1.
         12    1    3    3    0    0  0.66038806426E+00 -0.76508803426E+01 -0.27490745940E+01  0.81565613794E+01  0.00000000000E+00 0. -1.
</event>
<event>
 7    1  0.1503436E-008  0.4614232E+02  0.7816164E-02  0.1320468E+00
        -11   -1    0    0    0    0  0.00000000000E+00  0.00000000000E+00  0.45593999997E+02  0.45594000000E+02  0.51100000000E-03 0. -1.
         11   -1    0    0    0    0 -0.00000000000E+00 -0.00000000000E+00 -0.45593999997E+02  0.45594000000E+02  0.51100000000E-03 0.  1.
    9900012    2    1    2    0    0 -0.33171818246E+02 -0.15177831817E+02 -0.26426830188E+02  0.46142318096E+02  0.10000003057E+02 0.  0.
         12    1    1    2    0    0  0.33171818246E+02  0.15177831817E+02  0.26426830188E+02  0.45045681904E+02  0.00000000000E+00 0. -1.
         11    1    3    3    0    0 -0.12754010581E+02 -0.10195166554E+02 -0.10221379651E+02  0.19263509784E+02  0.51100000000E-03 0. -1.
        -11    1    3    3    0    0 -0.10418947425E+02 -0.40758957589E+01 -0.10434184825E+02  0.15298353013E+02  0.51100000000E-03 0.  1.
         12    1    3    3    0    0 -0.99988602403E+01 -0.90676950434E+00 -0.57712657118E+01  0.11580455300E+02  0.00000000000E+00 0. -1.
</event>
<event>
 7    1  0.1503436E-008  0.4614232E+02  0.7816164E-02  0.1320468E+00
        -11   -1    0    0    0    0  0.00000000000E+00  0.00000000000E+00  0.45593999997E+02  0.45594000000E+02  0.51100000000E-03 0.  1.
         11   -1    0    0    0    0 -0.00000000000E+00 -0.00000000000E+00 -0.45593999997E+02  0.45594000000E+02  0.51100000000E-03 0. -1.
    9900012    2    1    2    0    0  0.23906314764E+02  0.15855730510E+02  0.34730352620E+02  0.46142317979E+02  0.10000001987E+02 0.  0.
         12    1    1    2    0    0 -0.23906314764E+02 -0.15855730510E+02 -0.34730352620E+02  0.45045682021E+02  0.00000000000E+00 0. -1.
         11    1    3    3    0    0  0.48613073056E+01  0.75661259592E+01  0.14411105238E+02  0.16987010484E+02  0.51100000000E-03 0. -1.
        -11    1    3    3    0    0  0.13139679753E+02  0.69019089150E+01  0.14382200083E+02  0.20667249700E+02  0.51100000000E-03 0.  1.
         12    1    3    3    0    0  0.59053277055E+01  0.13876956356E+01  0.59370472995E+01  0.84880577945E+01  0.00000000000E+00 0. -1.
</event>
<event>
 7    1  0.1503436E-008  0.4614232E+02  0.7816164E-02  0.1320468E+00
        -11   -1    0    0    0    0  0.00000000000E+00  0.00000000000E+00  0.45593999997E+02  0.45594000000E+02  0.51100000000E-03 0.  1.
         11   -1    0    0    0    0 -0.00000000000E+00 -0.00000000000E+00 -0.45593999997E+02  0.45594000000E+02  0.51100000000E-03 0. -1.
    9900012    2    1    2    0    0 -0.77628397978E+01 -0.41204967940E+01  0.44180010052E+02  0.46142318035E+02  0.10000002493E+02 0.  0.
         12    1    1    2    0    0  0.77628397978E+01  0.41204967940E+01 -0.44180010052E+02  0.45045681965E+02  0.00000000000E+00 0. -1.
         11    1    3    3    0    0  0.29886922322E-01 -0.15215554008E+01  0.85305751313E+00  0.17446293152E+01  0.51100000000E-03 0. -1.
        -11    1    3    3    0    0 -0.19516961385E+01  0.15413076399E+01  0.13145327394E+02  0.13378504386E+02  0.51100000000E-03 0.  1.
         12    1    3    3    0    0 -0.58410305816E+01 -0.41402490332E+01  0.30181625145E+02  0.31019184333E+02  0.00000000000E+00 0. -1.
</event>
<event>
 7    1  0.1503436E-008  0.4614232E+02  0.7816164E-02  0.1320468E+00
        -11   -1    0    0    0    0  0.00000000000E+00  0.00000000000E+00  0.45593999997E+02  0.45594000000E+02  0.51100000000E-03 0.  1.
         11   -1    0    0    0    0 -0.00000000000E+00 -0.00000000000E+00 -0.45593999997E+02  0.45594000000E+02  0.51100000000E-03 0. -1.
    9900012    2    1    2    0    0 -0.32299366159E+02 -0.93303312542E+01  0.29980152744E+02  0.46142315477E+02  0.99999791717E+01 0.  0.
         12    1    1    2    0    0  0.32299366159E+02  0.93303312542E+01 -0.29980152744E+02  0.45045684523E+02  0.00000000000E+00 0. -1.
         11    1    3    3    0    0 -0.15948984610E+02 -0.22537395482E+01  0.14913898467E+02  0.21951624537E+02  0.51100000000E-03 0. -1.
        -11    1    3    3    0    0 -0.12934179210E+02 -0.33456669468E+01  0.82482221407E+01  0.15700944172E+02  0.51100000000E-03 0.  1.
         12    1    3    3    0    0 -0.34162023389E+01 -0.37309247593E+01  0.68180321357E+01  0.84897467679E+01  0.00000000000E+00 0. -1.
</event>
<event>
 7    1  0.1503436E-008  0.4614232E+02  0.7816164E-02  0.1320468E+00
        -11   -1    0    0    0    0  0.00000000000E+00  0.00000000000E+00  0.45593999997E+02  0.45594000000E+02  0.51100000000E-03 0.  1.
         11   -1    0    0    0    0 -0.00000000000E+00 -0.00000000000E+00 -0.45593999997E+02  0.45594000000E+02  0.51100000000E-03 0. -1.
    9900012    2    1    2    0    0 -0.66669217017E+01 -0.27587317968E+02  0.34980074356E+02  0.46142316970E+02  0.99999927889E+01 0.  0.
         12    1    1    2    0    0  0.66669217017E+01  0.27587317968E+02 -0.34980074356E+02  0.45045683030E+02  0.00000000000E+00 0. -1.
         11    1    3    3    0    0 -0.40766926074E+00 -0.12374061668E+02  0.10068126064E+02  0.15957780519E+02  0.51100000000E-03 0. -1.
        -11    1    3    3    0    0 -0.46636383040E+01 -0.55907091434E+01  0.11152006262E+02  0.13318137816E+02  0.51100000000E-03 0.  1.
         12    1    3    3    0    0 -0.15956141370E+01 -0.96225471571E+01  0.13759942029E+02  0.16866398635E+02  0.00000000000E+00 0. -1.
</event>
<event>
 7    1  0.1503436E-008  0.4614231E+02  0.7816164E-02  0.1320468E+00
        -11   -1    0    0    0    0  0.00000000000E+00  0.00000000000E+00  0.45593999997E+02  0.45594000000E+02  0.51100000000E-03 0.  1.
         11   -1    0    0    0    0 -0.00000000000E+00 -0.00000000000E+00 -0.45593999997E+02  0.45594000000E+02  0.51100000000E-03 0. -1.
    9900012    2    1    2    0    0  0.30199706321E+02  0.20896047029E+02  0.26085386192E+02  0.46142307463E+02  0.99999060946E+01 0.  0.
         12    1    1    2    0    0 -0.30199706321E+02 -0.20896047029E+02 -0.26085386192E+02  0.45045692537E+02  0.00000000000E+00 0. -1.
         11    1    3    3    0    0  0.69021592430E+01  0.63321090366E+01  0.93315476403E+01  0.13221693866E+02  0.51100000000E-03 0. -1.
        -11    1    3    3    0    0  0.73374746457E+01  0.29978853685E+01  0.82910830183E+01  0.11470305521E+02  0.51100000000E-03 0.  1.
         12    1    3    3    0    0  0.15960072432E+02  0.11566052624E+02  0.84627555339E+01  0.21450308076E+02  0.00000000000E+00 0. -1.
</event>
<event>
 7    1  0.1503436E-008  0.4614232E+02  0.7816164E-02  0.1320468E+00
        -11   -1    0    0    0    0  0.00000000000E+00  0.00000000000E+00  0.45593999997E+02  0.45594000000E+02  0.51100000000E-03 0.  1.
         11   -1    0    0    0    0 -0.00000000000E+00 -0.00000000000E+00 -0.45593999997E+02  0.45594000000E+02  0.51100000000E-03 0. -1.
    9900012    2    1    2    0    0  0.63723327844E+01  0.29275935579E+02  0.33636679586E+02  0.46142320488E+02  0.10000024865E+02 0.  0.
         12    1    1    2    0    0 -0.63723327844E+01 -0.29275935579E+02 -0.33636679586E+02  0.45045679512E+02  0.00000000000E+00 0. -1.
         11    1    3    3    0    0  0.72527972168E+01  0.18193607065E+02  0.18562963175E+02  0.26985070086E+02  0.51100000000E-03 0. -1.
        -11    1    3    3    0    0 -0.24607746106E+00  0.81628216180E+01  0.13506612246E+02  0.15783560610E+02  0.51100000000E-03 0.  1.
         12    1    3    3    0    0 -0.63438697133E+00  0.29195068963E+01  0.15671041652E+01  0.33736897919E+01  0.00000000000E+00 0. -1.
</event>
<event>
 7    1  0.1503436E-008  0.4614232E+02  0.7816164E-02  0.1320468E+00
        -11   -1    0    0    0    0  0.00000000000E+00  0.00000000000E+00  0.45593999997E+02  0.45594000000E+02  0.51100000000E-03 0.  1.
         11   -1    0    0    0    0 -0.00000000000E+00 -0.00000000000E+00 -0.45593999997E+02  0.45594000000E+02  0.51100000000E-03 0. -1.
    9900012    2    1    2    0    0 -0.18303637637E+02  0.26925964587E+01  0.41071160145E+02  0.46142318497E+02  0.10000006711E+02 0.  0.
         12    1    1    2    0    0  0.18303637637E+02 -0.26925964587E+01 -0.41071160145E+02  0.45045681503E+02  0.00000000000E+00 0. -1.
         11    1    3    3    0    0 -0.30326527749E+01  0.42861110418E+01  0.12078278596E+02  0.13170138375E+02  0.51100000000E-03 0. -1.
        -11    1    3    3    0    0 -0.70833282202E+01  0.61816098162E+00  0.15192877975E+02  0.16774361481E+02  0.51100000000E-03 0.  1.
         12    1    3    3    0    0 -0.81876566417E+01 -0.22116755647E+01  0.13800003573E+02  0.16197818640E+02  0.00000000000E+00 0. -1.
</event>
<event>
 7    1  0.1503436E-008  0.4614232E+02  0.7816164E-02  0.1320468E+00
        -11   -1    0    0    0    0  0.00000000000E+00  0.00000000000E+00  0.45593999997E+02  0.45594000000E+02  0.51100000000E-03 0.  1.
         11   -1    0    0    0    0 -0.00000000000E+00 -0.00000000000E+00 -0.45593999997E+02  0.45594000000E+02  0.51100000000E-03 0. -1.
    9900012    2    1    2    0    0 -0.44576839191E+02  0.45668208346E+01  0.46003364735E+01  0.46142317183E+02  0.99999947297E+01 0.  0.
         12    1    1    2    0    0  0.44576839191E+02 -0.45668208346E+01 -0.46003364735E+01  0.45045682817E+02  0.00000000000E+00 0. -1.
         11    1    3    3    0    0 -0.97851340299E+01  0.28639880052E-01  0.47957943800E+01  0.10897215801E+02  0.51100000000E-03 0. -1.
        -11    1    3    3    0    0 -0.21955599410E+02  0.18427451062E+01  0.11332059657E+01  0.22061917664E+02  0.51100000000E-03 0.  1.
        -12    1    3    3    0    0 -0.12836105751E+02  0.26954358483E+01 -0.13286638722E+01  0.13183183718E+02  0.00000000000E+00 0.  1.
</event>
<event>
 7    1  0.1503436E-008  0.4614232E+02  0.7816164E-02  0.1320468E+00
        -11   -1    0    0    0    0  0.00000000000E+00  0.00000000000E+00  0.45593999997E+02  0.45594000000E+02  0.51100000000E-03 0.  1.
         11   -1    0    0    0    0 -0.00000000000E+00 -0.00000000000E+00 -0.45593999997E+02  0.45594000000E+02  0.51100000000E-03 0. -1.
    9900012    2    1    2    0    0  0.21998316690E+02 -0.29617400793E+02  0.25845644968E+02  0.46142315071E+02  0.99999754709E+01 0.  0.
         12    1    1    2    0    0 -0.21998316690E+02  0.29617400793E+02 -0.25845644968E+02  0.45045684929E+02  0.00000000000E+00 0. -1.
         11    1    3    3    0    0 -0.36524406750E+00 -0.74776516727E+00  0.16423087765E+01  0.18411231226E+01  0.51100000000E-03 0. -1.
        -11    1    3    3    0    0  0.59143003198E+01 -0.12830152715E+02  0.89596461597E+01  0.16729226717E+02  0.51100000000E-03 0.  1.
         12    1    3    3    0    0  0.16449260438E+02 -0.16039482911E+02  0.15243690031E+02  0.27571965232E+02  0.00000000000E+00 0. -1.
</event>
<event>
 7    1  0.1503436E-008  0.4614232E+02  0.7816164E-02  0.1320468E+00
        -11   -1    0    0    0    0  0.00000000000E+00  0.00000000000E+00  0.45593999997E+02  0.45594000000E+02  0.51100000000E-03 0. -1.
         11   -1    0    0    0    0 -0.00000000000E+00 -0.00000000000E+00 -0.45593999997E+02  0.45594000000E+02  0.51100000000E-03 0.  1.
    9900012    2    1    2    0    0  0.40359069157E+02  0.16326930473E+02  0.11562453243E+02  0.46142318221E+02  0.10000004198E+02 0.  0.
         12    1    1    2    0    0 -0.40359069157E+02 -0.16326930473E+02 -0.11562453243E+02  0.45045681779E+02  0.00000000000E+00 0. -1.
         11    1    3    3    0    0  0.15090514445E+02  0.48764600672E+01  0.29282930332E+01  0.16126946064E+02  0.51100000000E-03 0. -1.
        -11    1    3    3    0    0  0.12917242731E+02  0.30834599952E+01  0.11639641866E+01  0.13331080159E+02  0.51100000000E-03 0.  1.
         12    1    3    3    0    0  0.12351311981E+02  0.83670104106E+01  0.74701960230E+01  0.16684291998E+02  0.00000000000E+00 0. -1.
</event>
<event>
 7    1  0.1503436E-008  0.4614232E+02  0.7816164E-02  0.1320468E+00
        -11   -1    0    0    0    0  0.00000000000E+00  0.00000000000E+00  0.45593999997E+02  0.45594000000E+02  0.51100000000E-03 0.  1.
         11   -1    0    0    0    0 -0.00000000000E+00 -0.00000000000E+00 -0.45593999997E+02  0.45594000000E+02  0.51100000000E-03 0. -1.
    9900012    2    1    2    0    0 -0.23766485360E+02  0.24764376882E+02  0.29171792398E+02  0.46142315851E+02  0.99999825843E+01 0.  0.
         12    1    1    2    0    0  0.23766485360E+02 -0.24764376882E+02 -0.29171792398E+02  0.45045684149E+02  0.00000000000E+00 0. -1.
         11    1    3    3    0    0 -0.91987253353E+01  0.49468556820E+01  0.61824987545E+01  0.12137183365E+02  0.51100000000E-03 0.  1.
        -11    1    3    3    0    0 -0.34472281034E+01  0.85653434353E+01  0.87507208357E+01  0.12720990731E+02  0.51100000000E-03 0. -1.
        -12    1    3    3    0    0 -0.11120531921E+02  0.11252177765E+02  0.14238572808E+02  0.21284141755E+02  0.00000000000E+00 0.  1.
</event>
<event>
 7    1  0.1503436E-008  0.4614232E+02  0.7816164E-02  0.1320468E+00
        -11   -1    0    0    0    0  0.00000000000E+00  0.00000000000E+00  0.45593999997E+02  0.45594000000E+02  0.51100000000E-03 0.  1.
         11   -1    0    0    0    0 -0.00000000000E+00 -0.00000000000E+00 -0.45593999997E+02  0.45594000000E+02  0.51100000000E-03 0. -1.
    9900012    2    1    2    0    0  0.20630632214E+01 -0.23221936807E+02  0.38543463431E+02  0.46142321493E+02  0.10000034032E+02 0.  0.
         12    1    1    2    0    0 -0.20630632214E+01  0.23221936807E+02 -0.38543463431E+02  0.45045678507E+02  0.00000000000E+00 0. -1.
         11    1    3    3    0    0 -0.15523477376E+01 -0.36813172000E+01  0.22390330622E+01  0.45798634413E+01  0.51100000000E-03 0. -1.
        -11    1    3    3    0    0  0.86096088494E+00 -0.14184657497E+02  0.25665129185E+02  0.29336745189E+02  0.51100000000E-03 0.  1.
        -12    1    3    3    0    0  0.27544500741E+01 -0.53559621102E+01  0.10639301183E+02  0.12225712863E+02  0.00000000000E+00 0.  1.
</event>
<event>
 7    1  0.1503436E-008  0.4614232E+02  0.7816164E-02  0.1320468E+00
        -11   -1    0    0    0    0  0.00000000000E+00  0.00000000000E+00  0.45593999997E+02  0.45594000000E+02  0.51100000000E-03 0.  1.
         11   -1    0    0    0    0 -0.00000000000E+00 -0.00000000000E+00 -0.45593999997E+02  0.45594000000E+02  0.51100000000E-03 0. -1.
    9900012    2    1    2    0    0  0.50232250239E+01 -0.23138397580E+02  0.38320949011E+02  0.46142319127E+02  0.10000012455E+02 0.  0.
         12    1    1    2    0    0 -0.50232250239E+01  0.23138397580E+02 -0.38320949011E+02  0.45045680873E+02  0.00000000000E+00 0. -1.
         11    1    3    3    0    0  0.51272205435E+00 -0.11723487899E+02  0.26968140837E+02  0.29410604769E+02  0.51100000000E-03 0. -1.
        -11    1    3    3    0    0  0.21279372257E+01 -0.62513680650E+01  0.61732812569E+01  0.90397522786E+01  0.51100000000E-03 0.  1.
         12    1    3    3    0    0  0.23825657438E+01 -0.51635416155E+01  0.51795269174E+01  0.76919620791E+01  0.00000000000E+00 0. -1.
</event>
<event>
 7    1  0.1503436E-008  0.4614232E+02  0.7816164E-02  0.1320468E+00
        -11   -1    0    0    0    0  0.00000000000E+00  0.00000000000E+00  0.45593999997E+02  0.45594000000E+02  0.51100000000E-03 0. -1.
         11   -1    0    0    0    0 -0.00000000000E+00 -0.00000000000E+00 -0.45593999997E+02  0.45594000000E+02  0.51100000000E-03 0.  1.
    9900012    2    1    2    0    0 -0.22632134773E+02  0.15265136340E+02 -0.35831210799E+02  0.46142316753E+02  0.99999908051E+01 0.  0.
         12    1    1    2    0    0  0.22632134773E+02 -0.15265136340E+02  0.35831210799E+02  0.45045683247E+02  0.00000000000E+00 0. -1.
         11    1    3    3    0    0 -0.17095988799E+01 -0.73440209842E+00 -0.17458848274E+01  0.25515071750E+01  0.51100000000E-03 0. -1.
        -11    1    3    3    0    0 -0.12587305911E+02  0.54224889110E+01 -0.17082105071E+02  0.21900729897E+02  0.51100000000E-03 0.  1.
         12    1    3    3    0    0 -0.83352299813E+01  0.10577049528E+02 -0.17003220901E+02  0.21690079681E+02  0.00000000000E+00 0. -1.
</event>
<event>
 7    1  0.1503436E-008  0.4614232E+02  0.7816164E-02  0.1320468E+00
        -11   -1    0    0    0    0  0.00000000000E+00  0.00000000000E+00  0.45593999997E+02  0.45594000000E+02  0.51100000000E-03 0.  1.
         11   -1    0    0    0    0 -0.00000000000E+00 -0.00000000000E+00 -0.45593999997E+02  0.45594000000E+02  0.51100000000E-03 0. -1.
    9900012    2    1    2    0    0  0.24718922476E+02  0.32443993785E+02  0.19117415184E+02  0.46142318471E+02  0.10000006471E+02 0.  0.
         12    1    1    2    0    0 -0.24718922476E+02 -0.32443993785E+02 -0.19117415184E+02  0.45045681529E+02  0.00000000000E+00 0. -1.
         11    1    3    3    0    0  0.13127310453E+02  0.23064092675E+02  0.12413728510E+02  0.29298110970E+02  0.51100000000E-03 0. -1.
        -11    1    3    3    0    0  0.39806698094E+01  0.46555799094E+01  0.45515934836E+01  0.76313275336E+01  0.51100000000E-03 0.  1.
         12    1    3    3    0    0  0.76109422130E+01  0.47243212009E+01  0.21520931910E+01  0.92128799668E+01  0.00000000000E+00 0. -1.
</event>
<event>
 7    1  0.1503436E-008  0.4614232E+02  0.7816164E-02  0.1320468E+00
        -11   -1    0    0    0    0  0.00000000000E+00  0.00000000000E+00  0.45593999997E+02  0.45594000000E+02  0.51100000000E-03 0. -1.
         11   -1    0    0    0    0 -0.00000000000E+00 -0.00000000000E+00 -0.45593999997E+02  0.45594000000E+02  0.51100000000E-03 0.  1.
    9900012    2    1    2    0    0 -0.81193541175E+01 -0.43385587509E+02 -0.89933554829E+01  0.46142316993E+02  0.99999929928E+01 0.  0.
         12    1    1    2    0    0  0.81193541175E+01  0.43385587509E+02  0.89933554829E+01  0.45045683007E+02  0.00000000000E+00 0. -1.
         11    1    3    3    0    0  0.85331259672E+00 -0.10904185864E+00  0.16601542093E+00  0.87612436090E+00  0.51100000000E-03 0. -1.
        -11    1    3    3    0    0 -0.11910797505E+01 -0.13307582775E+02 -0.31118191913E+01  0.13718376334E+02  0.51100000000E-03 0.  1.
         12    1    3    3    0    0 -0.77815869638E+01 -0.29968962875E+02 -0.60475517125E+01  0.31547816298E+02  0.00000000000E+00 0. -1.
</event>
<event>
 7    1  0.1503436E-008  0.4614232E+02  0.7816164E-02  0.1320468E+00
        -11   -1    0    0    0    0  0.00000000000E+00  0.00000000000E+00  0.45593999997E+02  0.45594000000E+02  0.51100000000E-03 0. -1.
         11   -1    0    0    0    0 -0.00000000000E+00 -0.00000000000E+00 -0.45593999997E+02  0.45594000000E+02  0.51100000000E-03 0.  1.
    9900012    2    1    2    0    0 -0.58105975269E+01  0.44413644095E+02 -0.47726889564E+01  0.46142318905E+02  0.10000010432E+02 0.  0.
         12    1    1    2    0    0  0.58105975269E+01 -0.44413644095E+02  0.47726889564E+01  0.45045681095E+02  0.00000000000E+00 0. -1.
         11    1    3    3    0    0  0.22675616737E+01  0.72212986294E+01 -0.23884348565E+00  0.75727165741E+01  0.51100000000E-03 0. -1.
        -11    1    3    3    0    0 -0.24138260625E+01  0.10472531398E+02 -0.32419940334E+01  0.11225461938E+02  0.51100000000E-03 0.  1.
         12    1    3    3    0    0 -0.56643331381E+01  0.26719814067E+02 -0.12918514374E+01  0.27344140393E+02  0.00000000000E+00 0. -1.
</event>
<event>
 7    1  0.1503436E-008  0.4614232E+02  0.7816164E-02  0.1320468E+00
        -11   -1    0    0    0    0  0.00000000000E+00  0.00000000000E+00  0.45593999997E+02  0.45594000000E+02  0.51100000000E-03 0. -1.
         11   -1    0    0    0    0 -0.00000000000E+00 -0.00000000000E+00 -0.45593999997E+02  0.45594000000E+02  0.51100000000E-03 0.  1.
    9900012    2    1    2    0    0  0.86033394207E+01  0.27388227043E+02 -0.34712837290E+02  0.46142317604E+02  0.99999985688E+01 0.  0.
         12    1    1    2    0    0 -0.86033394207E+01 -0.27388227043E+02  0.34712837290E+02  0.45045682396E+02  0.00000000000E+00 0. -1.
         11    1    3    3    0    0  0.72558263628E+01  0.11903354721E+02 -0.11166557640E+02  0.17861379555E+02  0.51100000000E-03 0. -1.
        -11    1    3    3    0    0  0.18052008175E+01  0.12926799224E+02 -0.19180642652E+02  0.23200386655E+02  0.51100000000E-03 0.  1.
         12    1    3    3    0    0 -0.45768775951E+00  0.25580730983E+01 -0.43656369983E+01  0.50805513936E+01  0.00000000000E+00 0. -1.
</event>
<event>
 7    1  0.1503436E-008  0.4614232E+02  0.7816164E-02  0.1320468E+00
        -11   -1    0    0    0    0  0.00000000000E+00  0.00000000000E+00  0.45593999997E+02  0.45594000000E+02  0.51100000000E-03 0.  1.
         11   -1    0    0    0    0 -0.00000000000E+00 -0.00000000000E+00 -0.45593999997E+02  0.45594000000E+02  0.51100000000E-03 0. -1.
    9900012    2    1    2    0    0 -0.16013187264E+02 -0.25815074633E+01  0.42024125811E+02  0.46142317661E+02  0.99999990917E+01 0.  0.
         12    1    1    2    0    0  0.16013187264E+02  0.25815074633E+01 -0.42024125811E+02  0.45045682339E+02  0.00000000000E+00 0. -1.
         11    1    3    3    0    0 -0.45731160490E+01 -0.35010083436E+01  0.95853399364E+01  0.11182539594E+02  0.51100000000E-03 0. -1.
        -11    1    3    3    0    0 -0.80462507074E+01 -0.13266758082E+01  0.15225202805E+02  0.17271624702E+02  0.51100000000E-03 0.  1.
        -12    1    3    3    0    0 -0.33938205079E+01  0.22461766884E+01  0.17213583070E+02  0.17688153365E+02  0.00000000000E+00 0.  1.
</event>
<event>
 7    1  0.1503436E-008  0.4614232E+02  0.7816164E-02  0.1320468E+00
        -11   -1    0    0    0    0  0.00000000000E+00  0.00000000000E+00  0.45593999997E+02  0.45594000000E+02  0.51100000000E-03 0.  1.
         11   -1    0    0    0    0 -0.00000000000E+00 -0.00000000000E+00 -0.45593999997E+02  0.45594000000E+02  0.51100000000E-03 0. -1.
    9900012    2    1    2    0    0  0.26999491720E+02 -0.46811337287E+01  0.35752313395E+02  0.46142317863E+02  0.10000000927E+02 0.  0.
         12    1    1    2    0    0 -0.26999491720E+02  0.46811337287E+01 -0.35752313395E+02  0.45045682137E+02  0.00000000000E+00 0. -1.
         11    1    3    3    0    0  0.49511199424E+01  0.15169019988E-03  0.38454165196E+01  0.62690363835E+01  0.51100000000E-03 0. -1.
        -11    1    3    3    0    0  0.61966140570E+01 -0.31766363060E+00  0.15272411682E+02  0.16484704875E+02  0.51100000000E-03 0.  1.
        -12    1    3    3    0    0  0.15851757721E+02 -0.43636217883E+01  0.16634485193E+02  0.23388576604E+02  0.00000000000E+00 0.  1.
</event>
<event>
 7    1  0.1503436E-008  0.4614232E+02  0.7816164E-02  0.1320468E+00
        -11   -1    0    0    0    0  0.00000000000E+00  0.00000000000E+00  0.45593999997E+02  0.45594000000E+02  0.51100000000E-03 0. -1.
         11   -1    0    0    0    0 -0.00000000000E+00 -0.00000000000E+00 -0.45593999997E+02  0.45594000000E+02  0.51100000000E-03 0.  1.
    9900012    2    1    2    0    0  0.21772493947E+02  0.25654667560E+02 -0.29948456388E+02  0.46142317628E+02  0.99999987892E+01 0.  0.
         12    1    1    2    0    0 -0.21772493947E+02 -0.25654667560E+02  0.29948456388E+02  0.45045682372E+02  0.00000000000E+00 0. -1.
         11    1    3    3    0    0  0.93233752384E+01  0.16386857551E+02 -0.17524627779E+02  0.25740376945E+02  0.51100000000E-03 0. -1.
        -11    1    3    3    0    0  0.73834490062E+01  0.80735383307E+01 -0.90599231957E+01  0.14204912846E+02  0.51100000000E-03 0.  1.
         12    1    3    3    0    0  0.50656697026E+01  0.11942716787E+01 -0.33639054132E+01  0.61970278365E+01  0.00000000000E+00 0. -1.
</event>
<event>
 7    1  0.1503436E-008  0.4614232E+02  0.7816164E-02  0.1320468E+00
        -11   -1    0    0    0    0  0.00000000000E+00  0.00000000000E+00  0.45593999997E+02  0.45594000000E+02  0.51100000000E-03 0. -1.
         11   -1    0    0    0    0 -0.00000000000E+00 -0.00000000000E+00 -0.45593999997E+02  0.45594000000E+02  0.51100000000E-03 0.  1.
    9900012    2    1    2    0    0 -0.67912878109E+01 -0.16232937328E+02 -0.41466657433E+02  0.46142317376E+02  0.99999964888E+01 0.  0.
         12    1    1    2    0    0  0.67912878109E+01  0.16232937328E+02  0.41466657433E+02  0.45045682624E+02  0.00000000000E+00 0. -1.
         11    1    3    3    0    0 -0.32919076613E+01 -0.55643320661E+01 -0.69376462776E+01  0.94831104352E+01  0.51100000000E-03 0. -1.
        -11    1    3    3    0    0 -0.21559219725E+01 -0.93142303166E+01 -0.32487830237E+02  0.33865351020E+02  0.51100000000E-03 0.  1.
        -12    1    3    3    0    0 -0.13434581771E+01 -0.13543749453E+01 -0.20411809178E+01  0.27938559206E+01  0.00000000000E+00 0.  1.
</event>
<event>
 7    1  0.1503436E-008  0.4614232E+02  0.7816164E-02  0.1320468E+00
        -11   -1    0    0    0    0  0.00000000000E+00  0.00000000000E+00  0.45593999997E+02  0.45594000000E+02  0.51100000000E-03 0.  1.
         11   -1    0    0    0    0 -0.00000000000E+00 -0.00000000000E+00 -0.45593999997E+02  0.45594000000E+02  0.51100000000E-03 0. -1.
    9900012    2    1    2    0    0  0.21405414998E+02  0.19252312895E+01  0.39588068691E+02  0.46142317749E+02  0.99999998912E+01 0.  0.
         12    1    1    2    0    0 -0.21405414998E+02 -0.19252312895E+01 -0.39588068691E+02  0.45045682251E+02  0.00000000000E+00 0. -1.
         11    1    3    3    0    0  0.74199892333E+01  0.23024795296E+01  0.23142425740E+02  0.24411667735E+02  0.51100000000E-03 0.  1.
        -11    1    3    3    0    0  0.93174938606E+01  0.49247291534E+00  0.94877504371E+01  0.13306976743E+02  0.51100000000E-03 0. -1.
        -12    1    3    3    0    0  0.46679319042E+01 -0.86972115548E+00  0.69578925140E+01  0.84236732716E+01  0.00000000000E+00 0.  1.
</event>
<event>
 7    1  0.1503436E-008  0.4614232E+02  0.7816164E-02  0.1320468E+00
        -11   -1    0    0    0    0  0.00000000000E+00  0.00000000000E+00  0.45593999997E+02  0.45594000000E+02  0.51100000000E-03 0.  1.
         11   -1    0    0    0    0 -0.00000000000E+00 -0.00000000000E+00 -0.45593999997E+02  0.45594000000E+02  0.51100000000E-03 0. -1.
    9900012    2    1    2    0    0  0.13503438523E+01  0.41039487161E+01  0.44838015785E+02  0.46142317819E+02  0.10000000529E+02 0.  0.
         12    1    1    2    0    0 -0.13503438523E+01 -0.41039487161E+01 -0.44838015785E+02  0.45045682181E+02  0.00000000000E+00 0. -1.
         11    1    3    3    0    0  0.25120826977E+01  0.66276612051E+00  0.81928884528E+01  0.85949543263E+01  0.51100000000E-03 0. -1.
        -11    1    3    3    0    0  0.13943713524E+01 -0.64267785693E+00  0.23449731354E+02  0.23499940577E+02  0.51100000000E-03 0.  1.
        -12    1    3    3    0    0 -0.25561101979E+01  0.40838604525E+01  0.13195395978E+02  0.14047422915E+02  0.00000000000E+00 0.  1.
</event>
<event>
 7    1  0.1503436E-008  0.4614232E+02  0.7816164E-02  0.1320468E+00
        -11   -1    0    0    0    0  0.00000000000E+00  0.00000000000E+00  0.45593999997E+02  0.45594000000E+02  0.51100000000E-03 0. -1.
         11   -1    0    0    0    0 -0.00000000000E+00 -0.00000000000E+00 -0.45593999997E+02  0.45594000000E+02  0.51100000000E-03 0.  1.
    9900012    2    1    2    0    0 -0.15893821874E+02  0.28809827674E+02 -0.30765133765E+02  0.46142320963E+02  0.10000029194E+02 0.  0.
         12    1    1    2    0    0  0.15893821874E+02 -0.28809827674E+02  0.30765133765E+02  0.45045679037E+02  0.00000000000E+00 0. -1.
         11    1    3    3    0    0 -0.10589705546E+02  0.10526571242E+02 -0.10566042099E+02  0.18291850961E+02  0.51100000000E-03 0. -1.
        -11    1    3    3    0    0 -0.38184814343E+01  0.15618075598E+02 -0.16247775580E+02  0.22858156038E+02  0.51100000000E-03 0.  1.
         12    1    3    3    0    0 -0.14856348935E+01  0.26651808340E+01 -0.39513160853E+01  0.49923139645E+01  0.00000000000E+00 0. -1.
</event>
<event>
 7    1  0.1503436E-008  0.4614232E+02  0.7816164E-02  0.1320468E+00
        -11   -1    0    0    0    0  0.00000000000E+00  0.00000000000E+00  0.45593999997E+02  0.45594000000E+02  0.51100000000E-03 0.  1.
         11   -1    0    0    0    0 -0.00000000000E+00 -0.00000000000E+00 -0.45593999997E+02  0.45594000000E+02  0.51100000000E-03 0. -1.
    9900012    2    1    2    0    0 -0.13722922044E+02  0.17128525767E+02  0.39337114378E+02  0.46142317055E+02  0.99999935602E+01 0.  0.
         12    1    1    2    0    0  0.13722922044E+02 -0.17128525767E+02 -0.39337114378E+02  0.45045682945E+02  0.00000000000E+00 0. -1.
         11    1    3    3    0    0 -0.10089078298E+02  0.10305379265E+02  0.24665099944E+02  0.28571970500E+02  0.51100000000E-03 0. -1.
        -11    1    3    3    0    0 -0.66859942648E+00 -0.96130178627E-01  0.62013852509E+01  0.62380642426E+01  0.51100000000E-03 0.  1.
         12    1    3    3    0    0 -0.29652443189E+01  0.69192766806E+01  0.84706291833E+01  0.11332282313E+02  0.00000000000E+00 0. -1.
</event>
<event>
 7    1  0.1503436E-008  0.4614232E+02  0.7816164E-02  0.1320468E+00
        -11   -1    0    0    0    0  0.00000000000E+00  0.00000000000E+00  0.45593999997E+02  0.45594000000E+02  0.51100000000E-03 0.  1.
         11   -1    0    0    0    0 -0.00000000000E+00 -0.00000000000E+00 -0.45593999997E+02  0.45594000000E+02  0.51100000000E-03 0. -1.
    9900012    2    1    2    0    0 -0.34609248255E+02 -0.27625542896E+02  0.82548631528E+01  0.46142318179E+02  0.10000003807E+02 0.  0.
         12    1    1    2    0    0  0.34609248255E+02  0.27625542896E+02 -0.82548631528E+01  0.45045681821E+02  0.00000000000E+00 0. -1.
         11    1    3    3    0    0 -0.21386696071E+02 -0.21860040708E+02  0.35641775516E+01  0.30788886152E+02  0.51100000000E-03 0. -1.
        -11    1    3    3    0    0 -0.12408426534E+02 -0.59485282987E+01  0.42088986448E+01  0.14389887631E+02  0.51100000000E-03 0.  1.
        -12    1    3    3    0    0 -0.81412564969E+00  0.18302611055E+00  0.48178695639E+00  0.96354439544E+00  0.00000000000E+00 0.  1.
</event>
<event>
 7    1  0.1503436E-008  0.4614232E+02  0.7816164E-02  0.1320468E+00
        -11   -1    0    0    0    0  0.00000000000E+00  0.00000000000E+00  0.45593999997E+02  0.45594000000E+02  0.51100000000E-03 0. -1.
         11   -1    0    0    0    0 -0.00000000000E+00 -0.00000000000E+00 -0.45593999997E+02  0.45594000000E+02  0.51100000000E-03 0.  1.
    9900012    2    1    2    0    0  0.39741668609E+02 -0.75896189917E+01 -0.19801792531E+02  0.46142317325E+02  0.99999960201E+01 0.  0.
         12    1    1    2    0    0 -0.39741668609E+02  0.75896189917E+01  0.19801792531E+02  0.45045682675E+02  0.00000000000E+00 0. -1.
         11    1    3    3    0    0  0.12816627136E+02 -0.60456518975E+01 -0.88744457544E+01  0.16720395501E+02  0.51100000000E-03 0. -1.
        -11    1    3    3    0    0  0.13069762586E+02 -0.20466298357E+01 -0.34580584207E+01  0.13673534877E+02  0.51100000000E-03 0.  1.
         12    1    3    3    0    0  0.13855278887E+02  0.50266274157E+00 -0.74692883562E+01  0.15748386947E+02  0.00000000000E+00 0. -1.
</event>
<event>
 7    1  0.1503436E-008  0.4614232E+02  0.7816164E-02  0.1320468E+00
        -11   -1    0    0    0    0  0.00000000000E+00  0.00000000000E+00  0.45593999997E+02  0.45594000000E+02  0.51100000000E-03 0.  1.
         11   -1    0    0    0    0 -0.00000000000E+00 -0.00000000000E+00 -0.45593999997E+02  0.45594000000E+02  0.51100000000E-03 0. -1.
    9900012    2    1    2    0    0 -0.28990354499E+02 -0.96174834304E+01  0.33108563544E+02  0.46142316284E+02  0.99999865267E+01 0.  0.
         12    1    1    2    0    0  0.28990354499E+02  0.96174834304E+01 -0.33108563544E+02  0.45045683716E+02  0.00000000000E+00 0. -1.
         11    1    3    3    0    0 -0.23670884004E+01  0.16203932756E+01  0.42047950457E+01  0.50900966101E+01  0.51100000000E-03 0. -1.
        -11    1    3    3    0    0 -0.24345926843E+02 -0.92632459624E+01  0.26820700818E+02  0.37388258480E+02  0.51100000000E-03 0.  1.
         12    1    3    3    0    0 -0.22773392560E+01 -0.19746307437E+01  0.20830676809E+01  0.36639611931E+01  0.00000000000E+00 0. -1.
</event>
<event>
 7    1  0.1503436E-008  0.4614232E+02  0.7816164E-02  0.1320468E+00
        -11   -1    0    0    0    0  0.00000000000E+00  0.00000000000E+00  0.45593999997E+02  0.45594000000E+02  0.51100000000E-03 0.  1.
         11   -1    0    0    0    0 -0.00000000000E+00 -0.00000000000E+00 -0.45593999997E+02  0.45594000000E+02  0.51100000000E-03 0. -1.
    9900012    2    1    2    0    0  0.30895030621E+02 -0.58069415919E+01  0.32262826672E+02  0.46142317936E+02  0.10000001596E+02 0.  0.
         12    1    1    2    0    0 -0.30895030621E+02  0.58069415919E+01 -0.32262826672E+02  0.45045682064E+02  0.00000000000E+00 0. -1.
         11    1    3    3    0    0  0.79025801743E+01  0.27258959313E+00  0.41671750636E+01  0.89381444813E+01  0.51100000000E-03 0. -1.
        -11    1    3    3    0    0  0.19669625585E+02 -0.44461797382E+01  0.20510448587E+02  0.28763539185E+02  0.51100000000E-03 0.  1.
         12    1    3    3    0    0  0.33228248620E+01 -0.16333514468E+01  0.75852030212E+01  0.84406342703E+01  0.00000000000E+00 0. -1.
</event>
<event>
 7    1  0.1503436E-008  0.4614232E+02  0.7816164E-02  0.1320468E+00
        -11   -1    0    0    0    0  0.00000000000E+00  0.00000000000E+00  0.45593999997E+02  0.45594000000E+02  0.51100000000E-03 0.  1.
         11   -1    0    0    0    0 -0.00000000000E+00 -0.00000000000E+00 -0.45593999997E+02  0.45594000000E+02  0.51100000000E-03 0. -1.
    9900012    2    1    2    0    0  0.60454128906E+00  0.25959064801E+02  0.36808628586E+02  0.46142315924E+02  0.99999832496E+01 0.  0.
         12    1    1    2    0    0 -0.60454128906E+00 -0.25959064801E+02 -0.36808628586E+02  0.45045684076E+02  0.00000000000E+00 0. -1.
         11    1    3    3    0    0  0.10319857664E+01  0.17351646076E+01  0.11078984538E+01  0.23028743089E+01  0.51100000000E-03 0. -1.
        -11    1    3    3    0    0 -0.41794665118E+00  0.27480934080E+01  0.85653651190E+00  0.29086683963E+01  0.51100000000E-03 0.  1.
        -12    1    3    3    0    0 -0.94978261735E-02  0.21475806785E+02  0.34844193620E+02  0.40930773219E+02  0.00000000000E+00 0.  1.
</event>
<event>
 7    1  0.1503436E-008  0.4614232E+02  0.7816164E-02  0.1320468E+00
        -11   -1    0    0    0    0  0.00000000000E+00  0.00000000000E+00  0.45593999997E+02  0.45594000000E+02  0.51100000000E-03 0.  1.
         11   -1    0    0    0    0 -0.00000000000E+00 -0.00000000000E+00 -0.45593999997E+02  0.45594000000E+02  0.51100000000E-03 0. -1.
    9900012    2    1    2    0    0 -0.29242737494E+02  0.34263277734E+02 -0.60715993707E-01  0.46142316704E+02  0.99999903574E+01 0.  0.
         12    1    1    2    0    0  0.29242737494E+02 -0.34263277734E+02  0.60715993707E-01  0.45045683296E+02  0.00000000000E+00 0. -1.
         11    1    3    3    0    0 -0.19551808188E+02  0.24648613811E+02 -0.25899482255E+01  0.31567945741E+02  0.51100000000E-03 0. -1.
        -11    1    3    3    0    0 -0.63139219581E+01  0.57046740267E+01 -0.60624307394E+00  0.85309112742E+01  0.51100000000E-03 0.  1.
         12    1    3    3    0    0 -0.33770073479E+01  0.39099898963E+01  0.31354753057E+01  0.60434596888E+01  0.00000000000E+00 0. -1.
</event>
<event>
 7    1  0.1503436E-008  0.4614232E+02  0.7816164E-02  0.1320468E+00
        -11   -1    0    0    0    0  0.00000000000E+00  0.00000000000E+00  0.45593999997E+02  0.45594000000E+02  0.51100000000E-03 0.  1.
         11   -1    0    0    0    0 -0.00000000000E+00 -0.00000000000E+00 -0.45593999997E+02  0.45594000000E+02  0.51100000000E-03 0. -1.
    9900012    2    1    2    0    0  0.35282177754E+02  0.27502279093E+02  0.52826197883E+01  0.46142317697E+02  0.99999994126E+01 0.  0.
         12    1    1    2    0    0 -0.35282177754E+02 -0.27502279093E+02 -0.52826197883E+01  0.45045682303E+02  0.00000000000E+00 0. -1.
         11    1    3    3    0    0  0.19215116482E+02  0.12509325784E+02  0.43150794610E+01  0.23330748895E+02  0.51100000000E-03 0. -1.
        -11    1    3    3    0    0  0.81579196581E+01  0.69192082591E+01  0.34505764994E+01  0.11239820929E+02  0.51100000000E-03 0.  1.
         12    1    3    3    0    0  0.79091416136E+01  0.80737450497E+01 -0.24830361721E+01  0.11571747872E+02  0.00000000000E+00 0. -1.
</event>
<event>
 7    1  0.1503436E-008  0.4614232E+02  0.7816164E-02  0.1320468E+00
        -11   -1    0    0    0    0  0.00000000000E+00  0.00000000000E+00  0.45593999997E+02  0.45594000000E+02  0.51100000000E-03 0.  1.
         11   -1    0    0    0    0 -0.00000000000E+00 -0.00000000000E+00 -0.45593999997E+02  0.45594000000E+02  0.51100000000E-03 0. -1.
    9900012    2    1    2    0    0 -0.30102826737E+02  0.32868458817E+02  0.65266904832E+01  0.46142318174E+02  0.10000003762E+02 0.  0.
         12    1    1    2    0    0  0.30102826737E+02 -0.32868458817E+02 -0.65266904832E+01  0.45045681826E+02  0.00000000000E+00 0. -1.
         11    1    3    3    0    0 -0.79895039294E+01  0.76677739054E+01 -0.10893777571E+01  0.11127159290E+02  0.51100000000E-03 0. -1.
        -11    1    3    3    0    0 -0.37939384829E+01  0.75156067610E+01 -0.64087948076E-01  0.84191698953E+01  0.51100000000E-03 0.  1.
         12    1    3    3    0    0 -0.18319384324E+02  0.17685078150E+02  0.76801561883E+01  0.26595988989E+02  0.00000000000E+00 0. -1.
</event>
<event>
 7    1  0.1503436E-008  0.4614232E+02  0.7816164E-02  0.1320468E+00
        -11   -1    0    0    0    0  0.00000000000E+00  0.00000000000E+00  0.45593999997E+02  0.45594000000E+02  0.51100000000E-03 0.  1.
         11   -1    0    0    0    0 -0.00000000000E+00 -0.00000000000E+00 -0.45593999997E+02  0.45594000000E+02  0.51100000000E-03 0. -1.
    9900012    2    1    2    0    0  0.19657880362E+02  0.39436247041E+02 -0.93522093210E+01  0.46142315854E+02  0.99999826094E+01 0.  0.
         12    1    1    2    0    0 -0.19657880362E+02 -0.39436247041E+02  0.93522093210E+01  0.45045684146E+02  0.00000000000E+00 0. -1.
         11    1    3    3    0    0  0.60703234176E+00  0.25330961836E+01 -0.24362448878E+01  0.35665605215E+01  0.51100000000E-03 0. -1.
        -11    1    3    3    0    0  0.10120109293E+02  0.25977247065E+02 -0.39716010347E+01  0.28160390484E+02  0.51100000000E-03 0.  1.
         12    1    3    3    0    0  0.89307387267E+01  0.10925903793E+02 -0.29443633985E+01  0.14415364848E+02  0.00000000000E+00 0. -1.
</event>
<event>
 7    1  0.1503436E-008  0.4614232E+02  0.7816164E-02  0.1320468E+00
        -11   -1    0    0    0    0  0.00000000000E+00  0.00000000000E+00  0.45593999997E+02  0.45594000000E+02  0.51100000000E-03 0.  1.
         11   -1    0    0    0    0 -0.00000000000E+00 -0.00000000000E+00 -0.45593999997E+02  0.45594000000E+02  0.51100000000E-03 0. -1.
    9900012    2    1    2    0    0  0.18576212553E+02  0.18466559955E+02  0.36647293136E+02  0.46142316482E+02  0.99999883389E+01 0.  0.
         12    1    1    2    0    0 -0.18576212553E+02 -0.18466559955E+02 -0.36647293136E+02  0.45045683518E+02  0.00000000000E+00 0. -1.
         11    1    3    3    0    0  0.73101483265E+01  0.41966067133E+01  0.67420726001E+01  0.10793762998E+02  0.51100000000E-03 0. -1.
        -11    1    3    3    0    0  0.97426892748E+01  0.86655579724E+01  0.20638969931E+02  0.24412680503E+02  0.51100000000E-03 0.  1.
         12    1    3    3    0    0  0.15233749520E+01  0.56043952696E+01  0.92662506047E+01  0.10935872981E+02  0.00000000000E+00 0. -1.
</event>
<event>
 7    1  0.1503436E-008  0.4614231E+02  0.7816164E-02  0.1320468E+00
        -11   -1    0    0    0    0  0.00000000000E+00  0.00000000000E+00  0.45593999997E+02  0.45594000000E+02  0.51100000000E-03 0.  1.
         11   -1    0    0    0    0 -0.00000000000E+00 -0.00000000000E+00 -0.45593999997E+02  0.45594000000E+02  0.51100000000E-03 0. -1.
    9900012    2    1    2    0    0 -0.19006840232E+02 -0.17358785097E+02  0.36966559930E+02  0.46142312651E+02  0.99999534023E+01 0.  0.
         12    1    1    2    0    0  0.19006840232E+02  0.17358785097E+02 -0.36966559930E+02  0.45045687349E+02  0.00000000000E+00 0. -1.
         11    1    3    3    0    0 -0.22583941820E+01 -0.18627888890E+01  0.11639968835E+02  0.12002466474E+02  0.51100000000E-03 0. -1.
        -11    1    3    3    0    0 -0.69101621327E+01 -0.76427402746E+01  0.11219724778E+02  0.15232991957E+02  0.51100000000E-03 0.  1.
         12    1    3    3    0    0 -0.98382839172E+01 -0.78532559335E+01  0.14106866318E+02  0.18906854220E+02  0.00000000000E+00 0. -1.
</event>
<event>
 7    1  0.1503436E-008  0.4614232E+02  0.7816164E-02  0.1320468E+00
        -11   -1    0    0    0    0  0.00000000000E+00  0.00000000000E+00  0.45593999997E+02  0.45594000000E+02  0.51100000000E-03 0.  1.
         11   -1    0    0    0    0 -0.00000000000E+00 -0.00000000000E+00 -0.45593999997E+02  0.45594000000E+02  0.51100000000E-03 0. -1.
    9900012    2    1    2    0    0  0.10995442636E+02 -0.96430320075E+01  0.42605465653E+02  0.46142317315E+02  0.99999959349E+01 0.  0.
         12    1    1    2    0    0 -0.10995442636E+02  0.96430320075E+01 -0.42605465653E+02  0.45045682685E+02  0.00000000000E+00 0. -1.
         11    1    3    3    0    0  0.33401090051E+01 -0.61824483142E+01  0.12512754072E+02  0.14350888825E+02  0.51100000000E-03 0.  1.
        -11    1    3    3    0    0  0.35609919993E+01  0.10281914318E+01  0.70960210256E+01  0.80057077324E+01  0.51100000000E-03 0. -1.
         12    1    3    3    0    0  0.40943416311E+01 -0.44887751251E+01  0.22996690555E+02  0.23785720758E+02  0.00000000000E+00 0. -1.
</event>
<event>
 7    1  0.1503436E-008  0.4614231E+02  0.7816164E-02  0.1320468E+00
        -11   -1    0    0    0    0  0.00000000000E+00  0.00000000000E+00  0.45593999997E+02  0.45594000000E+02  0.51100000000E-03 0.  1.
         11   -1    0    0    0    0 -0.00000000000E+00 -0.00000000000E+00 -0.45593999997E+02  0.45594000000E+02  0.51100000000E-03 0. -1.
    9900012    2    1    2    0    0 -0.76250819518E+01  0.23944938996E+02  0.37384646726E+02  0.46142314423E+02  0.99999695583E+01 0.  0.
         12    1    1    2    0    0  0.76250819518E+01 -0.23944938996E+02 -0.37384646726E+02  0.45045685577E+02  0.00000000000E+00 0. -1.
         11    1    3    3    0    0  0.13032402071E+01  0.62657950006E+01  0.51015806081E+01  0.81844209929E+01  0.51100000000E-03 0. -1.
        -11    1    3    3    0    0 -0.83462386762E+01  0.17430342772E+02  0.31078681213E+02  0.36597280983E+02  0.51100000000E-03 0.  1.
         12    1    3    3    0    0 -0.58208348271E+00  0.24880122303E+00  0.12043849054E+01  0.13606124466E+01  0.00000000000E+00 0. -1.
</event>
<event>
 7    1  0.1503436E-008  0.4614232E+02  0.7816164E-02  0.1320468E+00
        -11   -1    0    0    0    0  0.00000000000E+00  0.00000000000E+00  0.45593999997E+02  0.45594000000E+02  0.51100000000E-03 0.  1.
         11   -1    0    0    0    0 -0.00000000000E+00 -0.00000000000E+00 -0.45593999997E+02  0.45594000000E+02  0.51100000000E-03 0. -1.
    9900012    2    1    2    0    0 -0.29757355646E+02 -0.30993216449E+02  0.13529000859E+02  0.46142317131E+02  0.99999942516E+01 0.  0.
         12    1    1    2    0    0  0.29757355646E+02  0.30993216449E+02 -0.13529000859E+02  0.45045682869E+02  0.00000000000E+00 0. -1.
         11    1    3    3    0    0  0.29034224204E+00 -0.54297680131E+00  0.41656404302E-01  0.61713689034E+00  0.51100000000E-03 0. -1.
        -11    1    3    3    0    0 -0.29914083772E+02 -0.30901584462E+02  0.13384492102E+02  0.45043367539E+02  0.51100000000E-03 0.  1.
        -12    1    3    3    0    0 -0.13361411594E+00  0.45134481361E+00  0.10285235239E+00  0.48181270131E+00  0.00000000000E+00 0.  1.
</event>
<event>
 7    1  0.1503436E-008  0.4614232E+02  0.7816164E-02  0.1320468E+00
        -11   -1    0    0    0    0  0.00000000000E+00  0.00000000000E+00  0.45593999997E+02  0.45594000000E+02  0.51100000000E-03 0. -1.
         11   -1    0    0    0    0 -0.00000000000E+00 -0.00000000000E+00 -0.45593999997E+02  0.45594000000E+02  0.51100000000E-03 0.  1.
    9900012    2    1    2    0    0  0.13813866635E+00  0.27252420737E+02 -0.35866409737E+02  0.46142324673E+02  0.10000063024E+02 0.  0.
         12    1    1    2    0    0 -0.13813866635E+00 -0.27252420737E+02  0.35866409737E+02  0.45045675327E+02  0.00000000000E+00 0. -1.
         11    1    3    3    0    0 -0.32365415029E+01  0.13433862411E+02 -0.13986412694E+02  0.19661220728E+02  0.51100000000E-03 0. -1.
        -11    1    3    3    0    0  0.26871410929E+01  0.53700068391E+01 -0.12312814476E+02  0.13699018260E+02  0.51100000000E-03 0.  1.
        -12    1    3    3    0    0  0.68753907634E+00  0.84485514860E+01 -0.95671825670E+01  0.12782085685E+02  0.00000000000E+00 0.  1.
</event>
<event>
 7    1  0.1503436E-008  0.4614232E+02  0.7816164E-02  0.1320468E+00
        -11   -1    0    0    0    0  0.00000000000E+00  0.00000000000E+00  0.45593999997E+02  0.45594000000E+02  0.51100000000E-03 0. -1.
         11   -1    0    0    0    0 -0.00000000000E+00 -0.00000000000E+00 -0.45593999997E+02  0.45594000000E+02  0.51100000000E-03 0.  1.
    9900012    2    1    2    0    0 -0.53166174708E+01 -0.22486020414E+01 -0.44674276052E+02  0.46142316819E+02  0.99999914081E+01 0.  0.
         12    1    1    2    0    0  0.53166174708E+01  0.22486020414E+01  0.44674276052E+02  0.45045683181E+02  0.00000000000E+00 0. -1.
         11    1    3    3    0    0 -0.17320783709E+01 -0.32081307630E+01 -0.77542947046E+01  0.85686221239E+01  0.51100000000E-03 0. -1.
        -11    1    3    3    0    0 -0.45487940554E+00 -0.18741286235E+01 -0.21495922830E+02  0.21582260584E+02  0.51100000000E-03 0.  1.
         12    1    3    3    0    0 -0.31296596944E+01  0.28336573451E+01 -0.15424058518E+02  0.15991434111E+02  0.00000000000E+00 0. -1.
</event>
<event>
 7    1  0.1503436E-008  0.4614232E+02  0.7816164E-02  0.1320468E+00
        -11   -1    0    0    0    0  0.00000000000E+00  0.00000000000E+00  0.45593999997E+02  0.45594000000E+02  0.51100000000E-03 0. -1.
         11   -1    0    0    0    0 -0.00000000000E+00 -0.00000000000E+00 -0.45593999997E+02  0.45594000000E+02  0.51100000000E-03 0.  1.
    9900012    2    1    2    0    0  0.51356206117E+01 -0.44295600742E+02  0.63748515180E+01  0.46142316788E+02  0.99999911230E+01 0.  0.
         12    1    1    2    0    0 -0.51356206117E+01  0.44295600742E+02 -0.63748515180E+01  0.45045683212E+02  0.00000000000E+00 0. -1.
         11    1    3    3    0    0  0.39076563689E+01 -0.12623364115E+02 -0.17373191674E+01  0.13328067302E+02  0.51100000000E-03 0. -1.
        -11    1    3    3    0    0  0.25463436203E+00 -0.95219569777E+01  0.36330525931E+01  0.10194683651E+02  0.51100000000E-03 0.  1.
         12    1    3    3    0    0  0.97332988076E+00 -0.22150279650E+02  0.44791180923E+01  0.22619565834E+02  0.00000000000E+00 0. -1.
</event>
<event>
 7    1  0.1503436E-008  0.4614232E+02  0.7816164E-02  0.1320468E+00
        -11   -1    0    0    0    0  0.00000000000E+00  0.00000000000E+00  0.45593999997E+02  0.45594000000E+02  0.51100000000E-03 0. -1.
         11   -1    0    0    0    0 -0.00000000000E+00 -0.00000000000E+00 -0.45593999997E+02  0.45594000000E+02  0.51100000000E-03 0.  1.
    9900012    2    1    2    0    0  0.44173490096E+02 -0.69773451068E+01 -0.53974935232E+01  0.46142317539E+02  0.99999979791E+01 0.  0.
         12    1    1    2    0    0 -0.44173490096E+02  0.69773451068E+01  0.53974935232E+01  0.45045682461E+02  0.00000000000E+00 0. -1.
         11    1    3    3    0    0  0.96042252148E+01  0.77994109209E+00  0.10643250174E+00  0.96364297446E+01  0.51100000000E-03 0. -1.
        -11    1    3    3    0    0  0.11320612404E+02 -0.48772181365E+01  0.45000749083E+00  0.12334748841E+02  0.51100000000E-03 0.  1.
        -12    1    3    3    0    0  0.23248652477E+02 -0.28800680624E+01 -0.59539335157E+01  0.24171138954E+02  0.00000000000E+00 0.  1.
</event>
<event>
 7    1  0.1503436E-008  0.4614232E+02  0.7816164E-02  0.1320468E+00
        -11   -1    0    0    0    0  0.00000000000E+00  0.00000000000E+00  0.45593999997E+02  0.45594000000E+02  0.51100000000E-03 0.  1.
         11   -1    0    0    0    0 -0.00000000000E+00 -0.00000000000E+00 -0.45593999997E+02  0.45594000000E+02  0.51100000000E-03 0. -1.
    9900012    2    1    2    0    0 -0.14209557736E+02 -0.29965482133E+02  0.30483960836E+02  0.46142317423E+02  0.99999969196E+01 0.  0.
         12    1    1    2    0    0  0.14209557736E+02  0.29965482133E+02 -0.30483960836E+02  0.45045682577E+02  0.00000000000E+00 0. -1.
         11    1    3    3    0    0  0.58377044994E+00  0.52363452520E-01  0.15387426164E+01  0.16465901039E+01  0.51100000000E-03 0. -1.
        -11    1    3    3    0    0 -0.92397925588E+01 -0.17861341405E+02  0.14343434687E+02  0.24700919056E+02  0.51100000000E-03 0.  1.
        -12    1    3    3    0    0 -0.55535356268E+01 -0.12156504181E+02  0.14601783532E+02  0.19794808263E+02  0.00000000000E+00 0.  1.
</event>
<event>
 7    1  0.1503436E-008  0.4614232E+02  0.7816164E-02  0.1320468E+00
        -11   -1    0    0    0    0  0.00000000000E+00  0.00000000000E+00  0.45593999997E+02  0.45594000000E+02  0.51100000000E-03 0.  1.
         11   -1    0    0    0    0 -0.00000000000E+00 -0.00000000000E+00 -0.45593999997E+02  0.45594000000E+02  0.51100000000E-03 0. -1.
    9900012    2    1    2    0    0 -0.41191452279E+02  0.18190693762E+01  0.18140247212E+02  0.46142319595E+02  0.10000016719E+02 0.  0.
         12    1    1    2    0    0  0.41191452279E+02 -0.18190693762E+01 -0.18140247212E+02  0.45045680405E+02  0.00000000000E+00 0. -1.
         11    1    3    3    0    0 -0.93380475913E+01 -0.54546769469E+00  0.34472107352E+01  0.99689482865E+01  0.51100000000E-03 0. -1.
        -11    1    3    3    0    0 -0.28384998826E+01  0.25314896784E+01  0.38738111679E+00  0.38230336078E+01  0.51100000000E-03 0.  1.
        -12    1    3    3    0    0 -0.29014904805E+02 -0.16695260755E+00  0.14305655360E+02  0.32350337700E+02  0.00000000000E+00 0.  1.
</event>
<event>
 7    1  0.1503436E-008  0.4614231E+02  0.7816164E-02  0.1320468E+00
        -11   -1    0    0    0    0  0.00000000000E+00  0.00000000000E+00  0.45593999997E+02  0.45594000000E+02  0.51100000000E-03 0. -1.
         11   -1    0    0    0    0 -0.00000000000E+00 -0.00000000000E+00 -0.45593999997E+02  0.45594000000E+02  0.51100000000E-03 0.  1.
    9900012    2    1    2    0    0 -0.43475006847E+02  0.11638711468E+02  0.18915879844E+01  0.46142312858E+02  0.99999552922E+01 0.  0.
         12    1    1    2    0    0  0.43475006847E+02 -0.11638711468E+02 -0.18915879844E+01  0.45045687142E+02  0.00000000000E+00 0. -1.
         11    1    3    3    0    0 -0.40995908344E+02  0.10102911995E+02  0.36835535839E+01  0.42382801924E+02  0.51100000000E-03 0. -1.
        -11    1    3    3    0    0 -0.18530552401E+01  0.24349743272E+00 -0.10199261905E+01  0.21291675411E+01  0.51100000000E-03 0.  1.
         12    1    3    3    0    0 -0.62604326316E+00  0.12923020398E+01 -0.77203940896E+00  0.16303433928E+01  0.00000000000E+00 0. -1.
</event>
<event>
 7    1  0.1503436E-008  0.4614232E+02  0.7816164E-02  0.1320468E+00
        -11   -1    0    0    0    0  0.00000000000E+00  0.00000000000E+00  0.45593999997E+02  0.45594000000E+02  0.51100000000E-03 0. -1.
         11   -1    0    0    0    0 -0.00000000000E+00 -0.00000000000E+00 -0.45593999997E+02  0.45594000000E+02  0.51100000000E-03 0.  1.
    9900012    2    1    2    0    0 -0.15391247902E+02 -0.41666514969E+02 -0.74916313270E+01  0.46142317392E+02  0.99999966361E+01 0.  0.
         12    1    1    2    0    0  0.15391247902E+02  0.41666514969E+02  0.74916313270E+01  0.45045682608E+02  0.00000000000E+00 0. -1.
         11    1    3    3    0    0 -0.67080608237E+01 -0.18018608003E+02 -0.65473582063E+01  0.20310987522E+02  0.51100000000E-03 0. -1.
        -11    1    3    3    0    0 -0.41836163527E+01 -0.98925191241E+01  0.23353922854E+01  0.10991753172E+02  0.51100000000E-03 0.  1.
        -12    1    3    3    0    0 -0.44995707256E+01 -0.13755387842E+02 -0.32796654060E+01  0.14839576698E+02  0.00000000000E+00 0.  1.
</event>
<event>
 7    1  0.1503436E-008  0.4614230E+02  0.7816164E-02  0.1320468E+00
        -11   -1    0    0    0    0  0.00000000000E+00  0.00000000000E+00  0.45593999997E+02  0.45594000000E+02  0.51100000000E-03 0. -1.
         11   -1    0    0    0    0 -0.00000000000E+00 -0.00000000000E+00 -0.45593999997E+02  0.45594000000E+02  0.51100000000E-03 0.  1.
    9900012    2    1    2    0    0  0.27052984933E+02  0.35155591970E+02  0.78316696378E+01  0.46142304424E+02  0.99998783849E+01 0.  0.
         12    1    1    2    0    0 -0.27052984933E+02 -0.35155591970E+02 -0.78316696378E+01  0.45045695576E+02  0.00000000000E+00 0. -1.
         11    1    3    3    0    0  0.14348522978E+02  0.16738466833E+02  0.45871809429E+01  0.22518850166E+02  0.51100000000E-03 0. -1.
        -11    1    3    3    0    0  0.67820460286E+01  0.11128582737E+02 -0.14703398880E+01  0.13115006737E+02  0.51100000000E-03 0.  1.
         12    1    3    3    0    0  0.59224159269E+01  0.72885424007E+01  0.47148285829E+01  0.10508447521E+02  0.00000000000E+00 0. -1.
</event>
<event>
 7    1  0.1503436E-008  0.4614232E+02  0.7816164E-02  0.1320468E+00
        -11   -1    0    0    0    0  0.00000000000E+00  0.00000000000E+00  0.45593999997E+02  0.45594000000E+02  0.51100000000E-03 0.  1.
         11   -1    0    0    0    0 -0.00000000000E+00 -0.00000000000E+00 -0.45593999997E+02  0.45594000000E+02  0.51100000000E-03 0. -1.
    9900012    2    1    2    0    0  0.40586157220E+02  0.17784178418E+02  0.80993980828E+01  0.46142318640E+02  0.10000008016E+02 0.  0.
         12    1    1    2    0    0 -0.40586157220E+02 -0.17784178418E+02 -0.80993980828E+01  0.45045681360E+02  0.00000000000E+00 0. -1.
         11    1    3    3    0    0  0.14762334869E+00 -0.47309810219E+00 -0.50832260339E-01  0.49819539057E+00  0.51100000000E-03 0. -1.
        -11    1    3    3    0    0  0.33803355463E+02  0.14268380749E+02  0.41368629009E+01  0.36923802143E+02  0.51100000000E-03 0.  1.
        -12    1    3    3    0    0  0.66351784078E+01  0.39888957718E+01  0.40133674423E+01  0.87203211069E+01  0.00000000000E+00 0.  1.
</event>
<event>
 7    1  0.1503436E-008  0.4614232E+02  0.7816164E-02  0.1320468E+00
        -11   -1    0    0    0    0  0.00000000000E+00  0.00000000000E+00  0.45593999997E+02  0.45594000000E+02  0.51100000000E-03 0. -1.
         11   -1    0    0    0    0 -0.00000000000E+00 -0.00000000000E+00 -0.45593999997E+02  0.45594000000E+02  0.51100000000E-03 0.  1.
    9900012    2    1    2    0    0 -0.26613943518E+02  0.31318385554E+02 -0.18438282323E+02  0.46142317428E+02  0.99999969651E+01 0.  0.
         12    1    1    2    0    0  0.26613943518E+02 -0.31318385554E+02  0.18438282323E+02  0.45045682572E+02  0.00000000000E+00 0. -1.
         11    1    3    3    0    0 -0.41249990473E+01  0.44837708250E+01 -0.30019227691E+01  0.67920069585E+01  0.51100000000E-03 0. -1.
        -11    1    3    3    0    0 -0.11530437319E+02  0.16786945419E+02 -0.44029929170E+01  0.20835999332E+02  0.51100000000E-03 0.  1.
        -12    1    3    3    0    0 -0.10958507152E+02  0.10047669311E+02 -0.11033366637E+02  0.18514311138E+02  0.00000000000E+00 0.  1.
</event>
<event>
 7    1  0.1503436E-008  0.4614233E+02  0.7816164E-02  0.1320468E+00
        -11   -1    0    0    0    0  0.00000000000E+00  0.00000000000E+00  0.45593999997E+02  0.45594000000E+02  0.51100000000E-03 0.  1.
         11   -1    0    0    0    0 -0.00000000000E+00 -0.00000000000E+00 -0.45593999997E+02  0.45594000000E+02  0.51100000000E-03 0. -1.
    9900012    2    1    2    0    0  0.12318771227E+02 -0.42679372447E+02  0.74720602692E+01  0.46142327159E+02  0.10000085700E+02 0.  0.
         12    1    1    2    0    0 -0.12318771227E+02  0.42679372447E+02 -0.74720602692E+01  0.45045672841E+02  0.00000000000E+00 0. -1.
         11    1    3    3    0    0  0.12037347808E+01 -0.10174621801E+01  0.81015199192E+00  0.17721606083E+01  0.51100000000E-03 0. -1.
        -11    1    3    3    0    0  0.31250336520E+01 -0.19312109100E+02  0.65631667773E+01  0.20634886761E+02  0.51100000000E-03 0.  1.
        -12    1    3    3    0    0  0.79900027940E+01 -0.22349801166E+02  0.98741500011E-01  0.23735279790E+02  0.00000000000E+00 0.  1.
</event>
<event>
 7    1  0.1503436E-008  0.4614232E+02  0.7816164E-02  0.1320468E+00
        -11   -1    0    0    0    0  0.00000000000E+00  0.00000000000E+00  0.45593999997E+02  0.45594000000E+02  0.51100000000E-03 0.  1.
         11   -1    0    0    0    0 -0.00000000000E+00 -0.00000000000E+00 -0.45593999997E+02  0.45594000000E+02  0.51100000000E-03 0. -1.
    9900012    2    1    2    0    0 -0.27175939058E+02  0.10917345344E+02  0.34225624051E+02  0.46142318357E+02  0.10000005435E+02 0.  0.
         12    1    1    2    0    0  0.27175939058E+02 -0.10917345344E+02 -0.34225624051E+02  0.45045681643E+02  0.00000000000E+00 0. -1.
         11    1    3    3    0    0 -0.15122670340E+02  0.43248554048E+01  0.14530627450E+02  0.21413515985E+02  0.51100000000E-03 0. -1.
        -11    1    3    3    0    0 -0.81319546423E+01  0.18391566675E+01  0.82432037958E+01  0.11724401589E+02  0.51100000000E-03 0.  1.
         12    1    3    3    0    0 -0.39213140749E+01  0.47533332718E+01  0.11451792805E+02  0.13004400782E+02  0.00000000000E+00 0. -1.
</event>
<event>
 7    1  0.1503436E-008  0.4614232E+02  0.7816164E-02  0.1320468E+00
        -11   -1    0    0    0    0  0.00000000000E+00  0.00000000000E+00  0.45593999997E+02  0.45594000000E+02  0.51100000000E-03 0.  1.
         11   -1    0    0    0    0 -0.00000000000E+00 -0.00000000000E+00 -0.45593999997E+02  0.45594000000E+02  0.51100000000E-03 0. -1.
    9900012    2    1    2    0    0 -0.43974972529E+02 -0.70274498611E+01  0.67771834816E+01  0.46142317894E+02  0.10000001209E+02 0.  0.
         12    1    1    2    0    0  0.43974972529E+02  0.70274498611E+01 -0.67771834816E+01  0.45045682106E+02  0.00000000000E+00 0. -1.
         11    1    3    3    0    0 -0.85655432147E+01 -0.20598246106E+01  0.52043443040E+01  0.10232136037E+02  0.51100000000E-03 0. -1.
        -11    1    3    3    0    0 -0.99960925632E+01 -0.17780894243E+00  0.93842682644E+00  0.10041619776E+02  0.51100000000E-03 0.  1.
         12    1    3    3    0    0 -0.25413336751E+02 -0.47898163081E+01  0.63441235116E+00  0.25868562081E+02  0.00000000000E+00 0. -1.
</event>
<event>
 7    1  0.1503436E-008  0.4614232E+02  0.7816164E-02  0.1320468E+00
        -11   -1    0    0    0    0  0.00000000000E+00  0.00000000000E+00  0.45593999997E+02  0.45594000000E+02  0.51100000000E-03 0. -1.
         11   -1    0    0    0    0 -0.00000000000E+00 -0.00000000000E+00 -0.45593999997E+02  0.45594000000E+02  0.51100000000E-03 0.  1.
    9900012    2    1    2    0    0 -0.32604074842E+02 -0.20161728766E+02 -0.23655708142E+02  0.46142317289E+02  0.99999956989E+01 0.  0.
         12    1    1    2    0    0  0.32604074842E+02  0.20161728766E+02  0.23655708142E+02  0.45045682711E+02  0.00000000000E+00 0. -1.
         11    1    3    3    0    0 -0.12762110086E+02 -0.76104445676E+01 -0.13155664414E+02  0.19845952403E+02  0.51100000000E-03 0. -1.
        -11    1    3    3    0    0 -0.15723796286E+02 -0.72463077407E+01 -0.65882947140E+01  0.18524372406E+02  0.51100000000E-03 0.  1.
        -12    1    3    3    0    0 -0.41181684703E+01 -0.53049764579E+01 -0.39117490140E+01  0.77719924805E+01  0.00000000000E+00 0.  1.
</event>
<event>
 7    1  0.1503436E-008  0.4614232E+02  0.7816164E-02  0.1320468E+00
        -11   -1    0    0    0    0  0.00000000000E+00  0.00000000000E+00  0.45593999997E+02  0.45594000000E+02  0.51100000000E-03 0.  1.
         11   -1    0    0    0    0 -0.00000000000E+00 -0.00000000000E+00 -0.45593999997E+02  0.45594000000E+02  0.51100000000E-03 0. -1.
    9900012    2    1    2    0    0 -0.12405091038E+01  0.11571663086E+01  0.45013726593E+02  0.46142317871E+02  0.10000001001E+02 0.  0.
         12    1    1    2    0    0  0.12405091038E+01 -0.11571663086E+01 -0.45013726593E+02  0.45045682129E+02  0.00000000000E+00 0. -1.
         11    1    3    3    0    0  0.25863985312E+01  0.30445208742E+01  0.11163085121E+02  0.11856349961E+02  0.51100000000E-03 0. -1.
        -11    1    3    3    0    0  0.42823135391E+00  0.39004586932E+00  0.51360880685E+01  0.51686476743E+01  0.51100000000E-03 0.  1.
         12    1    3    3    0    0 -0.42551389889E+01 -0.22774004349E+01  0.28714553403E+02  0.29117320236E+02  0.00000000000E+00 0. -1.
</event>
<event>
 7    1  0.1503436E-008  0.4614232E+02  0.7816164E-02  0.1320468E+00
        -11   -1    0    0    0    0  0.00000000000E+00  0.00000000000E+00  0.45593999997E+02  0.45594000000E+02  0.51100000000E-03 0. -1.
         11   -1    0    0    0    0 -0.00000000000E+00 -0.00000000000E+00 -0.45593999997E+02  0.45594000000E+02  0.51100000000E-03 0.  1.
    9900012    2    1    2    0    0  0.25819086997E+02 -0.10337429657E+02 -0.35434812506E+02  0.46142316049E+02  0.99999843837E+01 0.  0.
         12    1    1    2    0    0 -0.25819086997E+02  0.10337429657E+02  0.35434812506E+02  0.45045683951E+02  0.00000000000E+00 0. -1.
         11    1    3    3    0    0  0.13986790918E+02 -0.54478420570E+01 -0.17078659336E+02  0.22737412083E+02  0.51100000000E-03 0.  1.
        -11    1    3    3    0    0  0.45242889228E+01 -0.54928862178E+01 -0.78840347218E+01  0.10620687031E+02  0.51100000000E-03 0. -1.
        -12    1    3    3    0    0  0.73080071563E+01  0.60329861762E+00 -0.10472118449E+02  0.12784216934E+02  0.00000000000E+00 0.  1.
</event>
<event>
 7    1  0.1503436E-008  0.4614232E+02  0.7816164E-02  0.1320468E+00
        -11   -1    0    0    0    0  0.00000000000E+00  0.00000000000E+00  0.45593999997E+02  0.45594000000E+02  0.51100000000E-03 0.  1.
         11   -1    0    0    0    0 -0.00000000000E+00 -0.00000000000E+00 -0.45593999997E+02  0.45594000000E+02  0.51100000000E-03 0. -1.
    9900012    2    1    2    0    0  0.58144099176E+01 -0.38719318859E+02  0.22273764113E+02  0.46142316707E+02  0.99999903864E+01 0.  0.
         12    1    1    2    0    0 -0.58144099176E+01  0.38719318859E+02 -0.22273764113E+02  0.45045683293E+02  0.00000000000E+00 0. -1.
         11    1    3    3    0    0  0.27530642953E+01 -0.60272610221E+01  0.35721418867E+01  0.75277776510E+01  0.51100000000E-03 0. -1.
        -11    1    3    3    0    0  0.39476887994E+01 -0.18400761672E+02  0.14295113203E+02  0.23633081448E+02  0.51100000000E-03 0.  1.
        -12    1    3    3    0    0 -0.88634317713E+00 -0.14291296165E+02  0.44065090237E+01  0.14981457608E+02  0.00000000000E+00 0.  1.
</event>
<event>
 7    1  0.1503436E-008  0.4614232E+02  0.7816164E-02  0.1320468E+00
        -11   -1    0    0    0    0  0.00000000000E+00  0.00000000000E+00  0.45593999997E+02  0.45594000000E+02  0.51100000000E-03 0. -1.
         11   -1    0    0    0    0 -0.00000000000E+00 -0.00000000000E+00 -0.45593999997E+02  0.45594000000E+02  0.51100000000E-03 0.  1.
    9900012    2    1    2    0    0  0.33616478357E+02  0.22399747900E+02  0.19932313872E+02  0.46142318083E+02  0.10000002934E+02 0.  0.
         12    1    1    2    0    0 -0.33616478357E+02 -0.22399747900E+02 -0.19932313872E+02  0.45045681917E+02  0.00000000000E+00 0. -1.
         11    1    3    3    0    0 -0.73318137900E-01  0.39768338994E+00  0.26719724495E+00  0.48468779313E+00  0.51100000000E-03 0. -1.
        -11    1    3    3    0    0  0.88819698885E+01  0.55264569980E+01  0.96670418365E+01  0.14243693839E+02  0.51100000000E-03 0.  1.
        -12    1    3    3    0    0  0.24807826606E+02  0.16475607512E+02  0.99980747901E+01  0.31413936451E+02  0.00000000000E+00 0.  1.
</event>
<event>
 7    1  0.1503436E-008  0.4614232E+02  0.7816164E-02  0.1320468E+00
        -11   -1    0    0    0    0  0.00000000000E+00  0.00000000000E+00  0.45593999997E+02  0.45594000000E+02  0.51100000000E-03 0.  1.
         11   -1    0    0    0    0 -0.00000000000E+00 -0.00000000000E+00 -0.45593999997E+02  0.45594000000E+02  0.51100000000E-03 0. -1.
    9900012    2    1    2    0    0 -0.16281363839E+02  0.31098358071E+02  0.28229821951E+02  0.46142317293E+02  0.99999957310E+01 0.  0.
         12    1    1    2    0    0  0.16281363839E+02 -0.31098358071E+02 -0.28229821951E+02  0.45045682707E+02  0.00000000000E+00 0. -1.
         11    1    3    3    0    0 -0.20703353346E+01  0.13668991289E+01 -0.27917508008E+00  0.24965257084E+01  0.51100000000E-03 0. -1.
        -11    1    3    3    0    0 -0.65297523637E+01  0.11532367508E+02  0.12531850421E+02  0.18239529641E+02  0.51100000000E-03 0.  1.
         12    1    3    3    0    0 -0.76812761408E+01  0.18199091434E+02  0.15977146610E+02  0.25406261944E+02  0.00000000000E+00 0. -1.
</event>
<event>
 7    1  0.1503436E-008  0.4614232E+02  0.7816164E-02  0.1320468E+00
        -11   -1    0    0    0    0  0.00000000000E+00  0.00000000000E+00  0.45593999997E+02  0.45594000000E+02  0.51100000000E-03 0. -1.
         11   -1    0    0    0    0 -0.00000000000E+00 -0.00000000000E+00 -0.45593999997E+02  0.45594000000E+02  0.51100000000E-03 0.  1.
    9900012    2    1    2    0    0  0.26072782540E+02 -0.36179871417E+02  0.63514096285E+01  0.46142317750E+02  0.99999998984E+01 0.  0.
         12    1    1    2    0    0 -0.26072782540E+02  0.36179871417E+02 -0.63514096285E+01  0.45045682250E+02  0.00000000000E+00 0. -1.
         11    1    3    3    0    0 -0.26399064632E+00  0.14840206075E+00  0.22967567071E+00  0.38008605318E+00  0.51100000000E-03 0. -1.
        -11    1    3    3    0    0  0.69351149839E+01 -0.57062204053E+01  0.25488184743E+01  0.93355903418E+01  0.51100000000E-03 0.  1.
        -12    1    3    3    0    0  0.19401658202E+02 -0.30622053072E+02  0.35729154834E+01  0.36426641355E+02  0.00000000000E+00 0.  1.
</event>
<event>
 7    1  0.1503436E-008  0.4614232E+02  0.7816164E-02  0.1320468E+00
        -11   -1    0    0    0    0  0.00000000000E+00  0.00000000000E+00  0.45593999997E+02  0.45594000000E+02  0.51100000000E-03 0.  1.
         11   -1    0    0    0    0 -0.00000000000E+00 -0.00000000000E+00 -0.45593999997E+02  0.45594000000E+02  0.51100000000E-03 0. -1.
    9900012    2    1    2    0    0 -0.12151558356E+02  0.41465586260E+02  0.12730210501E+02  0.46142317924E+02  0.10000001482E+02 0.  0.
         12    1    1    2    0    0  0.12151558356E+02 -0.41465586260E+02 -0.12730210501E+02  0.45045682076E+02  0.00000000000E+00 0. -1.
         11    1    3    3    0    0 -0.67065491147E+01  0.11475361034E+02  0.44650186605E+01  0.14021344579E+02  0.51100000000E-03 0. -1.
        -11    1    3    3    0    0 -0.44367568779E+00  0.18513549709E+02  0.50831215746E+01  0.19203814625E+02  0.51100000000E-03 0.  1.
         12    1    3    3    0    0 -0.50013335539E+01  0.11476675516E+02  0.31820702658E+01  0.12917158720E+02  0.00000000000E+00 0. -1.
</event>
<event>
 7    1  0.1757312E-008  0.4614232E+02  0.7816164E-02  0.1320468E+00
        -11   -1    0    0    0    0  0.00000000000E+00  0.00000000000E+00  0.45593999997E+02  0.45594000000E+02  0.51100000000E-03 0.  1.
         11   -1    0    0    0    0 -0.00000000000E+00 -0.00000000000E+00 -0.45593999997E+02  0.45594000000E+02  0.51100000000E-03 0. -1.
    9900012    2    1    2    0    0  0.15314634326E+02  0.31175812038E+02  0.28681772092E+02  0.46142319507E+02  0.10000015920E+02 0.  0.
         12    1    1    2    0    0 -0.15314634326E+02 -0.31175812038E+02 -0.28681772092E+02  0.45045680493E+02  0.00000000000E+00 0. -1.
         11    1    3    3    0    0 -0.32268995877E-01  0.31169742521E+01  0.54273682168E+01  0.62588254327E+01  0.51100000000E-03 0. -1.
        -11    1    3    3    0    0  0.15412906657E+02  0.26451753148E+02  0.21043643968E+02  0.37149534155E+02  0.51100000000E-03 0.  1.
        -12    1    3    3    0    0 -0.66003334948E-01  0.16070846380E+01  0.22107599074E+01  0.27339599196E+01  0.00000000000E+00 0.  1.
</event>
<event>
 7    1  0.1503436E-008  0.4614232E+02  0.7816164E-02  0.1320468E+00
        -11   -1    0    0    0    0  0.00000000000E+00  0.00000000000E+00  0.45593999997E+02  0.45594000000E+02  0.51100000000E-03 0.  1.
         11   -1    0    0    0    0 -0.00000000000E+00 -0.00000000000E+00 -0.45593999997E+02  0.45594000000E+02  0.51100000000E-03 0. -1.
    9900012    2    1    2    0    0 -0.22027776916E+02  0.35485473916E+02  0.16872213225E+02  0.46142318809E+02  0.10000009554E+02 0.  0.
         12    1    1    2    0    0  0.22027776916E+02 -0.35485473916E+02 -0.16872213225E+02  0.45045681191E+02  0.00000000000E+00 0. -1.
         11    1    3    3    0    0 -0.15529130870E+02  0.18767053066E+02  0.63546454660E+01  0.25174147565E+02  0.51100000000E-03 0. -1.
        -11    1    3    3    0    0 -0.66320512554E+01  0.14895259511E+02  0.96241844152E+01  0.18933509597E+02  0.51100000000E-03 0.  1.
         12    1    3    3    0    0  0.13340520997E+00  0.18231613383E+01  0.89338334392E+00  0.20346616463E+01  0.00000000000E+00 0. -1.
</event>
<event>
 7    1  0.1503436E-008  0.4614232E+02  0.7816164E-02  0.1320468E+00
        -11   -1    0    0    0    0  0.00000000000E+00  0.00000000000E+00  0.45593999997E+02  0.45594000000E+02  0.51100000000E-03 0.  1.
         11   -1    0    0    0    0 -0.00000000000E+00 -0.00000000000E+00 -0.45593999997E+02  0.45594000000E+02  0.51100000000E-03 0. -1.
    9900012    2    1    2    0    0  0.13197733525E+02 -0.16500395066E+02  0.39782788778E+02  0.46142317738E+02  0.99999997874E+01 0.  0.
         12    1    1    2    0    0 -0.13197733525E+02  0.16500395066E+02 -0.39782788778E+02  0.45045682262E+02  0.00000000000E+00 0. -1.
         11    1    3    3    0    0 -0.44348561626E-01  0.50114382453E+00  0.97424353686E+00  0.10964773860E+01  0.51100000000E-03 0. -1.
        -11    1    3    3    0    0  0.10873825577E+02 -0.82793016355E+01  0.25945827622E+02  0.29325294363E+02  0.51100000000E-03 0.  1.
        -12    1    3    3    0    0  0.23682565098E+01 -0.87222372552E+01  0.12862717619E+02  0.15720545989E+02  0.00000000000E+00 0.  1.
</event>
<event>
 7    1  0.1503436E-008  0.4614232E+02  0.7816164E-02  0.1320468E+00
        -11   -1    0    0    0    0  0.00000000000E+00  0.00000000000E+00  0.45593999997E+02  0.45594000000E+02  0.51100000000E-03 0.  1.
         11   -1    0    0    0    0 -0.00000000000E+00 -0.00000000000E+00 -0.45593999997E+02  0.45594000000E+02  0.51100000000E-03 0. -1.
    9900012    2    1    2    0    0  0.58168743372E+01  0.11093030822E+01  0.44654750914E+02  0.46142319191E+02  0.10000013040E+02 0.  0.
         12    1    1    2    0    0 -0.58168743372E+01 -0.11093030822E+01 -0.44654750914E+02  0.45045680809E+02  0.00000000000E+00 0. -1.
         11    1    3    3    0    0  0.31017719608E+01  0.27672002190E+00  0.18560075882E+02  0.18819510628E+02  0.51100000000E-03 0.  1.
        -11    1    3    3    0    0 -0.22096584505E+01  0.16026761271E+00  0.15037676971E+02  0.15200000169E+02  0.51100000000E-03 0. -1.
         12    1    3    3    0    0  0.49247608269E+01  0.67231544760E+00  0.11056998061E+02  0.12122808395E+02  0.00000000000E+00 0. -1.
</event>
<event>
 7    1  0.1503436E-008  0.4614232E+02  0.7816164E-02  0.1320468E+00
        -11   -1    0    0    0    0  0.00000000000E+00  0.00000000000E+00  0.45593999997E+02  0.45594000000E+02  0.51100000000E-03 0.  1.
         11   -1    0    0    0    0 -0.00000000000E+00 -0.00000000000E+00 -0.45593999997E+02  0.45594000000E+02  0.51100000000E-03 0. -1.
    9900012    2    1    2    0    0 -0.28713740954E+02 -0.21076686785E+02  0.27575494547E+02  0.46142317133E+02  0.99999942718E+01 0.  0.
         12    1    1    2    0    0  0.28713740954E+02  0.21076686785E+02 -0.27575494547E+02  0.45045682867E+02  0.00000000000E+00 0. -1.
         11    1    3    3    0    0  0.59398300161E+00  0.26583751505E+00  0.34904326751E+00  0.73845572266E+00  0.51100000000E-03 0. -1.
        -11    1    3    3    0    0 -0.61634377463E+01 -0.52862671127E+01  0.70705827035E+01  0.10766880926E+02  0.51100000000E-03 0.  1.
         12    1    3    3    0    0 -0.23144286210E+02 -0.16056257188E+02  0.20155868576E+02  0.34636980485E+02  0.00000000000E+00 0. -1.
</event>
<event>
 7    1  0.1503436E-008  0.4614231E+02  0.7816164E-02  0.1320468E+00
        -11   -1    0    0    0    0  0.00000000000E+00  0.00000000000E+00  0.45593999997E+02  0.45594000000E+02  0.51100000000E-03 0.  1.
         11   -1    0    0    0    0 -0.00000000000E+00 -0.00000000000E+00 -0.45593999997E+02  0.45594000000E+02  0.51100000000E-03 0. -1.
    9900012    2    1    2    0    0  0.31503241071E+02  0.20771459552E+02  0.24600938046E+02  0.46142313385E+02  0.99999600945E+01 0.  0.
         12    1    1    2    0    0 -0.31503241071E+02 -0.20771459552E+02 -0.24600938046E+02  0.45045686615E+02  0.00000000000E+00 0. -1.
         11    1    3    3    0    0  0.17232519461E+02  0.92644912109E+01  0.15288854013E+02  0.24830215096E+02  0.51100000000E-03 0. -1.
        -11    1    3    3    0    0  0.38320019153E+01  0.66081658557E+01  0.37505554453E+01  0.85099213313E+01  0.51100000000E-03 0.  1.
        -12    1    3    3    0    0  0.10438719694E+02  0.48988024859E+01  0.55615285869E+01  0.12802176958E+02  0.00000000000E+00 0.  1.
</event>
<event>
 7    1  0.1503436E-008  0.4614232E+02  0.7816164E-02  0.1320468E+00
        -11   -1    0    0    0    0  0.00000000000E+00  0.00000000000E+00  0.45593999997E+02  0.45594000000E+02  0.51100000000E-03 0.  1.
         11   -1    0    0    0    0 -0.00000000000E+00 -0.00000000000E+00 -0.45593999997E+02  0.45594000000E+02  0.51100000000E-03 0. -1.
    9900012    2    1    2    0    0  0.10248337498E+02  0.16371136208E+02  0.40694852491E+02  0.46142317172E+02  0.99999946258E+01 0.  0.
         12    1    1    2    0    0 -0.10248337498E+02 -0.16371136208E+02 -0.40694852491E+02  0.45045682828E+02  0.00000000000E+00 0. -1.
         11    1    3    3    0    0 -0.14118494451E+01  0.11163630348E+01  0.29461258320E+01  0.34524256632E+01  0.51100000000E-03 0. -1.
        -11    1    3    3    0    0  0.10339881463E+02  0.11516180214E+02  0.25645131287E+02  0.29953435769E+02  0.51100000000E-03 0.  1.
        -12    1    3    3    0    0  0.13203054802E+01  0.37385929587E+01  0.12103595372E+02  0.12736455739E+02  0.00000000000E+00 0.  1.
</event>
<event>
 7    1  0.1503436E-008  0.4614232E+02  0.7816164E-02  0.1320468E+00
        -11   -1    0    0    0    0  0.00000000000E+00  0.00000000000E+00  0.45593999997E+02  0.45594000000E+02  0.51100000000E-03 0. -1.
         11   -1    0    0    0    0 -0.00000000000E+00 -0.00000000000E+00 -0.45593999997E+02  0.45594000000E+02  0.51100000000E-03 0.  1.
    9900012    2    1    2    0    0 -0.32440401688E+02 -0.20986807257E+02 -0.23157887662E+02  0.46142317615E+02  0.99999986700E+01 0.  0.
         12    1    1    2    0    0  0.32440401688E+02  0.20986807257E+02  0.23157887662E+02  0.45045682385E+02  0.00000000000E+00 0. -1.
         11    1    3    3    0    0 -0.67355846481E+01 -0.37701417808E+01 -0.64457021464E+00  0.77458079386E+01  0.51100000000E-03 0. -1.
        -11    1    3    3    0    0 -0.14093127214E+02 -0.85848824808E+01 -0.10218585350E+02  0.19409686466E+02  0.51100000000E-03 0.  1.
         12    1    3    3    0    0 -0.11611689826E+02 -0.86317829955E+01 -0.12294732097E+02  0.18986823211E+02  0.00000000000E+00 0. -1.
</event>
<event>
 7    1  0.1503436E-008  0.4614232E+02  0.7816164E-02  0.1320468E+00
        -11   -1    0    0    0    0  0.00000000000E+00  0.00000000000E+00  0.45593999997E+02  0.45594000000E+02  0.51100000000E-03 0.  1.
         11   -1    0    0    0    0 -0.00000000000E+00 -0.00000000000E+00 -0.45593999997E+02  0.45594000000E+02  0.51100000000E-03 0. -1.
    9900012    2    1    2    0    0  0.16168144934E+02 -0.39463541603E+01  0.41858462209E+02  0.46142317851E+02  0.10000000822E+02 0.  0.
         12    1    1    2    0    0 -0.16168144934E+02  0.39463541603E+01 -0.41858462209E+02  0.45045682149E+02  0.00000000000E+00 0. -1.
         11    1    3    3    0    0  0.12162741612E+02 -0.36529528997E+01  0.25147658486E+02  0.28172345944E+02  0.51100000000E-03 0. -1.
        -11    1    3    3    0    0  0.49319089481E+01 -0.98708175854E-01  0.95686149320E+01  0.10765308224E+02  0.51100000000E-03 0.  1.
         12    1    3    3    0    0 -0.92650562542E+00 -0.19469308478E+00  0.71421887904E+01  0.72046636832E+01  0.00000000000E+00 0. -1.
</event>
<event>
 7    1  0.1503436E-008  0.4614232E+02  0.7816164E-02  0.1320468E+00
        -11   -1    0    0    0    0  0.00000000000E+00  0.00000000000E+00  0.45593999997E+02  0.45594000000E+02  0.51100000000E-03 0. -1.
         11   -1    0    0    0    0 -0.00000000000E+00 -0.00000000000E+00 -0.45593999997E+02  0.45594000000E+02  0.51100000000E-03 0.  1.
    9900012    2    1    2    0    0 -0.65765452191E+01  0.41212299209E+02 -0.16953141559E+02  0.46142316946E+02  0.99999925660E+01 0.  0.
         12    1    1    2    0    0  0.65765452191E+01 -0.41212299209E+02  0.16953141559E+02  0.45045683054E+02  0.00000000000E+00 0. -1.
         11    1    3    3    0    0 -0.34235510683E+01  0.14677237132E+02 -0.30896068464E+01  0.15384656723E+02  0.51100000000E-03 0.  1.
        -11    1    3    3    0    0  0.11903917736E+01  0.46532287694E+01 -0.44378314276E+01  0.65394127103E+01  0.51100000000E-03 0. -1.
        -12    1    3    3    0    0 -0.43433859244E+01  0.21881833307E+02 -0.94257032849E+01  0.24218247513E+02  0.00000000000E+00 0.  1.
</event>
<event>
 7    1  0.1503436E-008  0.4614232E+02  0.7816164E-02  0.1320468E+00
        -11   -1    0    0    0    0  0.00000000000E+00  0.00000000000E+00  0.45593999997E+02  0.45594000000E+02  0.51100000000E-03 0.  1.
         11   -1    0    0    0    0 -0.00000000000E+00 -0.00000000000E+00 -0.45593999997E+02  0.45594000000E+02  0.51100000000E-03 0. -1.
    9900012    2    1    2    0    0 -0.16024716721E+02 -0.41821646550E+02 -0.48240873932E+01  0.46142317795E+02  0.10000000312E+02 0.  0.
         12    1    1    2    0    0  0.16024716721E+02  0.41821646550E+02  0.48240873932E+01  0.45045682205E+02  0.00000000000E+00 0. -1.
         11    1    3    3    0    0 -0.21667073014E+01 -0.55541500859E+01  0.20424940001E+01  0.63019826807E+01  0.51100000000E-03 0.  1.
        -11    1    3    3    0    0 -0.71024213554E+01 -0.25764191062E+02 -0.54109687576E+01  0.27267499213E+02  0.51100000000E-03 0. -1.
         12    1    3    3    0    0 -0.67555880642E+01 -0.10503305402E+02 -0.14556126358E+01  0.12572835901E+02  0.00000000000E+00 0. -1.
</event>
<event>
 7    1  0.1503436E-008  0.4614232E+02  0.7816164E-02  0.1320468E+00
        -11   -1    0    0    0    0  0.00000000000E+00  0.00000000000E+00  0.45593999997E+02  0.45594000000E+02  0.51100000000E-03 0. -1.
         11   -1    0    0    0    0 -0.00000000000E+00 -0.00000000000E+00 -0.45593999997E+02  0.45594000000E+02  0.51100000000E-03 0.  1.
    9900012    2    1    2    0    0 -0.25053767094E+02  0.33669806015E+02 -0.16363573698E+02  0.46142316223E+02  0.99999859783E+01 0.  0.
         12    1    1    2    0    0  0.25053767094E+02 -0.33669806015E+02  0.16363573698E+02  0.45045683777E+02  0.00000000000E+00 0. -1.
         11    1    3    3    0    0 -0.16201823385E+02  0.25316697065E+02 -0.10322476903E+02  0.31780304608E+02  0.51100000000E-03 0. -1.
        -11    1    3    3    0    0 -0.62007875625E+01  0.47837323206E+01 -0.60815258746E+01  0.99155846289E+01  0.51100000000E-03 0.  1.
         12    1    3    3    0    0 -0.26511561466E+01  0.35693766293E+01  0.40429079286E-01  0.44464269865E+01  0.00000000000E+00 0. -1.
</event>
<event>
 7    1  0.1503436E-008  0.4614232E+02  0.7816164E-02  0.1320468E+00
        -11   -1    0    0    0    0  0.00000000000E+00  0.00000000000E+00  0.45593999997E+02  0.45594000000E+02  0.51100000000E-03 0. -1.
         11   -1    0    0    0    0 -0.00000000000E+00 -0.00000000000E+00 -0.45593999997E+02  0.45594000000E+02  0.51100000000E-03 0.  1.
    9900012    2    1    2    0    0  0.22026042705E+02 -0.14410326850E+02 -0.36555559158E+02  0.46142323375E+02  0.10000051196E+02 0.  0.
         12    1    1    2    0    0 -0.22026042705E+02  0.14410326850E+02  0.36555559158E+02  0.45045676625E+02  0.00000000000E+00 0. -1.
         11    1    3    3    0    0  0.79051713121E+01 -0.50108132601E+01 -0.20132146577E+02  0.22201425834E+02  0.51100000000E-03 0. -1.
        -11    1    3    3    0    0  0.81114537402E+01 -0.71675460712E+01 -0.85896765694E+01  0.13818536185E+02  0.51100000000E-03 0.  1.
        -12    1    3    3    0    0  0.60094176529E+01 -0.22319675187E+01 -0.78337360121E+01  0.10122361357E+02  0.00000000000E+00 0.  1.
</event>
<event>
 7    1  0.1503436E-008  0.4614232E+02  0.7816164E-02  0.1320468E+00
        -11   -1    0    0    0    0  0.00000000000E+00  0.00000000000E+00  0.45593999997E+02  0.45594000000E+02  0.51100000000E-03 0.  1.
         11   -1    0    0    0    0 -0.00000000000E+00 -0.00000000000E+00 -0.45593999997E+02  0.45594000000E+02  0.51100000000E-03 0. -1.
    9900012    2    1    2    0    0 -0.22735166844E+02 -0.24498027056E+01  0.38810104216E+02  0.46142317255E+02  0.99999953851E+01 0.  0.
         12    1    1    2    0    0  0.22735166844E+02  0.24498027056E+01 -0.38810104216E+02  0.45045682745E+02  0.00000000000E+00 0. -1.
         11    1    3    3    0    0 -0.34251386034E+01  0.70753354877E-01  0.21798687433E+01  0.40605921353E+01  0.51100000000E-03 0. -1.
        -11    1    3    3    0    0 -0.42560199310E+01 -0.27030322902E+01  0.14190360720E+02  0.15059429831E+02  0.51100000000E-03 0.  1.
        -12    1    3    3    0    0 -0.15054008309E+02  0.18247622974E+00  0.22439874753E+02  0.27022295289E+02  0.00000000000E+00 0.  1.
</event>
<event>
 7    1  0.1503436E-008  0.4614232E+02  0.7816164E-02  0.1320468E+00
        -11   -1    0    0    0    0  0.00000000000E+00  0.00000000000E+00  0.45593999997E+02  0.45594000000E+02  0.51100000000E-03 0.  1.
         11   -1    0    0    0    0 -0.00000000000E+00 -0.00000000000E+00 -0.45593999997E+02  0.45594000000E+02  0.51100000000E-03 0. -1.
    9900012    2    1    2    0    0 -0.16134079199E+02 -0.19384447326E+02  0.37323560684E+02  0.46142317722E+02  0.99999996478E+01 0.  0.
         12    1    1    2    0    0  0.16134079199E+02  0.19384447326E+02 -0.37323560684E+02  0.45045682278E+02  0.00000000000E+00 0. -1.
         11    1    3    3    0    0 -0.36466234805E+00 -0.12070748714E+00  0.44908986650E+01  0.45072963078E+01  0.51100000000E-03 0. -1.
        -11    1    3    3    0    0 -0.45595169070E-01 -0.10784587778E+01  0.37511737254E+01  0.39033904281E+01  0.51100000000E-03 0.  1.
        -12    1    3    3    0    0 -0.15723821682E+02 -0.18185281061E+02  0.29081488293E+02  0.37731630987E+02  0.00000000000E+00 0.  1.
</event>
<event>
 7    1  0.1503436E-008  0.4614232E+02  0.7816164E-02  0.1320468E+00
        -11   -1    0    0    0    0  0.00000000000E+00  0.00000000000E+00  0.45593999997E+02  0.45594000000E+02  0.51100000000E-03 0.  1.
         11   -1    0    0    0    0 -0.00000000000E+00 -0.00000000000E+00 -0.45593999997E+02  0.45594000000E+02  0.51100000000E-03 0. -1.
    9900012    2    1    2    0    0 -0.25343273877E+01  0.39401533728E+01  0.44801405300E+02  0.46142317180E+02  0.99999946991E+01 0.  0.
         12    1    1    2    0    0  0.25343273877E+01 -0.39401533728E+01 -0.44801405300E+02  0.45045682820E+02  0.00000000000E+00 0. -1.
         11    1    3    3    0    0  0.16984503041E+01 -0.83503830434E+00  0.25007862431E+02  0.25079378103E+02  0.51100000000E-03 0. -1.
        -11    1    3    3    0    0 -0.30609697035E+01  0.47589851915E+01  0.18355436281E+02  0.19207798336E+02  0.51100000000E-03 0.  1.
         12    1    3    3    0    0 -0.11718079883E+01  0.16206485639E-01  0.14381065878E+01  0.18551407411E+01  0.00000000000E+00 0. -1.
</event>
<event>
 7    1  0.1503436E-008  0.4614232E+02  0.7816164E-02  0.1320468E+00
        -11   -1    0    0    0    0  0.00000000000E+00  0.00000000000E+00  0.45593999997E+02  0.45594000000E+02  0.51100000000E-03 0.  1.
         11   -1    0    0    0    0 -0.00000000000E+00 -0.00000000000E+00 -0.45593999997E+02  0.45594000000E+02  0.51100000000E-03 0. -1.
    9900012    2    1    2    0    0  0.31482336019E+02  0.10628357781E+02  0.30414041963E+02  0.46142318532E+02  0.10000007030E+02 0.  0.
         12    1    1    2    0    0 -0.31482336019E+02 -0.10628357781E+02 -0.30414041963E+02  0.45045681468E+02  0.00000000000E+00 0. -1.
         11    1    3    3    0    0 -0.32621828068E+00 -0.78484583891E-01  0.46920740740E-02  0.33555993986E+00  0.51100000000E-03 0. -1.
        -11    1    3    3    0    0  0.15858647740E+02  0.73451052274E+01  0.19535851250E+02  0.26212530653E+02  0.51100000000E-03 0.  1.
         12    1    3    3    0    0  0.15949906560E+02  0.33617371377E+01  0.10873498640E+02  0.19594227939E+02  0.00000000000E+00 0. -1.
</event>
<event>
 7    1  0.1503436E-008  0.4614232E+02  0.7816164E-02  0.1320468E+00
        -11   -1    0    0    0    0  0.00000000000E+00  0.00000000000E+00  0.45593999997E+02  0.45594000000E+02  0.51100000000E-03 0. -1.
         11   -1    0    0    0    0 -0.00000000000E+00 -0.00000000000E+00 -0.45593999997E+02  0.45594000000E+02  0.51100000000E-03 0.  1.
    9900012    2    1    2    0    0 -0.37734394175E+02  0.38871677468E+01 -0.24292363201E+02  0.46142317779E+02  0.10000000166E+02 0.  0.
         12    1    1    2    0    0  0.37734394175E+02 -0.38871677468E+01  0.24292363201E+02  0.45045682221E+02  0.00000000000E+00 0. -1.
         11    1    3    3    0    0 -0.53956863116E+01  0.90707521925E+00 -0.73119475924E+01  0.91324035216E+01  0.51100000000E-03 0. -1.
        -11    1    3    3    0    0 -0.14407943678E+02  0.99640947089E+00 -0.47049524056E+01  0.15189412440E+02  0.51100000000E-03 0.  1.
        -12    1    3    3    0    0 -0.17930764185E+02  0.19836830567E+01 -0.12275463203E+02  0.21820501818E+02  0.00000000000E+00 0.  1.
</event>
<event>
 7    1  0.1503436E-008  0.4614232E+02  0.7816164E-02  0.1320468E+00
        -11   -1    0    0    0    0  0.00000000000E+00  0.00000000000E+00  0.45593999997E+02  0.45594000000E+02  0.51100000000E-03 0.  1.
         11   -1    0    0    0    0 -0.00000000000E+00 -0.00000000000E+00 -0.45593999997E+02  0.45594000000E+02  0.51100000000E-03 0. -1.
    9900012    2    1    2    0    0 -0.16467297756E+02  0.17632633221E+02  0.38039872012E+02  0.46142317494E+02  0.99999975654E+01 0.  0.
         12    1    1    2    0    0  0.16467297756E+02 -0.17632633221E+02 -0.38039872012E+02  0.45045682506E+02  0.00000000000E+00 0. -1.
         11    1    3    3    0    0 -0.13265808754E+02  0.12759379772E+02  0.21058655399E+02  0.27968740078E+02  0.51100000000E-03 0.  1.
        -11    1    3    3    0    0 -0.70039030999E+00  0.87058918484E+00  0.74973928714E+01  0.75801960558E+01  0.51100000000E-03 0. -1.
        -12    1    3    3    0    0 -0.25010986921E+01  0.40026642648E+01  0.94838237421E+01  0.10593381361E+02  0.00000000000E+00 0.  1.
</event>
<event>
 7    1  0.1503436E-008  0.4614232E+02  0.7816164E-02  0.1320468E+00
        -11   -1    0    0    0    0  0.00000000000E+00  0.00000000000E+00  0.45593999997E+02  0.45594000000E+02  0.51100000000E-03 0. -1.
         11   -1    0    0    0    0 -0.00000000000E+00 -0.00000000000E+00 -0.45593999997E+02  0.45594000000E+02  0.51100000000E-03 0.  1.
    9900012    2    1    2    0    0 -0.42440199922E+01  0.39281059668E+02 -0.21635622061E+02  0.46142317673E+02  0.99999991976E+01 0.  0.
         12    1    1    2    0    0  0.42440199922E+01 -0.39281059668E+02  0.21635622061E+02  0.45045682327E+02  0.00000000000E+00 0. -1.
         11    1    3    3    0    0 -0.22279536848E+01  0.41257965561E+01 -0.55831531487E+01  0.72909240969E+01  0.51100000000E-03 0. -1.
        -11    1    3    3    0    0 -0.22138004635E+01  0.31196251984E+02 -0.13094086513E+02  0.33905193587E+02  0.51100000000E-03 0.  1.
        -12    1    3    3    0    0  0.19773415612E+00  0.39590111278E+01 -0.29583823996E+01  0.49461999888E+01  0.00000000000E+00 0.  1.
</event>
<event>
 7    1  0.1503436E-008  0.4614232E+02  0.7816164E-02  0.1320468E+00
        -11   -1    0    0    0    0  0.00000000000E+00  0.00000000000E+00  0.45593999997E+02  0.45594000000E+02  0.51100000000E-03 0.  1.
         11   -1    0    0    0    0 -0.00000000000E+00 -0.00000000000E+00 -0.45593999997E+02  0.45594000000E+02  0.51100000000E-03 0. -1.
    9900012    2    1    2    0    0  0.13560699072E+02 -0.16118358408E+02  0.39817325298E+02  0.46142318399E+02  0.10000005814E+02 0.  0.
         12    1    1    2    0    0 -0.13560699072E+02  0.16118358408E+02 -0.39817325298E+02  0.45045681601E+02  0.00000000000E+00 0. -1.
         11    1    3    3    0    0 -0.40561644546E+00 -0.14482168993E+01  0.12561992953E+01  0.19595647014E+01  0.51100000000E-03 0. -1.
        -11    1    3    3    0    0  0.52095881492E+01 -0.94926088201E+01  0.24878326508E+02  0.27132647512E+02  0.51100000000E-03 0.  1.
         12    1    3    3    0    0  0.87567273679E+01 -0.51775326882E+01  0.13682799494E+02  0.17050106185E+02  0.00000000000E+00 0. -1.
</event>
<event>
 7    1  0.1503436E-008  0.4614232E+02  0.7816164E-02  0.1320468E+00
        -11   -1    0    0    0    0  0.00000000000E+00  0.00000000000E+00  0.45593999997E+02  0.45594000000E+02  0.51100000000E-03 0. -1.
         11   -1    0    0    0    0 -0.00000000000E+00 -0.00000000000E+00 -0.45593999997E+02  0.45594000000E+02  0.51100000000E-03 0.  1.
    9900012    2    1    2    0    0 -0.28756673770E+02 -0.13643922712E+02 -0.31874920556E+02  0.46142317924E+02  0.10000001484E+02 0.  0.
         12    1    1    2    0    0  0.28756673770E+02  0.13643922712E+02  0.31874920556E+02  0.45045682076E+02  0.00000000000E+00 0. -1.
         11    1    3    3    0    0 -0.10845155030E+01 -0.20897588812E+00 -0.28648326752E+01  0.30703601281E+01  0.51100000000E-03 0. -1.
        -11    1    3    3    0    0 -0.11095622916E+01  0.10195644581E+01 -0.75548873527E+00  0.16856463607E+01  0.51100000000E-03 0.  1.
        -12    1    3    3    0    0 -0.26562595975E+02 -0.14454511282E+02 -0.28254599145E+02  0.41386311435E+02  0.00000000000E+00 0.  1.
</event>
<event>
 7    1  0.1503436E-008  0.4614232E+02  0.7816164E-02  0.1320468E+00
        -11   -1    0    0    0    0  0.00000000000E+00  0.00000000000E+00  0.45593999997E+02  0.45594000000E+02  0.51100000000E-03 0. -1.
         11   -1    0    0    0    0 -0.00000000000E+00 -0.00000000000E+00 -0.45593999997E+02  0.45594000000E+02  0.51100000000E-03 0.  1.
    9900012    2    1    2    0    0 -0.32955897376E+02  0.29382837686E+02 -0.89258716159E+01  0.46142317560E+02  0.99999981676E+01 0.  0.
         12    1    1    2    0    0  0.32955897376E+02 -0.29382837686E+02  0.89258716159E+01  0.45045682440E+02  0.00000000000E+00 0. -1.
         11    1    3    3    0    0 -0.17310261637E+01  0.47914584345E+01 -0.29107743768E+01  0.58674639533E+01  0.51100000000E-03 0. -1.
        -11    1    3    3    0    0 -0.14150814726E+02  0.11278745306E+02 -0.14947310079E+01  0.18157364185E+02  0.51100000000E-03 0.  1.
        -12    1    3    3    0    0 -0.17074056486E+02  0.13312633946E+02 -0.45203662311E+01  0.22117489422E+02  0.00000000000E+00 0.  1.
</event>
<event>
 7    1  0.1503436E-008  0.4614232E+02  0.7816164E-02  0.1320468E+00
        -11   -1    0    0    0    0  0.00000000000E+00  0.00000000000E+00  0.45593999997E+02  0.45594000000E+02  0.51100000000E-03 0. -1.
         11   -1    0    0    0    0 -0.00000000000E+00 -0.00000000000E+00 -0.45593999997E+02  0.45594000000E+02  0.51100000000E-03 0.  1.
    9900012    2    1    2    0    0  0.60368628051E+01  0.27212060293E+02 -0.35386064616E+02  0.46142317555E+02  0.99999981229E+01 0.  0.
         12    1    1    2    0    0 -0.60368628051E+01 -0.27212060293E+02  0.35386064616E+02  0.45045682445E+02  0.00000000000E+00 0. -1.
         11    1    3    3    0    0  0.31747025993E+01  0.17269626837E+02 -0.15000717720E+02  0.23094161168E+02  0.51100000000E-03 0. -1.
        -11    1    3    3    0    0  0.31606823129E+01  0.99598089816E+01 -0.19680433194E+02  0.22282440589E+02  0.51100000000E-03 0.  1.
        -12    1    3    3    0    0 -0.29852210707E+00 -0.17375525060E-01 -0.70491370157E+00  0.76571579842E+00  0.00000000000E+00 0.  1.
</event>
<event>
 7    1  0.1503436E-008  0.4614232E+02  0.7816164E-02  0.1320468E+00
        -11   -1    0    0    0    0  0.00000000000E+00  0.00000000000E+00  0.45593999997E+02  0.45594000000E+02  0.51100000000E-03 0.  1.
         11   -1    0    0    0    0 -0.00000000000E+00 -0.00000000000E+00 -0.45593999997E+02  0.45594000000E+02  0.51100000000E-03 0. -1.
    9900012    2    1    2    0    0  0.32298747945E+02 -0.24675787858E+01  0.31302005889E+02  0.46142316116E+02  0.99999850010E+01 0.  0.
         12    1    1    2    0    0 -0.32298747945E+02  0.24675787858E+01 -0.31302005889E+02  0.45045683884E+02  0.00000000000E+00 0. -1.
         11    1    3    3    0    0  0.17526859217E+02  0.74756547108E-02  0.15053138471E+02  0.23103848770E+02  0.51100000000E-03 0. -1.
        -11    1    3    3    0    0  0.11690705393E+02 -0.10228696982E+01  0.15679704664E+02  0.19584994093E+02  0.51100000000E-03 0.  1.
         12    1    3    3    0    0  0.30811833349E+01 -0.14521847423E+01  0.56916275355E+00  0.34534732530E+01  0.00000000000E+00 0. -1.
</event>
<event>
 7    1  0.1503436E-008  0.4614233E+02  0.7816164E-02  0.1320468E+00
        -11   -1    0    0    0    0  0.00000000000E+00  0.00000000000E+00  0.45593999997E+02  0.45594000000E+02  0.51100000000E-03 0.  1.
         11   -1    0    0    0    0 -0.00000000000E+00 -0.00000000000E+00 -0.45593999997E+02  0.45594000000E+02  0.51100000000E-03 0. -1.
    9900012    2    1    2    0    0 -0.11162948862E+02 -0.30187655258E+02  0.31515184477E+02  0.46142325292E+02  0.10000068674E+02 0.  0.
         12    1    1    2    0    0  0.11162948862E+02  0.30187655258E+02 -0.31515184477E+02  0.45045674708E+02  0.00000000000E+00 0. -1.
         11    1    3    3    0    0 -0.11221026114E+01 -0.20672448400E+01  0.27399750654E+00  0.23680562480E+01  0.51100000000E-03 0. -1.
        -11    1    3    3    0    0 -0.10137101681E+02 -0.22210303756E+02  0.27524066887E+02  0.36791747467E+02  0.51100000000E-03 0.  1.
        -12    1    3    3    0    0  0.96255429937E-01 -0.59101066611E+01  0.37171200836E+01  0.69825215767E+01  0.00000000000E+00 0.  1.
</event>
<event>
 7    1  0.1503436E-008  0.4614232E+02  0.7816164E-02  0.1320468E+00
        -11   -1    0    0    0    0  0.00000000000E+00  0.00000000000E+00  0.45593999997E+02  0.45594000000E+02  0.51100000000E-03 0.  1.
         11   -1    0    0    0    0 -0.00000000000E+00 -0.00000000000E+00 -0.45593999997E+02  0.45594000000E+02  0.51100000000E-03 0. -1.
    9900012    2    1    2    0    0 -0.34041256402E+01 -0.39266044350E+02  0.21810621668E+02  0.46142317323E+02  0.99999960075E+01 0.  0.
         12    1    1    2    0    0  0.34041256402E+01  0.39266044350E+02 -0.21810621668E+02  0.45045682677E+02  0.00000000000E+00 0. -1.
         11    1    3    3    0    0 -0.76646260747E+00 -0.29297795188E+02  0.15365528582E+02  0.33091505506E+02  0.51100000000E-03 0. -1.
        -11    1    3    3    0    0 -0.75512357601E+00 -0.98047712508E+00  0.29961446323E+01  0.32416708542E+01  0.51100000000E-03 0.  1.
         12    1    3    3    0    0 -0.18825394567E+01 -0.89877720370E+01  0.34489484540E+01  0.98091409631E+01  0.00000000000E+00 0. -1.
</event>
<event>
 7    1  0.1503436E-008  0.4614232E+02  0.7816164E-02  0.1320468E+00
        -11   -1    0    0    0    0  0.00000000000E+00  0.00000000000E+00  0.45593999997E+02  0.45594000000E+02  0.51100000000E-03 0.  1.
         11   -1    0    0    0    0 -0.00000000000E+00 -0.00000000000E+00 -0.45593999997E+02  0.45594000000E+02  0.51100000000E-03 0. -1.
    9900012    2    1    2    0    0  0.21272552057E+02 -0.19806846020E+02 -0.34413384991E+02  0.46142315558E+02  0.99999799145E+01 0.  0.
         12    1    1    2    0    0 -0.21272552057E+02  0.19806846020E+02  0.34413384991E+02  0.45045684442E+02  0.00000000000E+00 0. -1.
         11    1    3    3    0    0  0.51391249942E+01 -0.11233725573E+01 -0.76056929941E+01  0.92476557997E+01  0.51100000000E-03 0. -1.
        -11    1    3    3    0    0  0.15606353753E+02 -0.17975328849E+02 -0.26995589849E+02  0.35992118530E+02  0.51100000000E-03 0.  1.
        -12    1    3    3    0    0  0.52707330930E+00 -0.70814461340E+00  0.18789785218E+00  0.90254122882E+00  0.00000000000E+00 0.  1.
</event>
<event>
 7    1  0.1503436E-008  0.4614232E+02  0.7816164E-02  0.1320468E+00
        -11   -1    0    0    0    0  0.00000000000E+00  0.00000000000E+00  0.45593999997E+02  0.45594000000E+02  0.51100000000E-03 0. -1.
         11   -1    0    0    0    0 -0.00000000000E+00 -0.00000000000E+00 -0.45593999997E+02  0.45594000000E+02  0.51100000000E-03 0.  1.
    9900012    2    1    2    0    0  0.14424594391E+02 -0.42516369584E+02 -0.36609985154E+01  0.46142317453E+02  0.99999971923E+01 0.  0.
         12    1    1    2    0    0 -0.14424594391E+02  0.42516369584E+02  0.36609985154E+01  0.45045682547E+02  0.00000000000E+00 0. -1.
         11    1    3    3    0    0  0.11840952634E+02 -0.27132140693E+02 -0.14525384136E+01  0.29639012904E+02  0.51100000000E-03 0.  1.
        -11    1    3    3    0    0  0.11514494215E+01 -0.44269179486E+01  0.15522199731E+01  0.48304063390E+01  0.51100000000E-03 0. -1.
        -12    1    3    3    0    0  0.14321923355E+01 -0.10957310943E+02 -0.37606800750E+01  0.11672898210E+02  0.00000000000E+00 0.  1.
</event>
<event>
 7    1  0.1503436E-008  0.4614232E+02  0.7816164E-02  0.1320468E+00
        -11   -1    0    0    0    0  0.00000000000E+00  0.00000000000E+00  0.45593999997E+02  0.45594000000E+02  0.51100000000E-03 0.  1.
         11   -1    0    0    0    0 -0.00000000000E+00 -0.00000000000E+00 -0.45593999997E+02  0.45594000000E+02  0.51100000000E-03 0. -1.
    9900012    2    1    2    0    0  0.30654798062E+02 -0.28530617935E+02  0.16595201266E+02  0.46142317532E+02  0.99999979077E+01 0.  0.
         12    1    1    2    0    0 -0.30654798062E+02  0.28530617935E+02 -0.16595201266E+02  0.45045682468E+02  0.00000000000E+00 0. -1.
         11    1    3    3    0    0  0.83959305629E+01 -0.12691001972E+02  0.69335800978E+01  0.16722072667E+02  0.51100000000E-03 0. -1.
        -11    1    3    3    0    0  0.18963932657E+02 -0.12164733352E+02  0.61240663009E+01  0.23347712257E+02  0.51100000000E-03 0.  1.
        -12    1    3    3    0    0  0.32949348424E+01 -0.36748826116E+01  0.35375548669E+01  0.60725326068E+01  0.00000000000E+00 0.  1.
</event>
<event>
 7    1  0.1503436E-008  0.4614232E+02  0.7816164E-02  0.1320468E+00
        -11   -1    0    0    0    0  0.00000000000E+00  0.00000000000E+00  0.45593999997E+02  0.45594000000E+02  0.51100000000E-03 0.  1.
         11   -1    0    0    0    0 -0.00000000000E+00 -0.00000000000E+00 -0.45593999997E+02  0.45594000000E+02  0.51100000000E-03 0. -1.
    9900012    2    1    2    0    0  0.10784719846E+02  0.42082361389E+02 -0.11911264872E+02  0.46142317043E+02  0.99999934507E+01 0.  0.
         12    1    1    2    0    0 -0.10784719846E+02 -0.42082361389E+02  0.11911264872E+02  0.45045682957E+02  0.00000000000E+00 0. -1.
         11    1    3    3    0    0 -0.12811718982E+00  0.14321242575E+02 -0.55381952168E+01  0.15355325117E+02  0.51100000000E-03 0. -1.
        -11    1    3    3    0    0  0.28231862725E+01  0.83154072797E+01  0.34025152574E-02  0.87815938641E+01  0.51100000000E-03 0.  1.
        -12    1    3    3    0    0  0.80896507638E+01  0.19445711534E+02 -0.63764721703E+01  0.22005398062E+02  0.00000000000E+00 0.  1.
</event>
<event>
 7    1  0.1503436E-008  0.4614232E+02  0.7816164E-02  0.1320468E+00
        -11   -1    0    0    0    0  0.00000000000E+00  0.00000000000E+00  0.45593999997E+02  0.45594000000E+02  0.51100000000E-03 0.  1.
         11   -1    0    0    0    0 -0.00000000000E+00 -0.00000000000E+00 -0.45593999997E+02  0.45594000000E+02  0.51100000000E-03 0. -1.
    9900012    2    1    2    0    0 -0.18021673300E+02 -0.30504720381E+02  0.27817168057E+02  0.46142317490E+02  0.99999975296E+01 0.  0.
         12    1    1    2    0    0  0.18021673300E+02  0.30504720381E+02 -0.27817168057E+02  0.45045682510E+02  0.00000000000E+00 0. -1.
         11    1    3    3    0    0 -0.20806661187E+01 -0.10582723553E+02  0.75182981109E+01  0.13147167605E+02  0.51100000000E-03 0. -1.
        -11    1    3    3    0    0 -0.97915656226E+01 -0.10722155699E+02  0.85278013462E+01  0.16839322321E+02  0.51100000000E-03 0.  1.
        -12    1    3    3    0    0 -0.61494415591E+01 -0.91998411293E+01  0.11771068600E+02  0.16155827564E+02  0.00000000000E+00 0.  1.
</event>
<event>
 7    1  0.1503436E-008  0.4614232E+02  0.7816164E-02  0.1320468E+00
        -11   -1    0    0    0    0  0.00000000000E+00  0.00000000000E+00  0.45593999997E+02  0.45594000000E+02  0.51100000000E-03 0.  1.
         11   -1    0    0    0    0 -0.00000000000E+00 -0.00000000000E+00 -0.45593999997E+02  0.45594000000E+02  0.51100000000E-03 0. -1.
    9900012    2    1    2    0    0  0.42692343088E+02 -0.86022727481E+01  0.11509918845E+02  0.46142317781E+02  0.10000000177E+02 0.  0.
         12    1    1    2    0    0 -0.42692343088E+02  0.86022727481E+01 -0.11509918845E+02  0.45045682219E+02  0.00000000000E+00 0. -1.
         11    1    3    3    0    0  0.31833415525E+00 -0.72921900367E+00 -0.60023729853E+00  0.99668553987E+00  0.51100000000E-03 0. -1.
        -11    1    3    3    0    0  0.22692916921E+02 -0.37944761024E+01  0.34708214253E+01  0.23268285904E+02  0.51100000000E-03 0.  1.
         12    1    3    3    0    0  0.19681092012E+02 -0.40785776421E+01  0.86393347186E+01  0.21877346337E+02  0.00000000000E+00 0. -1.
</event>
<event>
 7    1  0.1503436E-008  0.4614232E+02  0.7816164E-02  0.1320468E+00
        -11   -1    0    0    0    0  0.00000000000E+00  0.00000000000E+00  0.45593999997E+02  0.45594000000E+02  0.51100000000E-03 0.  1.
         11   -1    0    0    0    0 -0.00000000000E+00 -0.00000000000E+00 -0.45593999997E+02  0.45594000000E+02  0.51100000000E-03 0. -1.
    9900012    2    1    2    0    0 -0.29466847049E+02  0.27545804056E+02  0.20051110124E+02  0.46142318594E+02  0.10000007597E+02 0.  0.
         12    1    1    2    0    0  0.29466847049E+02 -0.27545804056E+02 -0.20051110124E+02  0.45045681406E+02  0.00000000000E+00 0. -1.
         11    1    3    3    0    0 -0.30530996310E+00  0.50327577539E+00 -0.48240590449E+00  0.76106267644E+00  0.51100000000E-03 0. -1.
        -11    1    3    3    0    0 -0.22572642553E+02  0.24357358159E+02  0.15387346110E+02  0.36600211869E+02  0.51100000000E-03 0.  1.
        -12    1    3    3    0    0 -0.65888945327E+01  0.26851701217E+01  0.51461699193E+01  0.87810440486E+01  0.00000000000E+00 0.  1.
</event>
<event>
 7    1  0.1503436E-008  0.4614232E+02  0.7816164E-02  0.1320468E+00
        -11   -1    0    0    0    0  0.00000000000E+00  0.00000000000E+00  0.45593999997E+02  0.45594000000E+02  0.51100000000E-03 0.  1.
         11   -1    0    0    0    0 -0.00000000000E+00 -0.00000000000E+00 -0.45593999997E+02  0.45594000000E+02  0.51100000000E-03 0. -1.
    9900012    2    1    2    0    0  0.19008512952E+02  0.85296215490E+01  0.39937896070E+02  0.46142317067E+02  0.99999936672E+01 0.  0.
         12    1    1    2    0    0 -0.19008512952E+02 -0.85296215490E+01 -0.39937896070E+02  0.45045682933E+02  0.00000000000E+00 0. -1.
         11    1    3    3    0    0  0.14474468704E+01 -0.14308075291E+01  0.34930888079E+01  0.40427691387E+01  0.51100000000E-03 0. -1.
        -11    1    3    3    0    0  0.87105194203E+01  0.65886779785E+01  0.24735379353E+02  0.27039282869E+02  0.51100000000E-03 0.  1.
         12    1    3    3    0    0  0.88505466611E+01  0.33717510995E+01  0.11709427910E+02  0.15060265059E+02  0.00000000000E+00 0. -1.
</event>
<event>
 7    1  0.1503436E-008  0.4614232E+02  0.7816164E-02  0.1320468E+00
        -11   -1    0    0    0    0  0.00000000000E+00  0.00000000000E+00  0.45593999997E+02  0.45594000000E+02  0.51100000000E-03 0.  1.
         11   -1    0    0    0    0 -0.00000000000E+00 -0.00000000000E+00 -0.45593999997E+02  0.45594000000E+02  0.51100000000E-03 0. -1.
    9900012    2    1    2    0    0  0.13053703592E+02 -0.31327443899E+02  0.29619343737E+02  0.46142318274E+02  0.10000004679E+02 0.  0.
         12    1    1    2    0    0 -0.13053703592E+02  0.31327443899E+02 -0.29619343737E+02  0.45045681726E+02  0.00000000000E+00 0. -1.
         11    1    3    3    0    0  0.40056509532E+01 -0.16776293803E+02  0.13998244626E+02  0.22213512244E+02  0.51100000000E-03 0.  1.
        -11    1    3    3    0    0  0.10088268574E+01 -0.94055149750E+00  0.42174295279E+01  0.44372379733E+01  0.51100000000E-03 0. -1.
         12    1    3    3    0    0  0.80392257810E+01 -0.13610598598E+02  0.11403669584E+02  0.19491568057E+02  0.00000000000E+00 0. -1.
</event>
<event>
 7    1  0.1503436E-008  0.4614232E+02  0.7816164E-02  0.1320468E+00
        -11   -1    0    0    0    0  0.00000000000E+00  0.00000000000E+00  0.45593999997E+02  0.45594000000E+02  0.51100000000E-03 0. -1.
         11   -1    0    0    0    0 -0.00000000000E+00 -0.00000000000E+00 -0.45593999997E+02  0.45594000000E+02  0.51100000000E-03 0.  1.
    9900012    2    1    2    0    0  0.10125032072E+02 -0.18814034021E+02 -0.39656390273E+02  0.46142318297E+02  0.10000004889E+02 0.  0.
         12    1    1    2    0    0 -0.10125032072E+02  0.18814034021E+02  0.39656390273E+02  0.45045681703E+02  0.00000000000E+00 0. -1.
         11    1    3    3    0    0  0.45007090048E+01 -0.73773571036E+01 -0.10070541992E+02  0.13270176926E+02  0.51100000000E-03 0. -1.
        -11    1    3    3    0    0  0.38700104788E+01 -0.68893560431E+01 -0.24850647269E+02  0.26076711406E+02  0.51100000000E-03 0.  1.
        -12    1    3    3    0    0  0.17543125886E+01 -0.45473208740E+01 -0.47352010125E+01  0.67954299656E+01  0.00000000000E+00 0.  1.
</event>
<event>
 7    1  0.1503436E-008  0.4614232E+02  0.7816164E-02  0.1320468E+00
        -11   -1    0    0    0    0  0.00000000000E+00  0.00000000000E+00  0.45593999997E+02  0.45594000000E+02  0.51100000000E-03 0. -1.
         11   -1    0    0    0    0 -0.00000000000E+00 -0.00000000000E+00 -0.45593999997E+02  0.45594000000E+02  0.51100000000E-03 0.  1.
    9900012    2    1    2    0    0  0.19107831500E+02  0.34425971810E+02  0.21882796526E+02  0.46142317150E+02  0.99999944252E+01 0.  0.
         12    1    1    2    0    0 -0.19107831500E+02 -0.34425971810E+02 -0.21882796526E+02  0.45045682850E+02  0.00000000000E+00 0. -1.
         11    1    3    3    0    0 -0.10960040189E+01  0.18583549265E+01  0.12677461614E+01  0.25023765570E+01  0.51100000000E-03 0. -1.
        -11    1    3    3    0    0  0.12056710958E+02  0.17346504567E+02  0.99899760953E+01  0.23368036342E+02  0.51100000000E-03 0.  1.
         12    1    3    3    0    0  0.81471245609E+01  0.15221112316E+02  0.10625074269E+02  0.20271904251E+02  0.00000000000E+00 0. -1.
</event>
<event>
 7    1  0.1503436E-008  0.4614232E+02  0.7816164E-02  0.1320468E+00
        -11   -1    0    0    0    0  0.00000000000E+00  0.00000000000E+00  0.45593999997E+02  0.45594000000E+02  0.51100000000E-03 0.  1.
         11   -1    0    0    0    0 -0.00000000000E+00 -0.00000000000E+00 -0.45593999997E+02  0.45594000000E+02  0.51100000000E-03 0. -1.
    9900012    2    1    2    0    0  0.18427645191E+02  0.33856549017E+02  0.23308141055E+02  0.46142318098E+02  0.10000003069E+02 0.  0.
         12    1    1    2    0    0 -0.18427645191E+02 -0.33856549017E+02 -0.23308141055E+02  0.45045681902E+02  0.00000000000E+00 0. -1.
         11    1    3    3    0    0  0.11703227302E+01  0.17249420485E+01 -0.92499198298E+00  0.22805023115E+01  0.51100000000E-03 0. -1.
        -11    1    3    3    0    0  0.10215401085E+02  0.21553905721E+02  0.15886176448E+02  0.28658260128E+02  0.51100000000E-03 0.  1.
         12    1    3    3    0    0  0.70419213761E+01  0.10577701247E+02  0.83469565894E+01  0.15203555658E+02  0.00000000000E+00 0. -1.
</event>
<event>
 7    1  0.1503436E-008  0.4614232E+02  0.7816164E-02  0.1320468E+00
        -11   -1    0    0    0    0  0.00000000000E+00  0.00000000000E+00  0.45593999997E+02  0.45594000000E+02  0.51100000000E-03 0.  1.
         11   -1    0    0    0    0 -0.00000000000E+00 -0.00000000000E+00 -0.45593999997E+02  0.45594000000E+02  0.51100000000E-03 0. -1.
    9900012    2    1    2    0    0 -0.39938688170E+02 -0.14942119125E+02  0.14517156031E+02  0.46142317011E+02  0.99999931586E+01 0.  0.
         12    1    1    2    0    0  0.39938688170E+02  0.14942119125E+02 -0.14517156031E+02  0.45045682989E+02  0.00000000000E+00 0. -1.
         11    1    3    3    0    0 -0.78663488272E+01 -0.45123675856E+01  0.58268523497E+01  0.10779290963E+02  0.51100000000E-03 0.  1.
        -11    1    3    3    0    0 -0.14981572788E+02 -0.71777654990E+01  0.64562494085E+01  0.17822766268E+02  0.51100000000E-03 0. -1.
         12    1    3    3    0    0 -0.17090766555E+02 -0.32519860409E+01  0.22340542732E+01  0.17540259779E+02  0.00000000000E+00 0. -1.
</event>
<event>
 7    1  0.1503436E-008  0.4614232E+02  0.7816164E-02  0.1320468E+00
        -11   -1    0    0    0    0  0.00000000000E+00  0.00000000000E+00  0.45593999997E+02  0.45594000000E+02  0.51100000000E-03 0. -1.
         11   -1    0    0    0    0 -0.00000000000E+00 -0.00000000000E+00 -0.45593999997E+02  0.45594000000E+02  0.51100000000E-03 0.  1.
    9900012    2    1    2    0    0  0.91364108939E+01 -0.16596000599E+02 -0.40868230706E+02  0.46142317400E+02  0.99999967061E+01 0.  0.
         12    1    1    2    0    0 -0.91364108939E+01  0.16596000599E+02  0.40868230706E+02  0.45045682600E+02  0.00000000000E+00 0. -1.
         11    1    3    3    0    0  0.45818110120E+01 -0.11383825970E+02 -0.32629064565E+02  0.34860297482E+02  0.51100000000E-03 0. -1.
        -11    1    3    3    0    0  0.34694667731E+01 -0.55392761037E+01 -0.73905869366E+01  0.98661823909E+01  0.51100000000E-03 0.  1.
         12    1    3    3    0    0  0.10851331088E+01  0.32710147453E+00 -0.84857920414E+00  0.14158375274E+01  0.00000000000E+00 0. -1.
</event>
<event>
 7    1  0.1503436E-008  0.4614232E+02  0.7816164E-02  0.1320468E+00
        -11   -1    0    0    0    0  0.00000000000E+00  0.00000000000E+00  0.45593999997E+02  0.45594000000E+02  0.51100000000E-03 0. -1.
         11   -1    0    0    0    0 -0.00000000000E+00 -0.00000000000E+00 -0.45593999997E+02  0.45594000000E+02  0.51100000000E-03 0.  1.
    9900012    2    1    2    0    0 -0.20914573557E+02  0.35944105300E+02  0.17312289953E+02  0.46142317896E+02  0.10000001226E+02 0.  0.
         12    1    1    2    0    0  0.20914573557E+02 -0.35944105300E+02 -0.17312289953E+02  0.45045682104E+02  0.00000000000E+00 0. -1.
         11    1    3    3    0    0 -0.27703372572E+00  0.33576779811E+01  0.25914336939E+01  0.42504444427E+01  0.51100000000E-03 0. -1.
        -11    1    3    3    0    0 -0.69001676384E+01  0.91584102672E+01  0.11297083256E+01  0.11522370990E+02  0.51100000000E-03 0.  1.
        -12    1    3    3    0    0 -0.13737372192E+02  0.23428017051E+02  0.13591147933E+02  0.30369502463E+02  0.00000000000E+00 0.  1.
</event>
<event>
 7    1  0.1503436E-008  0.4614232E+02  0.7816164E-02  0.1320468E+00
        -11   -1    0    0    0    0  0.00000000000E+00  0.00000000000E+00  0.45593999997E+02  0.45594000000E+02  0.51100000000E-03 0.  1.
         11   -1    0    0    0    0 -0.00000000000E+00 -0.00000000000E+00 -0.45593999997E+02  0.45594000000E+02  0.51100000000E-03 0. -1.
    9900012    2    1    2    0    0  0.14638638398E+01  0.16771035975E+02  0.41781611208E+02  0.46142316742E+02  0.99999907099E+01 0.  0.
         12    1    1    2    0    0 -0.14638638398E+01 -0.16771035975E+02 -0.41781611208E+02  0.45045683258E+02  0.00000000000E+00 0. -1.
         11    1    3    3    0    0  0.17420863833E+01  0.66606614337E+01  0.24427363025E+02  0.25379033479E+02  0.51100000000E-03 0.  1.
        -11    1    3    3    0    0 -0.26836842350E+00  0.59222591081E+01  0.51241134654E+01  0.78359245544E+01  0.51100000000E-03 0. -1.
        -12    1    3    3    0    0 -0.98541199579E-02  0.41881154332E+01  0.12230134717E+02  0.12927358709E+02  0.00000000000E+00 0.  1.
</event>
<event>
 7    1  0.1503436E-008  0.4614232E+02  0.7816164E-02  0.1320468E+00
        -11   -1    0    0    0    0  0.00000000000E+00  0.00000000000E+00  0.45593999997E+02  0.45594000000E+02  0.51100000000E-03 0.  1.
         11   -1    0    0    0    0 -0.00000000000E+00 -0.00000000000E+00 -0.45593999997E+02  0.45594000000E+02  0.51100000000E-03 0. -1.
    9900012    2    1    2    0    0 -0.43386031443E+01 -0.14555459778E+02  0.42407882463E+02  0.46142318947E+02  0.10000010811E+02 0.  0.
         12    1    1    2    0    0  0.43386031443E+01  0.14555459778E+02 -0.42407882463E+02  0.45045681053E+02  0.00000000000E+00 0. -1.
         11    1    3    3    0    0 -0.44563101447E+01 -0.84797046842E+01  0.20990969866E+02  0.23073467616E+02  0.51100000000E-03 0. -1.
        -11    1    3    3    0    0  0.25300685935E+01 -0.53419601826E+01  0.12964887092E+02  0.14248722162E+02  0.51100000000E-03 0.  1.
         12    1    3    3    0    0 -0.24123615930E+01 -0.73379491153E+00  0.84520255043E+01  0.88201291688E+01  0.00000000000E+00 0. -1.
</event>
<event>
 7    1  0.1503436E-008  0.4614232E+02  0.7816164E-02  0.1320468E+00
        -11   -1    0    0    0    0  0.00000000000E+00  0.00000000000E+00  0.45593999997E+02  0.45594000000E+02  0.51100000000E-03 0. -1.
         11   -1    0    0    0    0 -0.00000000000E+00 -0.00000000000E+00 -0.45593999997E+02  0.45594000000E+02  0.51100000000E-03 0.  1.
    9900012    2    1    2    0    0  0.40885853402E+02  0.17923854397E+02 -0.60163125650E+01  0.46142316725E+02  0.99999905524E+01 0.  0.
         12    1    1    2    0    0 -0.40885853402E+02 -0.17923854397E+02  0.60163125650E+01  0.45045683275E+02  0.00000000000E+00 0. -1.
         11    1    3    3    0    0  0.12695849330E+02  0.43449227985E+01 -0.57365336789E+01  0.14593517850E+02  0.51100000000E-03 0. -1.
        -11    1    3    3    0    0  0.18675081869E+02  0.99383673206E+01 -0.18717803514E+01  0.21237546698E+02  0.51100000000E-03 0.  1.
         12    1    3    3    0    0  0.95149222027E+01  0.36405642779E+01  0.15920014653E+01  0.10311252177E+02  0.00000000000E+00 0. -1.
</event>
<event>
 7    1  0.1503436E-008  0.4614232E+02  0.7816164E-02  0.1320468E+00
        -11   -1    0    0    0    0  0.00000000000E+00  0.00000000000E+00  0.45593999997E+02  0.45594000000E+02  0.51100000000E-03 0. -1.
         11   -1    0    0    0    0 -0.00000000000E+00 -0.00000000000E+00 -0.45593999997E+02  0.45594000000E+02  0.51100000000E-03 0.  1.
    9900012    2    1    2    0    0  0.27410394643E+02 -0.14888176191E+02 -0.32498091877E+02  0.46142317627E+02  0.99999987767E+01 0.  0.
         12    1    1    2    0    0 -0.27410394643E+02  0.14888176191E+02  0.32498091877E+02  0.45045682373E+02  0.00000000000E+00 0. -1.
         11    1    3    3    0    0  0.15793412464E+02 -0.61595247264E+01 -0.14251042258E+02  0.22146417945E+02  0.51100000000E-03 0. -1.
        -11    1    3    3    0    0  0.10683637047E+02 -0.61460948473E+01 -0.12141183656E+02  0.17300951513E+02  0.51100000000E-03 0.  1.
         12    1    3    3    0    0  0.93334513198E+00 -0.25825566171E+01 -0.61058659632E+01  0.66949481683E+01  0.00000000000E+00 0. -1.
</event>
<event>
 7    1  0.1503436E-008  0.4614232E+02  0.7816164E-02  0.1320468E+00
        -11   -1    0    0    0    0  0.00000000000E+00  0.00000000000E+00  0.45593999997E+02  0.45594000000E+02  0.51100000000E-03 0.  1.
         11   -1    0    0    0    0 -0.00000000000E+00 -0.00000000000E+00 -0.45593999997E+02  0.45594000000E+02  0.51100000000E-03 0. -1.
    9900012    2    1    2    0    0  0.40268167430E+02  0.69230135211E+00  0.20176940710E+02  0.46142317346E+02  0.99999962158E+01 0.  0.
         12    1    1    2    0    0 -0.40268167430E+02 -0.69230135211E+00 -0.20176940710E+02  0.45045682654E+02  0.00000000000E+00 0. -1.
         11    1    3    3    0    0  0.21445837554E+02  0.44362468648E+01  0.11716975720E+02  0.24837305710E+02  0.51100000000E-03 0. -1.
        -11    1    3    3    0    0  0.15326892003E+02 -0.24060433739E+01  0.82124115958E+01  0.17554098316E+02  0.51100000000E-03 0.  1.
         12    1    3    3    0    0  0.34954378728E+01 -0.13379021388E+01  0.24755339411E+00  0.37509133206E+01  0.00000000000E+00 0. -1.
</event>
<event>
 7    1  0.1503436E-008  0.4614231E+02  0.7816164E-02  0.1320468E+00
        -11   -1    0    0    0    0  0.00000000000E+00  0.00000000000E+00  0.45593999997E+02  0.45594000000E+02  0.51100000000E-03 0. -1.
         11   -1    0    0    0    0 -0.00000000000E+00 -0.00000000000E+00 -0.45593999997E+02  0.45594000000E+02  0.51100000000E-03 0.  1.
    9900012    2    1    2    0    0  0.30913796078E+02 -0.27726517156E+02 -0.17455418981E+02  0.46142309936E+02  0.99999286437E+01 0.  0.
         12    1    1    2    0    0 -0.30913796078E+02  0.27726517156E+02  0.17455418981E+02  0.45045690064E+02  0.00000000000E+00 0. -1.
         11    1    3    3    0    0  0.40577963447E+00 -0.29356991730E+01 -0.71727118974E+00  0.30491744731E+01  0.51100000000E-03 0. -1.
        -11    1    3    3    0    0  0.18393143565E+02 -0.12642415765E+02 -0.71355474226E+01  0.23431910802E+02  0.51100000000E-03 0.  1.
        -12    1    3    3    0    0  0.12114872879E+02 -0.12148402218E+02 -0.96026003682E+01  0.19661224661E+02  0.00000000000E+00 0.  1.
</event>
<event>
 7    1  0.1503436E-008  0.4614232E+02  0.7816164E-02  0.1320468E+00
        -11   -1    0    0    0    0  0.00000000000E+00  0.00000000000E+00  0.45593999997E+02  0.45594000000E+02  0.51100000000E-03 0. -1.
         11   -1    0    0    0    0 -0.00000000000E+00 -0.00000000000E+00 -0.45593999997E+02  0.45594000000E+02  0.51100000000E-03 0.  1.
    9900012    2    1    2    0    0 -0.19164210924E+02  0.33976307263E+02  0.22526808650E+02  0.46142317149E+02  0.99999944170E+01 0.  0.
         12    1    1    2    0    0  0.19164210924E+02 -0.33976307263E+02 -0.22526808650E+02  0.45045682851E+02  0.00000000000E+00 0. -1.
         11    1    3    3    0    0 -0.13508498546E+02  0.24235892341E+02  0.17873253616E+02  0.33004714899E+02  0.51100000000E-03 0. -1.
        -11    1    3    3    0    0 -0.59994831154E+01  0.87928927020E+01  0.53489712199E+01  0.11913028712E+02  0.51100000000E-03 0.  1.
         12    1    3    3    0    0  0.34377073739E+00  0.94752222061E+00 -0.69541618542E+00  0.12245735378E+01  0.00000000000E+00 0. -1.
</event>
<event>
 7    1  0.1503436E-008  0.4614232E+02  0.7816164E-02  0.1320468E+00
        -11   -1    0    0    0    0  0.00000000000E+00  0.00000000000E+00  0.45593999997E+02  0.45594000000E+02  0.51100000000E-03 0. -1.
         11   -1    0    0    0    0 -0.00000000000E+00 -0.00000000000E+00 -0.45593999997E+02  0.45594000000E+02  0.51100000000E-03 0.  1.
    9900012    2    1    2    0    0  0.43768354530E+02 -0.10434755647E+02 -0.21355420407E+01  0.46142317371E+02  0.99999964450E+01 0.  0.
         12    1    1    2    0    0 -0.43768354530E+02  0.10434755647E+02  0.21355420407E+01  0.45045682629E+02  0.00000000000E+00 0. -1.
         11    1    3    3    0    0  0.59802669515E+00  0.87731428452E+00 -0.87623165451E+00  0.13766257499E+01  0.51100000000E-03 0. -1.
        -11    1    3    3    0    0  0.40613367110E+02 -0.10086602091E+02 -0.58544211836E+00  0.41851258911E+02  0.51100000000E-03 0.  1.
         12    1    3    3    0    0  0.25569607253E+01 -0.12254678406E+01 -0.67386826783E+00  0.29144327100E+01  0.00000000000E+00 0. -1.
</event>
<event>
 7    1  0.1503436E-008  0.4614232E+02  0.7816164E-02  0.1320468E+00
        -11   -1    0    0    0    0  0.00000000000E+00  0.00000000000E+00  0.45593999997E+02  0.45594000000E+02  0.51100000000E-03 0. -1.
         11   -1    0    0    0    0 -0.00000000000E+00 -0.00000000000E+00 -0.45593999997E+02  0.45594000000E+02  0.51100000000E-03 0.  1.
    9900012    2    1    2    0    0  0.21102393596E+02 -0.39144576085E+02 -0.71766726162E+01  0.46142317830E+02  0.10000000628E+02 0.  0.
         12    1    1    2    0    0 -0.21102393596E+02  0.39144576085E+02  0.71766726162E+01  0.45045682170E+02  0.00000000000E+00 0. -1.
         11    1    3    3    0    0  0.27544492942E+00 -0.82482485594E+01 -0.17581339086E+01  0.84380394233E+01  0.51100000000E-03 0. -1.
        -11    1    3    3    0    0  0.13530451395E+02 -0.21653506910E+02 -0.39604163053E+01  0.25838583050E+02  0.51100000000E-03 0.  1.
         12    1    3    3    0    0  0.72964972720E+01 -0.92428206153E+01 -0.14581224022E+01  0.11865695357E+02  0.00000000000E+00 0. -1.
</event>
<event>
 7    1  0.1503436E-008  0.4614232E+02  0.7816164E-02  0.1320468E+00
        -11   -1    0    0    0    0  0.00000000000E+00  0.00000000000E+00  0.45593999997E+02  0.45594000000E+02  0.51100000000E-03 0.  1.
         11   -1    0    0    0    0 -0.00000000000E+00 -0.00000000000E+00 -0.45593999997E+02  0.45594000000E+02  0.51100000000E-03 0. -1.
    9900012    2    1    2    0    0 -0.14669397402E+02  0.35100942276E+02  0.24121483096E+02  0.46142319679E+02  0.10000017487E+02 0.  0.
         12    1    1    2    0    0  0.14669397402E+02 -0.35100942276E+02 -0.24121483096E+02  0.45045680321E+02  0.00000000000E+00 0. -1.
         11    1    3    3    0    0 -0.72458260319E+01  0.12678844039E+02  0.90451678241E+01  0.17177605837E+02  0.51100000000E-03 0. -1.
        -11    1    3    3    0    0 -0.57474782602E+01  0.18092379966E+02  0.15202107652E+02  0.24320193184E+02  0.51100000000E-03 0.  1.
        -12    1    3    3    0    0 -0.16760931098E+01  0.43297182705E+01 -0.12579237962E+00  0.46445206575E+01  0.00000000000E+00 0.  1.
</event>
<event>
 7    1  0.1503436E-008  0.4614232E+02  0.7816164E-02  0.1320468E+00
        -11   -1    0    0    0    0  0.00000000000E+00  0.00000000000E+00  0.45593999997E+02  0.45594000000E+02  0.51100000000E-03 0.  1.
         11   -1    0    0    0    0 -0.00000000000E+00 -0.00000000000E+00 -0.45593999997E+02  0.45594000000E+02  0.51100000000E-03 0. -1.
    9900012    2    1    2    0    0 -0.10523435497E+02  0.38631118824E+02  0.20639946379E+02  0.46142318489E+02  0.10000006640E+02 0.  0.
         12    1    1    2    0    0  0.10523435497E+02 -0.38631118824E+02 -0.20639946379E+02  0.45045681511E+02  0.00000000000E+00 0. -1.
         11    1    3    3    0    0  0.26154958135E+00  0.16888422556E+01  0.55504392461E+00  0.17968501237E+01  0.51100000000E-03 0. -1.
        -11    1    3    3    0    0 -0.17406377149E+01  0.54329972061E+01  0.70456162675E+01  0.90657590496E+01  0.51100000000E-03 0.  1.
        -12    1    3    3    0    0 -0.90443473636E+01  0.31509279362E+02  0.13039286187E+02  0.35279709316E+02  0.00000000000E+00 0.  1.
</event>
<event>
 7    1  0.1503436E-008  0.4614232E+02  0.7816164E-02  0.1320468E+00
        -11   -1    0    0    0    0  0.00000000000E+00  0.00000000000E+00  0.45593999997E+02  0.45594000000E+02  0.51100000000E-03 0.  1.
         11   -1    0    0    0    0 -0.00000000000E+00 -0.00000000000E+00 -0.45593999997E+02  0.45594000000E+02  0.51100000000E-03 0. -1.
    9900012    2    1    2    0    0 -0.31732545736E+00  0.38971775759E+02  0.22587905558E+02  0.46142317868E+02  0.10000000973E+02 0.  0.
         12    1    1    2    0    0  0.31732545736E+00 -0.38971775759E+02 -0.22587905558E+02  0.45045682132E+02  0.00000000000E+00 0. -1.
         11    1    3    3    0    0  0.63413003480E+00  0.81049043296E+01  0.92476487382E+01  0.12313025726E+02  0.51100000000E-03 0. -1.
        -11    1    3    3    0    0  0.42722996652E+00  0.24893627577E+02  0.98491654879E+01  0.26774638755E+02  0.51100000000E-03 0.  1.
        -12    1    3    3    0    0 -0.13786854587E+01  0.59732438527E+01  0.34910913315E+01  0.70546533864E+01  0.00000000000E+00 0.  1.
</event>
<event>
 7    1  0.1503436E-008  0.4614232E+02  0.7816164E-02  0.1320468E+00
        -11   -1    0    0    0    0  0.00000000000E+00  0.00000000000E+00  0.45593999997E+02  0.45594000000E+02  0.51100000000E-03 0.  1.
         11   -1    0    0    0    0 -0.00000000000E+00 -0.00000000000E+00 -0.45593999997E+02  0.45594000000E+02  0.51100000000E-03 0. -1.
    9900012    2    1    2    0    0  0.29886580868E+02 -0.21490420253E+02  0.25962811262E+02  0.46142318218E+02  0.10000004164E+02 0.  0.
         12    1    1    2    0    0 -0.29886580868E+02  0.21490420253E+02 -0.25962811262E+02  0.45045681782E+02  0.00000000000E+00 0. -1.
         11    1    3    3    0    0  0.29463365705E+01 -0.68011861108E+01  0.53153332725E+01  0.91208442460E+01  0.51100000000E-03 0. -1.
        -11    1    3    3    0    0  0.18661773564E+02 -0.10775264542E+02  0.15134991228E+02  0.26333174481E+02  0.51100000000E-03 0.  1.
         12    1    3    3    0    0  0.82784707337E+01 -0.39139695996E+01  0.55124867612E+01  0.10688299491E+02  0.00000000000E+00 0. -1.
</event>
<event>
 7    1  0.1503436E-008  0.4614232E+02  0.7816164E-02  0.1320468E+00
        -11   -1    0    0    0    0  0.00000000000E+00  0.00000000000E+00  0.45593999997E+02  0.45594000000E+02  0.51100000000E-03 0.  1.
         11   -1    0    0    0    0 -0.00000000000E+00 -0.00000000000E+00 -0.45593999997E+02  0.45594000000E+02  0.51100000000E-03 0. -1.
    9900012    2    1    2    0    0  0.31323442894E+02 -0.62136157777E+00  0.32366177081E+02  0.46142316702E+02  0.99999903431E+01 0.  0.
         12    1    1    2    0    0 -0.31323442894E+02  0.62136157777E+00 -0.32366177081E+02  0.45045683298E+02  0.00000000000E+00 0. -1.
         11    1    3    3    0    0  0.22232877406E+01 -0.18471116638E+01  0.12568189032E+01  0.31518921131E+01  0.51100000000E-03 0. -1.
        -11    1    3    3    0    0  0.23680697375E+02 -0.64260699829E+00  0.22675271377E+02  0.32792625760E+02  0.51100000000E-03 0.  1.
        -12    1    3    3    0    0  0.54194577783E+01  0.18683570843E+01  0.84340868005E+01  0.10197798829E+02  0.00000000000E+00 0.  1.
</event>
<event>
 7    1  0.1503436E-008  0.4614232E+02  0.7816164E-02  0.1320468E+00
        -11   -1    0    0    0    0  0.00000000000E+00  0.00000000000E+00  0.45593999997E+02  0.45594000000E+02  0.51100000000E-03 0. -1.
         11   -1    0    0    0    0 -0.00000000000E+00 -0.00000000000E+00 -0.45593999997E+02  0.45594000000E+02  0.51100000000E-03 0.  1.
    9900012    2    1    2    0    0  0.18539036324E+02 -0.12708084062E+02 -0.39037446243E+02  0.46142317882E+02  0.10000001099E+02 0.  0.
         12    1    1    2    0    0 -0.18539036324E+02  0.12708084062E+02  0.39037446243E+02  0.45045682118E+02  0.00000000000E+00 0. -1.
         11    1    3    3    0    0  0.37931270942E+01  0.91901364101E+00 -0.78572488030E+01  0.87731840422E+01  0.51100000000E-03 0. -1.
        -11    1    3    3    0    0  0.15460218351E+01 -0.38290104023E+01 -0.70801194403E+01  0.81963159850E+01  0.51100000000E-03 0.  1.
        -12    1    3    3    0    0  0.13199887394E+02 -0.97980873008E+01 -0.24100078000E+02  0.29172817854E+02  0.00000000000E+00 0.  1.
</event>
<event>
 7    1  0.1503436E-008  0.4614232E+02  0.7816164E-02  0.1320468E+00
        -11   -1    0    0    0    0  0.00000000000E+00  0.00000000000E+00  0.45593999997E+02  0.45594000000E+02  0.51100000000E-03 0.  1.
         11   -1    0    0    0    0 -0.00000000000E+00 -0.00000000000E+00 -0.45593999997E+02  0.45594000000E+02  0.51100000000E-03 0. -1.
    9900012    2    1    2    0    0 -0.36232422951E+02  0.18179959160E+02  0.19642151223E+02  0.46142317714E+02  0.99999995684E+01 0.  0.
         12    1    1    2    0    0  0.36232422951E+02 -0.18179959160E+02 -0.19642151223E+02  0.45045682286E+02  0.00000000000E+00 0. -1.
         11    1    3    3    0    0 -0.36955314203E+01  0.48919041099E+00  0.37053674875E+00  0.37461390097E+01  0.51100000000E-03 0. -1.
        -11    1    3    3    0    0 -0.29147492100E+02  0.17172081287E+02  0.15241315973E+02  0.37104641008E+02  0.51100000000E-03 0.  1.
        -12    1    3    3    0    0 -0.33893994309E+01  0.51868746173E+00  0.40302985011E+01  0.52915376964E+01  0.00000000000E+00 0.  1.
</event>
<event>
 7    1  0.1503436E-008  0.4614232E+02  0.7816164E-02  0.1320468E+00
        -11   -1    0    0    0    0  0.00000000000E+00  0.00000000000E+00  0.45593999997E+02  0.45594000000E+02  0.51100000000E-03 0. -1.
         11   -1    0    0    0    0 -0.00000000000E+00 -0.00000000000E+00 -0.45593999997E+02  0.45594000000E+02  0.51100000000E-03 0.  1.
    9900012    2    1    2    0    0 -0.24527195327E+02  0.37777480436E+02 -0.62617833717E+00  0.46142318320E+02  0.10000005095E+02 0.  0.
         12    1    1    2    0    0  0.24527195327E+02 -0.37777480436E+02  0.62617833717E+00  0.45045681680E+02  0.00000000000E+00 0. -1.
         11    1    3    3    0    0 -0.58929916224E+01  0.14638978609E+02  0.15606700806E+01  0.15857576623E+02  0.51100000000E-03 0. -1.
        -11    1    3    3    0    0 -0.17107000430E+02  0.19572294435E+02 -0.36125703331E+00  0.25997205236E+02  0.51100000000E-03 0.  1.
         12    1    3    3    0    0 -0.15272032745E+01  0.35662073919E+01 -0.18255913845E+01  0.42875364612E+01  0.00000000000E+00 0. -1.
</event>
<event>
 7    1  0.1503436E-008  0.4614232E+02  0.7816164E-02  0.1320468E+00
        -11   -1    0    0    0    0  0.00000000000E+00  0.00000000000E+00  0.45593999997E+02  0.45594000000E+02  0.51100000000E-03 0.  1.
         11   -1    0    0    0    0 -0.00000000000E+00 -0.00000000000E+00 -0.45593999997E+02  0.45594000000E+02  0.51100000000E-03 0. -1.
    9900012    2    1    2    0    0 -0.64642771673E+01  0.37145743152E+02  0.24647929212E+02  0.46142317321E+02  0.99999959868E+01 0.  0.
         12    1    1    2    0    0  0.64642771673E+01 -0.37145743152E+02 -0.24647929212E+02  0.45045682679E+02  0.00000000000E+00 0. -1.
         11    1    3    3    0    0  0.38784346497E+00  0.66020042266E+00  0.69223519325E+00  0.10322194414E+01  0.51100000000E-03 0.  1.
        -11    1    3    3    0    0 -0.51642535659E+00 -0.43987104006E+00  0.77732909955E-01  0.68280622963E+00  0.51100000000E-03 0. -1.
        -12    1    3    3    0    0 -0.63356952757E+01  0.36925413769E+02  0.23877961109E+02  0.44427291650E+02  0.00000000000E+00 0.  1.
</event>
<event>
 7    1  0.1503436E-008  0.4614232E+02  0.7816164E-02  0.1320468E+00
        -11   -1    0    0    0    0  0.00000000000E+00  0.00000000000E+00  0.45593999997E+02  0.45594000000E+02  0.51100000000E-03 0. -1.
         11   -1    0    0    0    0 -0.00000000000E+00 -0.00000000000E+00 -0.45593999997E+02  0.45594000000E+02  0.51100000000E-03 0.  1.
    9900012    2    1    2    0    0  0.28997970252E+02  0.28481352081E+01 -0.34352862783E+02  0.46142319471E+02  0.10000015595E+02 0.  0.
         12    1    1    2    0    0 -0.28997970252E+02 -0.28481352081E+01  0.34352862783E+02  0.45045680529E+02  0.00000000000E+00 0. -1.
         11    1    3    3    0    0  0.31890367371E+01 -0.28038914492E+00 -0.91386856031E+01  0.96831889477E+01  0.51100000000E-03 0. -1.
        -11    1    3    3    0    0  0.21981805704E+02  0.15117597792E+01 -0.19709887389E+02  0.29562896691E+02  0.51100000000E-03 0.  1.
        -12    1    3    3    0    0  0.38271278111E+01  0.16167645738E+01 -0.55042897907E+01  0.68962338322E+01  0.00000000000E+00 0.  1.
</event>
<event>
 7    1  0.1503436E-008  0.4614232E+02  0.7816164E-02  0.1320468E+00
        -11   -1    0    0    0    0  0.00000000000E+00  0.00000000000E+00  0.45593999997E+02  0.45594000000E+02  0.51100000000E-03 0.  1.
         11   -1    0    0    0    0 -0.00000000000E+00 -0.00000000000E+00 -0.45593999997E+02  0.45594000000E+02  0.51100000000E-03 0. -1.
    9900012    2    1    2    0    0  0.36556130534E+02 -0.22058629029E+02  0.14358960223E+02  0.46142317266E+02  0.99999954890E+01 0.  0.
         12    1    1    2    0    0 -0.36556130534E+02  0.22058629029E+02 -0.14358960223E+02  0.45045682734E+02  0.00000000000E+00 0. -1.
         11    1    3    3    0    0  0.25639472455E+02 -0.11835138567E+02  0.75542433792E+01  0.29232168000E+02  0.51100000000E-03 0. -1.
        -11    1    3    3    0    0  0.67885005751E+01 -0.86410283983E+01  0.55708643469E+01  0.12320131561E+02  0.51100000000E-03 0.  1.
        -12    1    3    3    0    0  0.41281575030E+01 -0.15824620640E+01  0.12338524974E+01  0.45900177057E+01  0.00000000000E+00 0.  1.
</event>
<event>
 7    1  0.1503436E-008  0.4614232E+02  0.7816164E-02  0.1320468E+00
        -11   -1    0    0    0    0  0.00000000000E+00  0.00000000000E+00  0.45593999997E+02  0.45594000000E+02  0.51100000000E-03 0.  1.
         11   -1    0    0    0    0 -0.00000000000E+00 -0.00000000000E+00 -0.45593999997E+02  0.45594000000E+02  0.51100000000E-03 0. -1.
    9900012    2    1    2    0    0  0.78647638061E+00  0.54994536701E+01  0.44701800922E+02  0.46142317172E+02  0.99999946325E+01 0.  0.
         12    1    1    2    0    0 -0.78647638061E+00 -0.54994536701E+01 -0.44701800922E+02  0.45045682828E+02  0.00000000000E+00 0. -1.
         11    1    3    3    0    0  0.17764562998E+01  0.19445309102E+00  0.24071855352E+02  0.24138099124E+02  0.51100000000E-03 0. -1.
        -11    1    3    3    0    0 -0.17624086955E+01  0.21791378247E+01  0.16653108122E+02  0.16887295119E+02  0.51100000000E-03 0.  1.
         12    1    3    3    0    0  0.77242877630E+00  0.31258627544E+01  0.39768374478E+01  0.51169229288E+01  0.00000000000E+00 0. -1.
</event>
<event>
 7    1  0.1503436E-008  0.4614232E+02  0.7816164E-02  0.1320468E+00
        -11   -1    0    0    0    0  0.00000000000E+00  0.00000000000E+00  0.45593999997E+02  0.45594000000E+02  0.51100000000E-03 0. -1.
         11   -1    0    0    0    0 -0.00000000000E+00 -0.00000000000E+00 -0.45593999997E+02  0.45594000000E+02  0.51100000000E-03 0.  1.
    9900012    2    1    2    0    0 -0.18672552345E+02 -0.36059526453E+02 -0.19497689172E+02  0.46142317164E+02  0.99999945546E+01 0.  0.
         12    1    1    2    0    0  0.18672552345E+02  0.36059526453E+02  0.19497689172E+02  0.45045682836E+02  0.00000000000E+00 0. -1.
         11    1    3    3    0    0 -0.48503402120E+01 -0.34942106961E+01 -0.72190776535E+00  0.60213337097E+01  0.51100000000E-03 0. -1.
        -11    1    3    3    0    0 -0.28111773243E+01 -0.87672559330E+01 -0.41916887195E+01  0.10116212193E+02  0.51100000000E-03 0.  1.
         12    1    3    3    0    0 -0.11011034809E+02 -0.23798059824E+02 -0.14584092687E+02  0.30004771262E+02  0.00000000000E+00 0. -1.
</event>
<event>
 7    1  0.1503436E-008  0.4614232E+02  0.7816164E-02  0.1320468E+00
        -11   -1    0    0    0    0  0.00000000000E+00  0.00000000000E+00  0.45593999997E+02  0.45594000000E+02  0.51100000000E-03 0.  1.
         11   -1    0    0    0    0 -0.00000000000E+00 -0.00000000000E+00 -0.45593999997E+02  0.45594000000E+02  0.51100000000E-03 0. -1.
    9900012    2    1    2    0    0 -0.40192113181E+02  0.33597796389E+01  0.20060394967E+02  0.46142317328E+02  0.99999960480E+01 0.  0.
         12    1    1    2    0    0  0.40192113181E+02 -0.33597796389E+01 -0.20060394967E+02  0.45045682672E+02  0.00000000000E+00 0. -1.
         11    1    3    3    0    0 -0.11838193915E+01 -0.15642155171E+01  0.35982637564E+00  0.19944106441E+01  0.51100000000E-03 0. -1.
        -11    1    3    3    0    0 -0.29717436205E+02  0.45396290456E+01  0.13386047090E+02  0.32907757496E+02  0.51100000000E-03 0.  1.
         12    1    3    3    0    0 -0.92908575846E+01  0.38436611035E+00  0.63145215019E+01  0.11240149188E+02  0.00000000000E+00 0. -1.
</event>
<event>
 7    1  0.1503436E-008  0.4614232E+02  0.7816164E-02  0.1320468E+00
        -11   -1    0    0    0    0  0.00000000000E+00  0.00000000000E+00  0.45593999997E+02  0.45594000000E+02  0.51100000000E-03 0.  1.
         11   -1    0    0    0    0 -0.00000000000E+00 -0.00000000000E+00 -0.45593999997E+02  0.45594000000E+02  0.51100000000E-03 0. -1.
    9900012    2    1    2    0    0  0.39215852008E+02 -0.21917643575E+02  0.32935195408E+01  0.46142318525E+02  0.10000006963E+02 0.  0.
         12    1    1    2    0    0 -0.39215852008E+02  0.21917643575E+02 -0.32935195408E+01  0.45045681475E+02  0.00000000000E+00 0. -1.
         11    1    3    3    0    0  0.26812219136E+01 -0.20817385288E+01  0.29649319708E+01  0.45070398384E+01  0.51100000000E-03 0. -1.
        -11    1    3    3    0    0  0.16856015742E+02 -0.80991888033E+01 -0.49867455709E+00  0.18707506582E+02  0.51100000000E-03 0.  1.
        -12    1    3    3    0    0  0.19678614353E+02 -0.11736716243E+02  0.82726212701E+00  0.22927772104E+02  0.00000000000E+00 0.  1.
</event>
<event>
 7    1  0.1503436E-008  0.4614232E+02  0.7816164E-02  0.1320468E+00
        -11   -1    0    0    0    0  0.00000000000E+00  0.00000000000E+00  0.45593999997E+02  0.45594000000E+02  0.51100000000E-03 0.  1.
         11   -1    0    0    0    0 -0.00000000000E+00 -0.00000000000E+00 -0.45593999997E+02  0.45594000000E+02  0.51100000000E-03 0. -1.
    9900012    2    1    2    0    0 -0.42193938423E+01 -0.15828697249E+00  0.44847354297E+02  0.46142317337E+02  0.99999961305E+01 0.  0.
         12    1    1    2    0    0  0.42193938423E+01  0.15828697249E+00 -0.44847354297E+02  0.45045682663E+02  0.00000000000E+00 0. -1.
         11    1    3    3    0    0 -0.17935274644E+01 -0.28139028988E+01  0.82963447088E+01  0.89422662719E+01  0.51100000000E-03 0. -1.
        -11    1    3    3    0    0  0.30299952741E+00  0.32768292128E+01  0.28226386645E+02  0.28417570651E+02  0.51100000000E-03 0.  1.
        -12    1    3    3    0    0 -0.27288659052E+01 -0.62121328652E+00  0.83246229430E+01  0.87824804138E+01  0.00000000000E+00 0.  1.
</event>
<event>
 7    1  0.1503436E-008  0.4614232E+02  0.7816164E-02  0.1320468E+00
        -11   -1    0    0    0    0  0.00000000000E+00  0.00000000000E+00  0.45593999997E+02  0.45594000000E+02  0.51100000000E-03 0. -1.
         11   -1    0    0    0    0 -0.00000000000E+00 -0.00000000000E+00 -0.45593999997E+02  0.45594000000E+02  0.51100000000E-03 0.  1.
    9900012    2    1    2    0    0  0.16912291099E+02 -0.12322423914E+02 -0.39890420390E+02  0.46142319183E+02  0.10000012969E+02 0.  0.
         12    1    1    2    0    0 -0.16912291099E+02  0.12322423914E+02  0.39890420390E+02  0.45045680817E+02  0.00000000000E+00 0. -1.
         11    1    3    3    0    0  0.11816716569E+02 -0.72810527097E+01 -0.27484079098E+02  0.30789984137E+02  0.51100000000E-03 0.  1.
        -11    1    3    3    0    0  0.11861727691E+01 -0.43487295807E+01 -0.92151391836E+01  0.10258520617E+02  0.51100000000E-03 0. -1.
         12    1    3    3    0    0  0.39094017611E+01 -0.69264162342E+00 -0.31912021085E+01  0.50938144298E+01  0.00000000000E+00 0. -1.
</event>
<event>
 7    1  0.1503436E-008  0.4614232E+02  0.7816164E-02  0.1320468E+00
        -11   -1    0    0    0    0  0.00000000000E+00  0.00000000000E+00  0.45593999997E+02  0.45594000000E+02  0.51100000000E-03 0. -1.
         11   -1    0    0    0    0 -0.00000000000E+00 -0.00000000000E+00 -0.45593999997E+02  0.45594000000E+02  0.51100000000E-03 0.  1.
    9900012    2    1    2    0    0 -0.20093428283E+02  0.36607761904E+02  0.16889023268E+02  0.46142320976E+02  0.10000029316E+02 0.  0.
         12    1    1    2    0    0  0.20093428283E+02 -0.36607761904E+02 -0.16889023268E+02  0.45045679024E+02  0.00000000000E+00 0. -1.
         11    1    3    3    0    0 -0.12525231230E+02  0.22317256259E+02  0.74118990785E+01  0.26643528154E+02  0.51100000000E-03 0. -1.
        -11    1    3    3    0    0 -0.82527074673E+01  0.13631510020E+02  0.82416026136E+01  0.17940157744E+02  0.51100000000E-03 0.  1.
         12    1    3    3    0    0  0.68451041480E+00  0.65899562541E+00  0.12355215761E+01  0.15586350783E+01  0.00000000000E+00 0. -1.
</event>
<event>
 7    1  0.1503436E-008  0.4614232E+02  0.7816164E-02  0.1320468E+00
        -11   -1    0    0    0    0  0.00000000000E+00  0.00000000000E+00  0.45593999997E+02  0.45594000000E+02  0.51100000000E-03 0.  1.
         11   -1    0    0    0    0 -0.00000000000E+00 -0.00000000000E+00 -0.45593999997E+02  0.45594000000E+02  0.51100000000E-03 0. -1.
    9900012    2    1    2    0    0 -0.31857625661E+02 -0.25606674144E+02  0.18934187410E+02  0.46142317339E+02  0.99999961551E+01 0.  0.
         12    1    1    2    0    0  0.31857625661E+02  0.25606674144E+02 -0.18934187410E+02  0.45045682661E+02  0.00000000000E+00 0. -1.
         11    1    3    3    0    0 -0.47107801060E+01 -0.15294234268E+01  0.22828054411E+01  0.54536030446E+01  0.51100000000E-03 0. -1.
        -11    1    3    3    0    0 -0.24412465696E+02 -0.24212107355E+02  0.15591536716E+02  0.37753021618E+02  0.51100000000E-03 0.  1.
        -12    1    3    3    0    0 -0.27343798599E+01  0.13485663781E+00  0.10598452526E+01  0.29356926764E+01  0.00000000000E+00 0.  1.
</event>
<event>
 7    1  0.1503436E-008  0.4614232E+02  0.7816164E-02  0.1320468E+00
        -11   -1    0    0    0    0  0.00000000000E+00  0.00000000000E+00  0.45593999997E+02  0.45594000000E+02  0.51100000000E-03 0. -1.
         11   -1    0    0    0    0 -0.00000000000E+00 -0.00000000000E+00 -0.45593999997E+02  0.45594000000E+02  0.51100000000E-03 0.  1.
    9900012    2    1    2    0    0  0.16281764017E+02 -0.39482233781E+02 -0.14323784283E+02  0.46142318520E+02  0.10000006920E+02 0.  0.
         12    1    1    2    0    0 -0.16281764017E+02  0.39482233781E+02  0.14323784283E+02  0.45045681480E+02  0.00000000000E+00 0. -1.
         11    1    3    3    0    0  0.58531716075E+01 -0.62803161153E+01 -0.52353979995E+01  0.10055415499E+02  0.51100000000E-03 0. -1.
        -11    1    3    3    0    0  0.48628387543E+01 -0.20009796743E+02 -0.48696174329E+01  0.21160159277E+02  0.51100000000E-03 0.  1.
        -12    1    3    3    0    0  0.55657536555E+01 -0.13192120923E+02 -0.42187688503E+01  0.14926743744E+02  0.00000000000E+00 0.  1.
</event>
<event>
 7    1  0.1503436E-008  0.4614232E+02  0.7816164E-02  0.1320468E+00
        -11   -1    0    0    0    0  0.00000000000E+00  0.00000000000E+00  0.45593999997E+02  0.45594000000E+02  0.51100000000E-03 0. -1.
         11   -1    0    0    0    0 -0.00000000000E+00 -0.00000000000E+00 -0.45593999997E+02  0.45594000000E+02  0.51100000000E-03 0.  1.
    9900012    2    1    2    0    0 -0.41987288661E+02 -0.16228202679E+02  0.16812355912E+01  0.46142317361E+02  0.99999963482E+01 0.  0.
         12    1    1    2    0    0  0.41987288661E+02  0.16228202679E+02 -0.16812355912E+01  0.45045682639E+02  0.00000000000E+00 0. -1.
         11    1    3    3    0    0 -0.20358851971E+02 -0.78185482921E+01  0.14307049716E+01  0.21855421935E+02  0.51100000000E-03 0.  1.
        -11    1    3    3    0    0 -0.19327521172E+02 -0.70944583496E+01  0.25913380828E+01  0.20750890276E+02  0.51100000000E-03 0. -1.
         12    1    3    3    0    0 -0.23009155185E+01 -0.13151960373E+01 -0.23408074631E+01  0.35360051498E+01  0.00000000000E+00 0. -1.
</event>
<event>
 7    1  0.1503436E-008  0.4614232E+02  0.7816164E-02  0.1320468E+00
        -11   -1    0    0    0    0  0.00000000000E+00  0.00000000000E+00  0.45593999997E+02  0.45594000000E+02  0.51100000000E-03 0.  1.
         11   -1    0    0    0    0 -0.00000000000E+00 -0.00000000000E+00 -0.45593999997E+02  0.45594000000E+02  0.51100000000E-03 0. -1.
    9900012    2    1    2    0    0  0.17165630302E+02  0.35832300243E+01  0.41492349342E+02  0.46142318131E+02  0.10000003374E+02 0.  0.
         12    1    1    2    0    0 -0.17165630302E+02 -0.35832300243E+01 -0.41492349342E+02  0.45045681869E+02  0.00000000000E+00 0. -1.
         11    1    3    3    0    0  0.59017785342E+01  0.11777320145E+01  0.70298290492E+01  0.92540012582E+01  0.51100000000E-03 0. -1.
        -11    1    3    3    0    0  0.96172509033E+01  0.13231692622E+01  0.33095952105E+02  0.34490351373E+02  0.51100000000E-03 0.  1.
        -12    1    3    3    0    0  0.16466008649E+01  0.10823287476E+01  0.13665681879E+01  0.23979654998E+01  0.00000000000E+00 0.  1.
</event>
<event>
 7    1  0.1503436E-008  0.4614232E+02  0.7816164E-02  0.1320468E+00
        -11   -1    0    0    0    0  0.00000000000E+00  0.00000000000E+00  0.45593999997E+02  0.45594000000E+02  0.51100000000E-03 0.  1.
         11   -1    0    0    0    0 -0.00000000000E+00 -0.00000000000E+00 -0.45593999997E+02  0.45594000000E+02  0.51100000000E-03 0. -1.
    9900012    2    1    2    0    0 -0.31203837597E+02  0.30693011646E+02  0.10647680809E+02  0.46142317063E+02  0.99999936305E+01 0.  0.
         12    1    1    2    0    0  0.31203837597E+02 -0.30693011646E+02 -0.10647680809E+02  0.45045682937E+02  0.00000000000E+00 0. -1.
         11    1    3    3    0    0 -0.12079936085E+01 -0.71784332578E-01 -0.20220958160E+00  0.12269028179E+01  0.51100000000E-03 0. -1.
        -11    1    3    3    0    0 -0.28989376224E+02  0.30462728399E+02  0.11602174908E+02  0.43623069793E+02  0.51100000000E-03 0.  1.
        -12    1    3    3    0    0 -0.10064677654E+01  0.30206757952E+00 -0.75228451782E+00  0.12923444514E+01  0.00000000000E+00 0.  1.
</event>
<event>
 7    1  0.1503436E-008  0.4614232E+02  0.7816164E-02  0.1320468E+00
        -11   -1    0    0    0    0  0.00000000000E+00  0.00000000000E+00  0.45593999997E+02  0.45594000000E+02  0.51100000000E-03 0.  1.
         11   -1    0    0    0    0 -0.00000000000E+00 -0.00000000000E+00 -0.45593999997E+02  0.45594000000E+02  0.51100000000E-03 0. -1.
    9900012    2    1    2    0    0  0.25688089494E+02  0.34593408232E+02 -0.13135126902E+02  0.46142318813E+02  0.10000009588E+02 0.  0.
         12    1    1    2    0    0 -0.25688089494E+02 -0.34593408232E+02  0.13135126902E+02  0.45045681187E+02  0.00000000000E+00 0. -1.
         11    1    3    3    0    0  0.87325537667E+00  0.37562773633E+01  0.74926196923E+00  0.39285605942E+01  0.51100000000E-03 0. -1.
        -11    1    3    3    0    0  0.10338146283E+02  0.16543539123E+02 -0.73337704096E+01  0.20841068685E+02  0.51100000000E-03 0.  1.
        -12    1    3    3    0    0  0.14476687834E+02  0.14293591746E+02 -0.65506184616E+01  0.21372689533E+02  0.00000000000E+00 0.  1.
</event>
<event>
 7    1  0.1503436E-008  0.4614232E+02  0.7816164E-02  0.1320468E+00
        -11   -1    0    0    0    0  0.00000000000E+00  0.00000000000E+00  0.45593999997E+02  0.45594000000E+02  0.51100000000E-03 0.  1.
         11   -1    0    0    0    0 -0.00000000000E+00 -0.00000000000E+00 -0.45593999997E+02  0.45594000000E+02  0.51100000000E-03 0. -1.
    9900012    2    1    2    0    0  0.90365767139E+01 -0.92307215551E+01  0.43153767400E+02  0.46142316744E+02  0.99999907275E+01 0.  0.
         12    1    1    2    0    0 -0.90365767139E+01  0.92307215551E+01 -0.43153767400E+02  0.45045683256E+02  0.00000000000E+00 0. -1.
         11    1    3    3    0    0  0.32830609742E+01 -0.73629943917E+01  0.14714697601E+02  0.16778393890E+02  0.51100000000E-03 0. -1.
        -11    1    3    3    0    0  0.25248480218E-01 -0.47795696461E-01  0.93678885083E+01  0.93680444746E+01  0.51100000000E-03 0.  1.
        -12    1    3    3    0    0  0.57282672596E+01 -0.18199314669E+01  0.19071181291E+02  0.19995878380E+02  0.00000000000E+00 0.  1.
</event>
<event>
 7    1  0.1503436E-008  0.4614232E+02  0.7816164E-02  0.1320468E+00
        -11   -1    0    0    0    0  0.00000000000E+00  0.00000000000E+00  0.45593999997E+02  0.45594000000E+02  0.51100000000E-03 0.  1.
         11   -1    0    0    0    0 -0.00000000000E+00 -0.00000000000E+00 -0.45593999997E+02  0.45594000000E+02  0.51100000000E-03 0. -1.
    9900012    2    1    2    0    0 -0.22732898423E+02  0.13853826551E+02  0.36337313283E+02  0.46142317438E+02  0.99999970562E+01 0.  0.
         12    1    1    2    0    0  0.22732898423E+02 -0.13853826551E+02 -0.36337313283E+02  0.45045682562E+02  0.00000000000E+00 0. -1.
         11    1    3    3    0    0 -0.31703049449E+01 -0.69512507927E+00  0.41314575357E+01  0.52538532479E+01  0.51100000000E-03 0. -1.
        -11    1    3    3    0    0 -0.91592717185E+01  0.98858611259E+01  0.20624916733E+02  0.24637566826E+02  0.51100000000E-03 0.  1.
        -12    1    3    3    0    0 -0.10403321760E+02  0.46630905044E+01  0.11580939014E+02  0.16250897364E+02  0.00000000000E+00 0.  1.
</event>
<event>
 7    1  0.1503436E-008  0.4614232E+02  0.7816164E-02  0.1320468E+00
        -11   -1    0    0    0    0  0.00000000000E+00  0.00000000000E+00  0.45593999997E+02  0.45594000000E+02  0.51100000000E-03 0. -1.
         11   -1    0    0    0    0 -0.00000000000E+00 -0.00000000000E+00 -0.45593999997E+02  0.45594000000E+02  0.51100000000E-03 0.  1.
    9900012    2    1    2    0    0 -0.20906860381E+02  0.52124737460E+01 -0.39558143375E+02  0.46142318733E+02  0.10000008860E+02 0.  0.
         12    1    1    2    0    0  0.20906860381E+02 -0.52124737460E+01  0.39558143375E+02  0.45045681267E+02  0.00000000000E+00 0. -1.
         11    1    3    3    0    0 -0.30014014559E+00 -0.82350076896E+00 -0.90541086897E+00  0.12601613890E+01  0.51100000000E-03 0. -1.
        -11    1    3    3    0    0 -0.15738195594E+02  0.34085942728E+01 -0.34123910953E+02  0.37732620032E+02  0.51100000000E-03 0.  1.
         12    1    3    3    0    0 -0.48685246405E+01  0.26273802421E+01 -0.45288215535E+01  0.71495373120E+01  0.00000000000E+00 0. -1.
</event>
<event>
 7    1  0.1503436E-008  0.4614232E+02  0.7816164E-02  0.1320468E+00
        -11   -1    0    0    0    0  0.00000000000E+00  0.00000000000E+00  0.45593999997E+02  0.45594000000E+02  0.51100000000E-03 0.  1.
         11   -1    0    0    0    0 -0.00000000000E+00 -0.00000000000E+00 -0.45593999997E+02  0.45594000000E+02  0.51100000000E-03 0. -1.
    9900012    2    1    2    0    0  0.11192147296E+02 -0.14622541794E+02  0.41109982139E+02  0.46142317398E+02  0.99999966888E+01 0.  0.
         12    1    1    2    0    0 -0.11192147296E+02  0.14622541794E+02 -0.41109982139E+02  0.45045682602E+02  0.00000000000E+00 0. -1.
         11    1    3    3    0    0  0.56983963755E+01 -0.11660058932E+01  0.10240235935E+02  0.11776829933E+02  0.51100000000E-03 0. -1.
        -11    1    3    3    0    0  0.39135957294E+01 -0.79455472807E+01  0.14183522721E+02  0.16721850082E+02  0.51100000000E-03 0.  1.
        -12    1    3    3    0    0  0.15801551910E+01 -0.55109886205E+01  0.16686223482E+02  0.17643637383E+02  0.00000000000E+00 0.  1.
</event>
<event>
 7    1  0.1503436E-008  0.4614232E+02  0.7816164E-02  0.1320468E+00
        -11   -1    0    0    0    0  0.00000000000E+00  0.00000000000E+00  0.45593999997E+02  0.45594000000E+02  0.51100000000E-03 0. -1.
         11   -1    0    0    0    0 -0.00000000000E+00 -0.00000000000E+00 -0.45593999997E+02  0.45594000000E+02  0.51100000000E-03 0.  1.
    9900012    2    1    2    0    0  0.96819721145E+00 -0.39061432559E+02 -0.22413846742E+02  0.46142318240E+02  0.10000004371E+02 0.  0.
         12    1    1    2    0    0 -0.96819721145E+00  0.39061432559E+02  0.22413846742E+02  0.45045681760E+02  0.00000000000E+00 0. -1.
         11    1    3    3    0    0 -0.10988063305E+01 -0.66874840356E+01 -0.12285458911E+01  0.68876079553E+01  0.51100000000E-03 0. -1.
        -11    1    3    3    0    0  0.34857107690E+01 -0.15928982322E+02 -0.81914325935E+01  0.18247800568E+02  0.51100000000E-03 0.  1.
        -12    1    3    3    0    0 -0.14187072271E+01 -0.16444966201E+02 -0.12993868257E+02  0.21006909717E+02  0.00000000000E+00 0.  1.
</event>
<event>
 7    1  0.1503436E-008  0.4614232E+02  0.7816164E-02  0.1320468E+00
        -11   -1    0    0    0    0  0.00000000000E+00  0.00000000000E+00  0.45593999997E+02  0.45594000000E+02  0.51100000000E-03 0. -1.
         11   -1    0    0    0    0 -0.00000000000E+00 -0.00000000000E+00 -0.45593999997E+02  0.45594000000E+02  0.51100000000E-03 0.  1.
    9900012    2    1    2    0    0 -0.36767611909E+02  0.22475377866E+02 -0.13119207457E+02  0.46142317632E+02  0.99999988236E+01 0.  0.
         12    1    1    2    0    0  0.36767611909E+02 -0.22475377866E+02  0.13119207457E+02  0.45045682368E+02  0.00000000000E+00 0. -1.
         11    1    3    3    0    0 -0.12459811527E+02  0.34012274961E+01 -0.16847253010E+01  0.13025112336E+02  0.51100000000E-03 0. -1.
        -11    1    3    3    0    0 -0.23510020124E+02  0.17886838562E+02 -0.10277999088E+02  0.31277744571E+02  0.51100000000E-03 0.  1.
         12    1    3    3    0    0 -0.79778025771E+00  0.11873118079E+01 -0.11564830686E+01  0.18394607244E+01  0.00000000000E+00 0. -1.
</event>
<event>
 7    1  0.1503436E-008  0.4614232E+02  0.7816164E-02  0.1320468E+00
        -11   -1    0    0    0    0  0.00000000000E+00  0.00000000000E+00  0.45593999997E+02  0.45594000000E+02  0.51100000000E-03 0.  1.
         11   -1    0    0    0    0 -0.00000000000E+00 -0.00000000000E+00 -0.45593999997E+02  0.45594000000E+02  0.51100000000E-03 0. -1.
    9900012    2    1    2    0    0  0.26671127022E+01 -0.12285127131E+02  0.43255931680E+02  0.46142318028E+02  0.10000002438E+02 0.  0.
         12    1    1    2    0    0 -0.26671127022E+01  0.12285127131E+02 -0.43255931680E+02  0.45045681972E+02  0.00000000000E+00 0. -1.
         11    1    3    3    0    0  0.21077056932E+01 -0.57672176774E+01  0.26430891735E+02  0.27134761123E+02  0.51100000000E-03 0.  1.
        -11    1    3    3    0    0  0.36948173086E+00 -0.24464705945E+01  0.13563637732E+02  0.13787458211E+02  0.51100000000E-03 0. -1.
         12    1    3    3    0    0  0.18992527819E+00 -0.40714388587E+01  0.32614022125E+01  0.52200986948E+01  0.00000000000E+00 0. -1.
</event>
<event>
 7    1  0.1503436E-008  0.4614232E+02  0.7816164E-02  0.1320468E+00
        -11   -1    0    0    0    0  0.00000000000E+00  0.00000000000E+00  0.45593999997E+02  0.45594000000E+02  0.51100000000E-03 0.  1.
         11   -1    0    0    0    0 -0.00000000000E+00 -0.00000000000E+00 -0.45593999997E+02  0.45594000000E+02  0.51100000000E-03 0. -1.
    9900012    2    1    2    0    0  0.81501599176E+01  0.10273378614E+02  0.43094617886E+02  0.46142317571E+02  0.99999982619E+01 0.  0.
         12    1    1    2    0    0 -0.81501599176E+01 -0.10273378614E+02 -0.43094617886E+02  0.45045682429E+02  0.00000000000E+00 0. -1.
         11    1    3    3    0    0  0.58438320056E+01  0.54816830562E+01  0.30983953987E+02  0.32003197130E+02  0.51100000000E-03 0. -1.
        -11    1    3    3    0    0 -0.69890610435E+00  0.23115444865E+01  0.84662419035E+01  0.88039173034E+01  0.51100000000E-03 0.  1.
         12    1    3    3    0    0  0.30052340164E+01  0.24801510717E+01  0.36444219951E+01  0.53352031367E+01  0.00000000000E+00 0. -1.
</event>
<event>
 7    1  0.1503436E-008  0.4614232E+02  0.7816164E-02  0.1320468E+00
        -11   -1    0    0    0    0  0.00000000000E+00  0.00000000000E+00  0.45593999997E+02  0.45594000000E+02  0.51100000000E-03 0. -1.
         11   -1    0    0    0    0 -0.00000000000E+00 -0.00000000000E+00 -0.45593999997E+02  0.45594000000E+02  0.51100000000E-03 0.  1.
    9900012    2    1    2    0    0  0.34596179005E+02  0.11665662765E+02  0.26384280487E+02  0.46142317118E+02  0.99999941345E+01 0.  0.
         12    1    1    2    0    0 -0.34596179005E+02 -0.11665662765E+02 -0.26384280487E+02  0.45045682882E+02  0.00000000000E+00 0. -1.
         11    1    3    3    0    0  0.14270051201E+02  0.35187351080E+01  0.69952264642E+01  0.16277255653E+02  0.51100000000E-03 0. -1.
        -11    1    3    3    0    0  0.72876050002E+01  0.12228717024E+01  0.35009470333E+01  0.81768717876E+01  0.51100000000E-03 0.  1.
         12    1    3    3    0    0  0.13038522803E+02  0.69240559544E+01  0.15888106990E+02  0.21688189677E+02  0.00000000000E+00 0. -1.
</event>
<event>
 7    1  0.1503436E-008  0.4614232E+02  0.7816164E-02  0.1320468E+00
        -11   -1    0    0    0    0  0.00000000000E+00  0.00000000000E+00  0.45593999997E+02  0.45594000000E+02  0.51100000000E-03 0.  1.
         11   -1    0    0    0    0 -0.00000000000E+00 -0.00000000000E+00 -0.45593999997E+02  0.45594000000E+02  0.51100000000E-03 0. -1.
    9900012    2    1    2    0    0  0.20136429506E+02 -0.34211536087E+02  0.21288694661E+02  0.46142317465E+02  0.99999972965E+01 0.  0.
         12    1    1    2    0    0 -0.20136429506E+02  0.34211536087E+02 -0.21288694661E+02  0.45045682535E+02  0.00000000000E+00 0. -1.
         11    1    3    3    0    0  0.88856340165E+01 -0.12205411340E+02  0.10108874570E+02  0.18169091974E+02  0.51100000000E-03 0. -1.
        -11    1    3    3    0    0  0.64018045116E+01 -0.11197494070E+02  0.94755416952E+01  0.16004776323E+02  0.51100000000E-03 0.  1.
         12    1    3    3    0    0  0.48489909782E+01 -0.10808630677E+02  0.17042783957E+01  0.11968449168E+02  0.00000000000E+00 0. -1.
</event>
<event>
 7    1  0.1503436E-008  0.4614232E+02  0.7816164E-02  0.1320468E+00
        -11   -1    0    0    0    0  0.00000000000E+00  0.00000000000E+00  0.45593999997E+02  0.45594000000E+02  0.51100000000E-03 0. -1.
         11   -1    0    0    0    0 -0.00000000000E+00 -0.00000000000E+00 -0.45593999997E+02  0.45594000000E+02  0.51100000000E-03 0.  1.
    9900012    2    1    2    0    0  0.49898458805E+01  0.32729108418E+02 -0.30545382448E+02  0.46142317758E+02  0.99999999734E+01 0.  0.
         12    1    1    2    0    0 -0.49898458805E+01 -0.32729108418E+02  0.30545382448E+02  0.45045682242E+02  0.00000000000E+00 0. -1.
         11    1    3    3    0    0  0.27774736057E+01  0.18915349913E+02 -0.17276915514E+02  0.25768132100E+02  0.51100000000E-03 0. -1.
        -11    1    3    3    0    0  0.28801210491E+01  0.44533006923E+01 -0.19015653111E+01  0.56340869010E+01  0.51100000000E-03 0.  1.
         12    1    3    3    0    0 -0.66774877426E+00  0.93604578129E+01 -0.11366901622E+02  0.14740098758E+02  0.00000000000E+00 0. -1.
</event>
<event>
 7    1  0.1503436E-008  0.4614232E+02  0.7816164E-02  0.1320468E+00
        -11   -1    0    0    0    0  0.00000000000E+00  0.00000000000E+00  0.45593999997E+02  0.45594000000E+02  0.51100000000E-03 0. -1.
         11   -1    0    0    0    0 -0.00000000000E+00 -0.00000000000E+00 -0.45593999997E+02  0.45594000000E+02  0.51100000000E-03 0.  1.
    9900012    2    1    2    0    0  0.42382095801E+02  0.10908927690E+02 -0.10670835622E+02  0.46142317846E+02  0.10000000774E+02 0.  0.
         12    1    1    2    0    0 -0.42382095801E+02 -0.10908927690E+02  0.10670835622E+02  0.45045682154E+02  0.00000000000E+00 0. -1.
         11    1    3    3    0    0  0.18683466738E+02  0.57098226265E+00 -0.36250897586E+01  0.19040462865E+02  0.51100000000E-03 0. -1.
        -11    1    3    3    0    0  0.10171176616E+02  0.33624286517E+01 -0.11277647030E+01  0.10771750725E+02  0.51100000000E-03 0.  1.
         12    1    3    3    0    0  0.13527452447E+02  0.69755167760E+01 -0.59179811607E+01  0.16330104256E+02  0.00000000000E+00 0. -1.
</event>
<event>
 7    1  0.1503436E-008  0.4614232E+02  0.7816164E-02  0.1320468E+00
        -11   -1    0    0    0    0  0.00000000000E+00  0.00000000000E+00  0.45593999997E+02  0.45594000000E+02  0.51100000000E-03 0.  1.
         11   -1    0    0    0    0 -0.00000000000E+00 -0.00000000000E+00 -0.45593999997E+02  0.45594000000E+02  0.51100000000E-03 0. -1.
    9900012    2    1    2    0    0  0.23419746136E+01 -0.13362283978E+02  0.42954371336E+02  0.46142317686E+02  0.99999993182E+01 0.  0.
         12    1    1    2    0    0 -0.23419746136E+01  0.13362283978E+02 -0.42954371336E+02  0.45045682314E+02  0.00000000000E+00 0. -1.
         11    1    3    3    0    0 -0.13678469262E+01  0.17535225445E+00  0.17523382687E+01  0.22298975976E+01  0.51100000000E-03 0. -1.
        -11    1    3    3    0    0  0.10251731413E+01 -0.14802746093E+01  0.15335816075E+01  0.23651777305E+01  0.51100000000E-03 0.  1.
        -12    1    3    3    0    0  0.26846483985E+01 -0.12057361623E+02  0.39668451460E+02  0.41547242358E+02  0.00000000000E+00 0.  1.
</event>
<event>
 7    1  0.1503436E-008  0.4614232E+02  0.7816164E-02  0.1320468E+00
        -11   -1    0    0    0    0  0.00000000000E+00  0.00000000000E+00  0.45593999997E+02  0.45594000000E+02  0.51100000000E-03 0.  1.
         11   -1    0    0    0    0 -0.00000000000E+00 -0.00000000000E+00 -0.45593999997E+02  0.45594000000E+02  0.51100000000E-03 0. -1.
    9900012    2    1    2    0    0  0.35116660610E+01 -0.66993953264E+01  0.44406077569E+02  0.46142318505E+02  0.10000006788E+02 0.  0.
         12    1    1    2    0    0 -0.35116660610E+01  0.66993953264E+01 -0.44406077569E+02  0.45045681495E+02  0.00000000000E+00 0. -1.
         11    1    3    3    0    0  0.47153346681E+01 -0.19772270993E+01  0.10736775603E+02  0.11892104887E+02  0.51100000000E-03 0. -1.
        -11    1    3    3    0    0  0.12940025333E+00 -0.21826687139E+01  0.52578864192E+01  0.56943969829E+01  0.51100000000E-03 0.  1.
         12    1    3    3    0    0 -0.13330688605E+01 -0.25394995132E+01  0.28411415546E+02  0.28555816635E+02  0.00000000000E+00 0. -1.
</event>
<event>
 7    1  0.1503436E-008  0.4614232E+02  0.7816164E-02  0.1320468E+00
        -11   -1    0    0    0    0  0.00000000000E+00  0.00000000000E+00  0.45593999997E+02  0.45594000000E+02  0.51100000000E-03 0.  1.
         11   -1    0    0    0    0 -0.00000000000E+00 -0.00000000000E+00 -0.45593999997E+02  0.45594000000E+02  0.51100000000E-03 0. -1.
    9900012    2    1    2    0    0 -0.36346022637E+02  0.78690511156E+01  0.25419640406E+02  0.46142318239E+02  0.10000004354E+02 0.  0.
         12    1    1    2    0    0  0.36346022637E+02 -0.78690511156E+01 -0.25419640406E+02  0.45045681761E+02  0.00000000000E+00 0. -1.
         11    1    3    3    0    0 -0.82627508104E+01  0.37529360416E+01  0.25582633171E+01  0.94288011617E+01  0.51100000000E-03 0. -1.
        -11    1    3    3    0    0 -0.24836939789E+02  0.44958638365E+01  0.21561134618E+02  0.33195916857E+02  0.51100000000E-03 0.  1.
         12    1    3    3    0    0 -0.32463320379E+01 -0.37974876246E+00  0.13002424708E+01  0.35176002197E+01  0.00000000000E+00 0. -1.
</event>
<event>
 7    1  0.1503436E-008  0.4614232E+02  0.7816164E-02  0.1320468E+00
        -11   -1    0    0    0    0  0.00000000000E+00  0.00000000000E+00  0.45593999997E+02  0.45594000000E+02  0.51100000000E-03 0. -1.
         11   -1    0    0    0    0 -0.00000000000E+00 -0.00000000000E+00 -0.45593999997E+02  0.45594000000E+02  0.51100000000E-03 0.  1.
    9900012    2    1    2    0    0 -0.16594452176E+02  0.22020748166E+02 -0.35620559675E+02  0.46142318028E+02  0.10000002432E+02 0.  0.
         12    1    1    2    0    0  0.16594452176E+02 -0.22020748166E+02  0.35620559675E+02  0.45045681972E+02  0.00000000000E+00 0. -1.
         11    1    3    3    0    0 -0.68807292550E+01  0.76033784441E+01 -0.19256608787E+02  0.21816800432E+02  0.51100000000E-03 0. -1.
        -11    1    3    3    0    0 -0.84092653198E+01  0.88956579212E+01 -0.12244453091E+02  0.17314014694E+02  0.51100000000E-03 0.  1.
         12    1    3    3    0    0 -0.13044576007E+01  0.55217118010E+01 -0.41194977964E+01  0.70115029017E+01  0.00000000000E+00 0. -1.
</event>
<event>
 7    1  0.1587592E-008  0.4614232E+02  0.7816164E-02  0.1320468E+00
        -11   -1    0    0    0    0  0.00000000000E+00  0.00000000000E+00  0.45593999997E+02  0.45594000000E+02  0.51100000000E-03 0. -1.
         11   -1    0    0    0    0 -0.00000000000E+00 -0.00000000000E+00 -0.45593999997E+02  0.45594000000E+02  0.51100000000E-03 0.  1.
    9900012    2    1    2    0    0  0.22222991639E+02 -0.25317000062E+02 -0.29904879848E+02  0.46142315542E+02  0.99999797667E+01 0.  0.
         12    1    1    2    0    0 -0.22222991639E+02  0.25317000062E+02  0.29904879848E+02  0.45045684458E+02  0.00000000000E+00 0. -1.
         11    1    3    3    0    0  0.74021881984E+01 -0.43388244517E+01 -0.41608550689E+01  0.95357486812E+01  0.51100000000E-03 0. -1.
        -11    1    3    3    0    0  0.10046736139E+02 -0.15564362819E+02 -0.20821561420E+02  0.27869763495E+02  0.51100000000E-03 0.  1.
        -12    1    3    3    0    0  0.47740673020E+01 -0.54138127913E+01 -0.49224633590E+01  0.87368033664E+01  0.00000000000E+00 0.  1.
</event>
<event>
 7    1  0.1503436E-008  0.4614232E+02  0.7816164E-02  0.1320468E+00
        -11   -1    0    0    0    0  0.00000000000E+00  0.00000000000E+00  0.45593999997E+02  0.45594000000E+02  0.51100000000E-03 0.  1.
         11   -1    0    0    0    0 -0.00000000000E+00 -0.00000000000E+00 -0.45593999997E+02  0.45594000000E+02  0.51100000000E-03 0. -1.
    9900012    2    1    2    0    0  0.40717992968E+02  0.65363511046E+01  0.18122764645E+02  0.46142318348E+02  0.10000005354E+02 0.  0.
         12    1    1    2    0    0 -0.40717992968E+02 -0.65363511046E+01 -0.18122764645E+02  0.45045681652E+02  0.00000000000E+00 0. -1.
         11    1    3    3    0    0  0.22787326283E+02  0.26503612314E+01  0.90324953014E+01  0.24655073016E+02  0.51100000000E-03 0.  1.
        -11    1    3    3    0    0  0.71294653323E+00 -0.45682034697E+00  0.23434505093E+01  0.24917339624E+01  0.51100000000E-03 0. -1.
         12    1    3    3    0    0  0.17217720152E+02  0.43428102201E+01  0.67468188340E+01  0.18995511370E+02  0.00000000000E+00 0. -1.
</event>
<event>
 7    1  0.1503436E-008  0.4614232E+02  0.7816164E-02  0.1320468E+00
        -11   -1    0    0    0    0  0.00000000000E+00  0.00000000000E+00  0.45593999997E+02  0.45594000000E+02  0.51100000000E-03 0. -1.
         11   -1    0    0    0    0 -0.00000000000E+00 -0.00000000000E+00 -0.45593999997E+02  0.45594000000E+02  0.51100000000E-03 0.  1.
    9900012    2    1    2    0    0  0.42468600987E+02  0.10696809939E+02  0.10540857303E+02  0.46142317795E+02  0.10000000309E+02 0.  0.
         12    1    1    2    0    0 -0.42468600987E+02 -0.10696809939E+02 -0.10540857303E+02  0.45045682205E+02  0.00000000000E+00 0. -1.
         11    1    3    3    0    0  0.13233481313E+01  0.32613197374E-02 -0.11993563144E+01  0.17859778114E+01  0.51100000000E-03 0. -1.
        -11    1    3    3    0    0  0.18287422456E+02  0.62818239596E+01  0.72302121303E+01  0.20643815055E+02  0.51100000000E-03 0.  1.
        -12    1    3    3    0    0  0.22857830400E+02  0.44117246592E+01  0.45100014870E+01  0.23712524928E+02  0.00000000000E+00 0.  1.
</event>
<event>
 7    1  0.1503436E-008  0.4614232E+02  0.7816164E-02  0.1320468E+00
        -11   -1    0    0    0    0  0.00000000000E+00  0.00000000000E+00  0.45593999997E+02  0.45594000000E+02  0.51100000000E-03 0.  1.
         11   -1    0    0    0    0 -0.00000000000E+00 -0.00000000000E+00 -0.45593999997E+02  0.45594000000E+02  0.51100000000E-03 0. -1.
    9900012    2    1    2    0    0  0.26756396409E+02 -0.20646060874E+02  0.29781686876E+02  0.46142318169E+02  0.10000003722E+02 0.  0.
         12    1    1    2    0    0 -0.26756396409E+02  0.20646060874E+02 -0.29781686876E+02  0.45045681831E+02  0.00000000000E+00 0. -1.
         11    1    3    3    0    0  0.34043575502E+01 -0.56989650757E+01  0.10290668194E+02  0.12246048563E+02  0.51100000000E-03 0. -1.
        -11    1    3    3    0    0  0.85935053121E+01 -0.51835956760E+01  0.69808589769E+01  0.12224990388E+02  0.51100000000E-03 0.  1.
         12    1    3    3    0    0  0.14758533547E+02 -0.97635001219E+01  0.12510159705E+02  0.21671279218E+02  0.00000000000E+00 0. -1.
</event>
<event>
 7    1  0.1503436E-008  0.4614232E+02  0.7816164E-02  0.1320468E+00
        -11   -1    0    0    0    0  0.00000000000E+00  0.00000000000E+00  0.45593999997E+02  0.45594000000E+02  0.51100000000E-03 0.  1.
         11   -1    0    0    0    0 -0.00000000000E+00 -0.00000000000E+00 -0.45593999997E+02  0.45594000000E+02  0.51100000000E-03 0. -1.
    9900012    2    1    2    0    0 -0.37793728227E+00  0.12553449428E+01  0.45026601176E+02  0.46142317177E+02  0.99999946716E+01 0.  0.
         12    1    1    2    0    0  0.37793728227E+00 -0.12553449428E+01 -0.45026601176E+02  0.45045682823E+02  0.00000000000E+00 0. -1.
         11    1    3    3    0    0  0.39196697219E+01  0.22598858156E+01  0.24390664172E+02  0.24806761047E+02  0.51100000000E-03 0. -1.
        -11    1    3    3    0    0 -0.43062719184E+01 -0.15485128203E+01  0.19905600943E+02  0.20424857869E+02  0.51100000000E-03 0.  1.
        -12    1    3    3    0    0  0.86649141726E-02  0.54397194751E+00  0.73033606128E+00  0.91069826113E+00  0.00000000000E+00 0.  1.
</event>
<event>
 7    1  0.1503436E-008  0.4614232E+02  0.7816164E-02  0.1320468E+00
        -11   -1    0    0    0    0  0.00000000000E+00  0.00000000000E+00  0.45593999997E+02  0.45594000000E+02  0.51100000000E-03 0.  1.
         11   -1    0    0    0    0 -0.00000000000E+00 -0.00000000000E+00 -0.45593999997E+02  0.45594000000E+02  0.51100000000E-03 0. -1.
    9900012    2    1    2    0    0 -0.28109832117E+02  0.34865231967E+02  0.48338907128E+01  0.46142316953E+02  0.99999926310E+01 0.  0.
         12    1    1    2    0    0  0.28109832117E+02 -0.34865231967E+02 -0.48338907128E+01  0.45045683047E+02  0.00000000000E+00 0. -1.
         11    1    3    3    0    0 -0.51723388451E+01  0.11496264312E+02  0.37494011897E+01  0.13152003338E+02  0.51100000000E-03 0. -1.
        -11    1    3    3    0    0 -0.11892402243E+02  0.14841984594E+02  0.58713219359E+00  0.19027833883E+02  0.51100000000E-03 0.  1.
        -12    1    3    3    0    0 -0.11045091029E+02  0.85269830604E+01  0.49735732956E+00  0.13962479732E+02  0.00000000000E+00 0.  1.
</event>
<event>
 7    1  0.1503436E-008  0.4614232E+02  0.7816164E-02  0.1320468E+00
        -11   -1    0    0    0    0  0.00000000000E+00  0.00000000000E+00  0.45593999997E+02  0.45594000000E+02  0.51100000000E-03 0. -1.
         11   -1    0    0    0    0 -0.00000000000E+00 -0.00000000000E+00 -0.45593999997E+02  0.45594000000E+02  0.51100000000E-03 0.  1.
    9900012    2    1    2    0    0 -0.25716085038E+02  0.27385825750E+00 -0.36982717017E+02  0.46142318898E+02  0.10000010365E+02 0.  0.
         12    1    1    2    0    0  0.25716085038E+02 -0.27385825750E+00  0.36982717017E+02  0.45045681102E+02  0.00000000000E+00 0. -1.
         11    1    3    3    0    0 -0.44333175898E+00 -0.22148019851E+00 -0.33133409268E+01  0.33501977383E+01  0.51100000000E-03 0. -1.
        -11    1    3    3    0    0 -0.17028268257E+02  0.51723707615E+00 -0.16359467741E+02  0.23619094797E+02  0.51100000000E-03 0.  1.
        -12    1    3    3    0    0 -0.82444850215E+01 -0.21898620139E-01 -0.17309908349E+02  0.19173026362E+02  0.00000000000E+00 0.  1.
</event>
<event>
 7    1  0.1503436E-008  0.4614232E+02  0.7816164E-02  0.1320468E+00
        -11   -1    0    0    0    0  0.00000000000E+00  0.00000000000E+00  0.45593999997E+02  0.45594000000E+02  0.51100000000E-03 0.  1.
         11   -1    0    0    0    0 -0.00000000000E+00 -0.00000000000E+00 -0.45593999997E+02  0.45594000000E+02  0.51100000000E-03 0. -1.
    9900012    2    1    2    0    0 -0.36674321804E+01 -0.15768417421E+02  0.42035943000E+02  0.46142317069E+02  0.99999936914E+01 0.  0.
         12    1    1    2    0    0  0.36674321804E+01  0.15768417421E+02 -0.42035943000E+02  0.45045682931E+02  0.00000000000E+00 0. -1.
         11    1    3    3    0    0 -0.13242872986E+01 -0.81989643172E-01  0.12802534670E+00  0.13329853342E+01  0.51100000000E-03 0. -1.
        -11    1    3    3    0    0 -0.13132358261E+01 -0.82664727287E+01  0.22334325630E+02  0.23851231861E+02  0.51100000000E-03 0.  1.
         12    1    3    3    0    0 -0.10299090558E+01 -0.74199550491E+01  0.19573592024E+02  0.20958099874E+02  0.00000000000E+00 0. -1.
</event>
<event>
 7    1  0.1503436E-008  0.4614232E+02  0.7816164E-02  0.1320468E+00
        -11   -1    0    0    0    0  0.00000000000E+00  0.00000000000E+00  0.45593999997E+02  0.45594000000E+02  0.51100000000E-03 0. -1.
         11   -1    0    0    0    0 -0.00000000000E+00 -0.00000000000E+00 -0.45593999997E+02  0.45594000000E+02  0.51100000000E-03 0.  1.
    9900012    2    1    2    0    0  0.33560338988E+02  0.13526699874E+02 -0.26829937962E+02  0.46142317259E+02  0.99999954239E+01 0.  0.
         12    1    1    2    0    0 -0.33560338988E+02 -0.13526699874E+02  0.26829937962E+02  0.45045682741E+02  0.00000000000E+00 0. -1.
         11    1    3    3    0    0  0.15511093914E+01 -0.58456294855E+00 -0.15375013609E+01  0.22608770159E+01  0.51100000000E-03 0. -1.
        -11    1    3    3    0    0  0.17037459900E+02  0.73906446251E+01 -0.85763335711E+01  0.20456054498E+02  0.51100000000E-03 0.  1.
        -12    1    3    3    0    0  0.14971769697E+02  0.67206181978E+01 -0.16716103030E+02  0.23425385746E+02  0.00000000000E+00 0.  1.
</event>
<event>
 7    1  0.1503436E-008  0.4614232E+02  0.7816164E-02  0.1320468E+00
        -11   -1    0    0    0    0  0.00000000000E+00  0.00000000000E+00  0.45593999997E+02  0.45594000000E+02  0.51100000000E-03 0.  1.
         11   -1    0    0    0    0 -0.00000000000E+00 -0.00000000000E+00 -0.45593999997E+02  0.45594000000E+02  0.51100000000E-03 0. -1.
    9900012    2    1    2    0    0 -0.31352036245E+02  0.26903364994E+02  0.17954730784E+02  0.46142316719E+02  0.99999904998E+01 0.  0.
         12    1    1    2    0    0  0.31352036245E+02 -0.26903364994E+02 -0.17954730784E+02  0.45045683281E+02  0.00000000000E+00 0. -1.
         11    1    3    3    0    0 -0.12171921606E+02  0.65617765401E+01  0.55391418829E+01  0.14896129699E+02  0.51100000000E-03 0. -1.
        -11    1    3    3    0    0 -0.17639309392E+02  0.16051203134E+02  0.87754902139E+01  0.25412508468E+02  0.51100000000E-03 0.  1.
         12    1    3    3    0    0 -0.15408052471E+01  0.42903853196E+01  0.36400986876E+01  0.58336785527E+01  0.00000000000E+00 0. -1.
</event>
<event>
 7    1  0.1503436E-008  0.4614232E+02  0.7816164E-02  0.1320468E+00
        -11   -1    0    0    0    0  0.00000000000E+00  0.00000000000E+00  0.45593999997E+02  0.45594000000E+02  0.51100000000E-03 0.  1.
         11   -1    0    0    0    0 -0.00000000000E+00 -0.00000000000E+00 -0.45593999997E+02  0.45594000000E+02  0.51100000000E-03 0. -1.
    9900012    2    1    2    0    0 -0.28124479269E+02  0.21899067225E+02  0.27541934836E+02  0.46142315923E+02  0.99999832347E+01 0.  0.
         12    1    1    2    0    0  0.28124479269E+02 -0.21899067225E+02 -0.27541934836E+02  0.45045684077E+02  0.00000000000E+00 0. -1.
         11    1    3    3    0    0 -0.89962328556E+00  0.24509916574E+01  0.11440222707E+01  0.28505208958E+01  0.51100000000E-03 0.  1.
        -11    1    3    3    0    0 -0.23382261829E+02  0.17358975943E+02  0.19239818912E+02  0.34903221141E+02  0.51100000000E-03 0. -1.
        -12    1    3    3    0    0 -0.38425941546E+01  0.20890996251E+01  0.71580936534E+01  0.83885738855E+01  0.00000000000E+00 0.  1.
</event>
<event>
 7    1  0.1503436E-008  0.4614232E+02  0.7816164E-02  0.1320468E+00
        -11   -1    0    0    0    0  0.00000000000E+00  0.00000000000E+00  0.45593999997E+02  0.45594000000E+02  0.51100000000E-03 0. -1.
         11   -1    0    0    0    0 -0.00000000000E+00 -0.00000000000E+00 -0.45593999997E+02  0.45594000000E+02  0.51100000000E-03 0.  1.
    9900012    2    1    2    0    0  0.18536453357E+02 -0.40695001889E+02  0.54249664579E+01  0.46142317156E+02  0.99999944797E+01 0.  0.
         12    1    1    2    0    0 -0.18536453357E+02  0.40695001889E+02 -0.54249664579E+01  0.45045682844E+02  0.00000000000E+00 0. -1.
         11    1    3    3    0    0  0.98083054220E+01 -0.14174417537E+02  0.45593913605E+01  0.17829891127E+02  0.51100000000E-03 0. -1.
        -11    1    3    3    0    0  0.34872810618E+01 -0.91683250180E+01  0.24693363275E+01  0.10115183389E+02  0.51100000000E-03 0.  1.
         12    1    3    3    0    0  0.52408668732E+01 -0.17352259334E+02 -0.16037612302E+01  0.18197242639E+02  0.00000000000E+00 0. -1.
</event>
<event>
 7    1  0.1503436E-008  0.4614232E+02  0.7816164E-02  0.1320468E+00
        -11   -1    0    0    0    0  0.00000000000E+00  0.00000000000E+00  0.45593999997E+02  0.45594000000E+02  0.51100000000E-03 0. -1.
         11   -1    0    0    0    0 -0.00000000000E+00 -0.00000000000E+00 -0.45593999997E+02  0.45594000000E+02  0.51100000000E-03 0.  1.
    9900012    2    1    2    0    0  0.28959588108E+02  0.18789706304E+02 -0.28937910535E+02  0.46142317937E+02  0.10000001607E+02 0.  0.
         12    1    1    2    0    0 -0.28959588108E+02 -0.18789706304E+02  0.28937910535E+02  0.45045682063E+02  0.00000000000E+00 0. -1.
         11    1    3    3    0    0  0.70393740336E+01  0.73795607521E+01 -0.54168093846E+01  0.11547836501E+02  0.51100000000E-03 0. -1.
        -11    1    3    3    0    0  0.27582182201E+01  0.31374826113E+01 -0.20595997269E+01  0.46576298889E+01  0.51100000000E-03 0.  1.
         12    1    3    3    0    0  0.19161995854E+02  0.82726629405E+01 -0.21461501423E+02  0.29936851548E+02  0.00000000000E+00 0. -1.
</event>
<event>
 7    1  0.1503436E-008  0.4614232E+02  0.7816164E-02  0.1320468E+00
        -11   -1    0    0    0    0  0.00000000000E+00  0.00000000000E+00  0.45593999997E+02  0.45594000000E+02  0.51100000000E-03 0.  1.
         11   -1    0    0    0    0 -0.00000000000E+00 -0.00000000000E+00 -0.45593999997E+02  0.45594000000E+02  0.51100000000E-03 0. -1.
    9900012    2    1    2    0    0  0.42276686252E+02  0.63812399460E+01 -0.14180092805E+02  0.46142318124E+02  0.10000003306E+02 0.  0.
         12    1    1    2    0    0 -0.42276686252E+02 -0.63812399460E+01  0.14180092805E+02  0.45045681876E+02  0.00000000000E+00 0. -1.
         11    1    3    3    0    0  0.99368317500E+01  0.76122476623E+00  0.63130246952E+00  0.99859216621E+01  0.51100000000E-03 0. -1.
        -11    1    3    3    0    0  0.10552024967E+02  0.13929373853E+01 -0.32334076061E+01  0.11123867604E+02  0.51100000000E-03 0.  1.
         12    1    3    3    0    0  0.21787829535E+02  0.42270777944E+01 -0.11577987669E+02  0.25032528857E+02  0.00000000000E+00 0. -1.
</event>
<event>
 7    1  0.1503436E-008  0.4614232E+02  0.7816164E-02  0.1320468E+00
        -11   -1    0    0    0    0  0.00000000000E+00  0.00000000000E+00  0.45593999997E+02  0.45594000000E+02  0.51100000000E-03 0.  1.
         11   -1    0    0    0    0 -0.00000000000E+00 -0.00000000000E+00 -0.45593999997E+02  0.45594000000E+02  0.51100000000E-03 0. -1.
    9900012    2    1    2    0    0  0.44501852901E+02 -0.25554265911E+01 -0.64937360445E+01  0.46142315140E+02  0.99999760952E+01 0.  0.
         12    1    1    2    0    0 -0.44501852901E+02  0.25554265911E+01  0.64937360445E+01  0.45045684860E+02  0.00000000000E+00 0. -1.
         11    1    3    3    0    0  0.23477286716E+02  0.13369463516E+01 -0.58688543755E+01  0.24236622476E+02  0.51100000000E-03 0. -1.
        -11    1    3    3    0    0  0.17498961636E+02 -0.13547942745E+01 -0.39588944381E+00  0.17555792622E+02  0.51100000000E-03 0.  1.
         12    1    3    3    0    0  0.35256045489E+01 -0.25375786682E+01 -0.22899222526E+00  0.43499000416E+01  0.00000000000E+00 0. -1.
</event>
<event>
 7    1  0.1503436E-008  0.4614232E+02  0.7816164E-02  0.1320468E+00
        -11   -1    0    0    0    0  0.00000000000E+00  0.00000000000E+00  0.45593999997E+02  0.45594000000E+02  0.51100000000E-03 0. -1.
         11   -1    0    0    0    0 -0.00000000000E+00 -0.00000000000E+00 -0.45593999997E+02  0.45594000000E+02  0.51100000000E-03 0.  1.
    9900012    2    1    2    0    0  0.17048885014E+02 -0.15984756493E+02 -0.38508914028E+02  0.46142318964E+02  0.10000010969E+02 0.  0.
         12    1    1    2    0    0 -0.17048885014E+02  0.15984756493E+02  0.38508914028E+02  0.45045681036E+02  0.00000000000E+00 0. -1.
         11    1    3    3    0    0  0.39960947759E+01 -0.17455639907E+01 -0.13821147858E+02  0.14492753206E+02  0.51100000000E-03 0.  1.
        -11    1    3    3    0    0  0.74243869468E+00 -0.29953155468E+01 -0.31117401406E+01  0.43824716091E+01  0.51100000000E-03 0. -1.
         12    1    3    3    0    0  0.12310351543E+02 -0.11243876956E+02 -0.21576026029E+02  0.27267094149E+02  0.00000000000E+00 0. -1.
</event>
<event>
 7    1  0.1503436E-008  0.4614232E+02  0.7816164E-02  0.1320468E+00
        -11   -1    0    0    0    0  0.00000000000E+00  0.00000000000E+00  0.45593999997E+02  0.45594000000E+02  0.51100000000E-03 0. -1.
         11   -1    0    0    0    0 -0.00000000000E+00 -0.00000000000E+00 -0.45593999997E+02  0.45594000000E+02  0.51100000000E-03 0.  1.
    9900012    2    1    2    0    0  0.13594435606E+02 -0.68592288705E+01 -0.42394054961E+02  0.46142316565E+02  0.99999890893E+01 0.  0.
         12    1    1    2    0    0 -0.13594435606E+02  0.68592288705E+01  0.42394054961E+02  0.45045683435E+02  0.00000000000E+00 0. -1.
         11    1    3    3    0    0  0.69794034458E+01 -0.60519768000E+01 -0.31514259112E+02  0.32840326175E+02  0.51100000000E-03 0. -1.
        -11    1    3    3    0    0  0.52503549809E+01 -0.12851377505E+01 -0.10495837427E+02  0.11805948078E+02  0.51100000000E-03 0.  1.
         12    1    3    3    0    0  0.13646771798E+01  0.47788567996E+00 -0.38395842134E+00  0.14960423114E+01  0.00000000000E+00 0. -1.
</event>
<event>
 7    1  0.1503436E-008  0.4614232E+02  0.7816164E-02  0.1320468E+00
        -11   -1    0    0    0    0  0.00000000000E+00  0.00000000000E+00  0.45593999997E+02  0.45594000000E+02  0.51100000000E-03 0.  1.
         11   -1    0    0    0    0 -0.00000000000E+00 -0.00000000000E+00 -0.45593999997E+02  0.45594000000E+02  0.51100000000E-03 0. -1.
    9900012    2    1    2    0    0 -0.61451109273E+01 -0.16725187264E+02  0.41371720784E+02  0.46142316988E+02  0.99999929542E+01 0.  0.
         12    1    1    2    0    0  0.61451109273E+01  0.16725187264E+02 -0.41371720784E+02  0.45045683012E+02  0.00000000000E+00 0. -1.
         11    1    3    3    0    0 -0.25649703789E+01 -0.32023187741E+01  0.67670154760E+01  0.79136854429E+01  0.51100000000E-03 0. -1.
        -11    1    3    3    0    0  0.99435217659E+00 -0.62728779124E+01  0.76460494905E+01  0.99398091846E+01  0.51100000000E-03 0.  1.
        -12    1    3    3    0    0 -0.45744927250E+01 -0.72499905776E+01  0.26958655818E+02  0.28288822361E+02  0.00000000000E+00 0.  1.
</event>
<event>
 7    1  0.1503436E-008  0.4614232E+02  0.7816164E-02  0.1320468E+00
        -11   -1    0    0    0    0  0.00000000000E+00  0.00000000000E+00  0.45593999997E+02  0.45594000000E+02  0.51100000000E-03 0.  1.
         11   -1    0    0    0    0 -0.00000000000E+00 -0.00000000000E+00 -0.45593999997E+02  0.45594000000E+02  0.51100000000E-03 0. -1.
    9900012    2    1    2    0    0 -0.11129424260E+02  0.87176649943E-01  0.43649075254E+02  0.46142318136E+02  0.10000003417E+02 0.  0.
         12    1    1    2    0    0  0.11129424260E+02 -0.87176649943E-01 -0.43649075254E+02  0.45045681864E+02  0.00000000000E+00 0. -1.
         11    1    3    3    0    0 -0.41643071404E+01 -0.19983821368E+01  0.70230935993E+01  0.84058806255E+01  0.51100000000E-03 0. -1.
        -11    1    3    3    0    0 -0.71848042414E+00  0.18428193104E+01  0.17576579776E+02  0.17687519725E+02  0.51100000000E-03 0.  1.
        -12    1    3    3    0    0 -0.62466366950E+01  0.24273947632E+00  0.19049401878E+02  0.20048917786E+02  0.00000000000E+00 0.  1.
</event>
<event>
 7    1  0.1503436E-008  0.4614232E+02  0.7816164E-02  0.1320468E+00
        -11   -1    0    0    0    0  0.00000000000E+00  0.00000000000E+00  0.45593999997E+02  0.45594000000E+02  0.51100000000E-03 0.  1.
         11   -1    0    0    0    0 -0.00000000000E+00 -0.00000000000E+00 -0.45593999997E+02  0.45594000000E+02  0.51100000000E-03 0. -1.
    9900012    2    1    2    0    0 -0.35415732047E+02 -0.25074560693E+02  0.12087428175E+02  0.46142316630E+02  0.99999896827E+01 0.  0.
         12    1    1    2    0    0  0.35415732047E+02  0.25074560693E+02 -0.12087428175E+02  0.45045683370E+02  0.00000000000E+00 0. -1.
         11    1    3    3    0    0 -0.73561180460E+01 -0.46946045967E+01 -0.10218517953E+01  0.87861235126E+01  0.51100000000E-03 0. -1.
        -11    1    3    3    0    0 -0.26926599034E+02 -0.18980193824E+02  0.11364755425E+02  0.34848919054E+02  0.51100000000E-03 0.  1.
        -12    1    3    3    0    0 -0.11330149678E+01 -0.13997622724E+01  0.17445245454E+01  0.25072740628E+01  0.00000000000E+00 0.  1.
</event>
<event>
 7    1  0.1503436E-008  0.4614232E+02  0.7816164E-02  0.1320468E+00
        -11   -1    0    0    0    0  0.00000000000E+00  0.00000000000E+00  0.45593999997E+02  0.45594000000E+02  0.51100000000E-03 0.  1.
         11   -1    0    0    0    0 -0.00000000000E+00 -0.00000000000E+00 -0.45593999997E+02  0.45594000000E+02  0.51100000000E-03 0. -1.
    9900012    2    1    2    0    0 -0.25823174254E+02  0.25836900393E+02  0.26357764261E+02  0.46142317773E+02  0.10000000112E+02 0.  0.
         12    1    1    2    0    0  0.25823174254E+02 -0.25836900393E+02 -0.26357764261E+02  0.45045682227E+02  0.00000000000E+00 0. -1.
         11    1    3    3    0    0 -0.43697695657E+01  0.16882730802E+01  0.62673299920E+01  0.78246135713E+01  0.51100000000E-03 0. -1.
        -11    1    3    3    0    0 -0.17721507215E+02  0.20013744820E+02  0.14437139352E+02  0.30381454748E+02  0.51100000000E-03 0.  1.
         12    1    3    3    0    0 -0.37318974727E+01  0.41348824929E+01  0.56532949170E+01  0.79362494539E+01  0.00000000000E+00 0. -1.
</event>
<event>
 7    1  0.1503436E-008  0.4614232E+02  0.7816164E-02  0.1320468E+00
        -11   -1    0    0    0    0  0.00000000000E+00  0.00000000000E+00  0.45593999997E+02  0.45594000000E+02  0.51100000000E-03 0.  1.
         11   -1    0    0    0    0 -0.00000000000E+00 -0.00000000000E+00 -0.45593999997E+02  0.45594000000E+02  0.51100000000E-03 0. -1.
    9900012    2    1    2    0    0  0.43456506055E+02 -0.11859165040E+02 -0.75933632919E-01  0.46142317856E+02  0.10000000862E+02 0.  0.
         12    1    1    2    0    0 -0.43456506055E+02  0.11859165040E+02  0.75933632919E-01  0.45045682144E+02  0.00000000000E+00 0. -1.
         11    1    3    3    0    0  0.90443166299E+01 -0.82662980710E+00  0.36085342557E+01  0.97726403738E+01  0.51100000000E-03 0. -1.
        -11    1    3    3    0    0  0.26959968169E+02 -0.85546782145E+01 -0.36255982324E+01  0.28516089596E+02  0.51100000000E-03 0.  1.
         12    1    3    3    0    0  0.74522212560E+01 -0.24778570180E+01 -0.58869656294E-01  0.78535878862E+01  0.00000000000E+00 0. -1.
</event>
<event>
 7    1  0.1503436E-008  0.4614232E+02  0.7816164E-02  0.1320468E+00
        -11   -1    0    0    0    0  0.00000000000E+00  0.00000000000E+00  0.45593999997E+02  0.45594000000E+02  0.51100000000E-03 0.  1.
         11   -1    0    0    0    0 -0.00000000000E+00 -0.00000000000E+00 -0.45593999997E+02  0.45594000000E+02  0.51100000000E-03 0. -1.
    9900012    2    1    2    0    0  0.29383180569E+02 -0.10401974455E+02  0.32519856140E+02  0.46142318561E+02  0.10000007298E+02 0.  0.
         12    1    1    2    0    0 -0.29383180569E+02  0.10401974455E+02 -0.32519856140E+02  0.45045681439E+02  0.00000000000E+00 0. -1.
         11    1    3    3    0    0  0.10903354015E+02 -0.56301719161E+01  0.88490604899E+01  0.15129039507E+02  0.51100000000E-03 0. -1.
        -11    1    3    3    0    0  0.55509544750E+01 -0.40484502859E+01  0.61088002688E+01  0.91935023950E+01  0.51100000000E-03 0.  1.
         12    1    3    3    0    0  0.12928872078E+02 -0.72335225307E+00  0.17561995381E+02  0.21819776660E+02  0.00000000000E+00 0. -1.
</event>
<event>
 7    1  0.1503436E-008  0.4614232E+02  0.7816164E-02  0.1320468E+00
        -11   -1    0    0    0    0  0.00000000000E+00  0.00000000000E+00  0.45593999997E+02  0.45594000000E+02  0.51100000000E-03 0.  1.
         11   -1    0    0    0    0 -0.00000000000E+00 -0.00000000000E+00 -0.45593999997E+02  0.45594000000E+02  0.51100000000E-03 0. -1.
    9900012    2    1    2    0    0  0.17717497879E+02  0.37872233542E+02  0.16759999149E+02  0.46142319008E+02  0.10000011370E+02 0.  0.
         12    1    1    2    0    0 -0.17717497879E+02 -0.37872233542E+02 -0.16759999149E+02  0.45045680992E+02  0.00000000000E+00 0. -1.
         11    1    3    3    0    0  0.83414629382E+01  0.83124785535E+01  0.39183244961E+01  0.12410905316E+02  0.51100000000E-03 0. -1.
        -11    1    3    3    0    0  0.27113003550E+01  0.14054230057E+02  0.57751820050E+01  0.15434547598E+02  0.51100000000E-03 0.  1.
         12    1    3    3    0    0  0.66647345860E+01  0.15505524932E+02  0.70664926477E+01  0.18296866094E+02  0.00000000000E+00 0. -1.
</event>
<event>
 7    1  0.1827769E-008  0.4614232E+02  0.7816164E-02  0.1320468E+00
        -11   -1    0    0    0    0  0.00000000000E+00  0.00000000000E+00  0.45593999997E+02  0.45594000000E+02  0.51100000000E-03 0.  1.
         11   -1    0    0    0    0 -0.00000000000E+00 -0.00000000000E+00 -0.45593999997E+02  0.45594000000E+02  0.51100000000E-03 0. -1.
    9900012    2    1    2    0    0  0.43442874103E+02  0.10486582699E+02  0.56445853187E+01  0.46142322400E+02  0.10000042301E+02 0.  0.
         12    1    1    2    0    0 -0.43442874103E+02 -0.10486582699E+02 -0.56445853187E+01  0.45045677600E+02  0.00000000000E+00 0. -1.
         11    1    3    3    0    0  0.60342843529E+01 -0.45717291353E+00  0.27704870961E+01  0.66556137009E+01  0.51100000000E-03 0. -1.
        -11    1    3    3    0    0  0.36419779989E+02  0.10828955422E+02  0.18234083255E+01  0.38039341059E+02  0.51100000000E-03 0.  1.
        -12    1    3    3    0    0  0.98880976064E+00  0.11480019081E+00  0.10506898970E+01  0.14473676403E+01  0.00000000000E+00 0.  1.
</event>
<event>
 7    1  0.1503436E-008  0.4614232E+02  0.7816164E-02  0.1320468E+00
        -11   -1    0    0    0    0  0.00000000000E+00  0.00000000000E+00  0.45593999997E+02  0.45594000000E+02  0.51100000000E-03 0. -1.
         11   -1    0    0    0    0 -0.00000000000E+00 -0.00000000000E+00 -0.45593999997E+02  0.45594000000E+02  0.51100000000E-03 0.  1.
    9900012    2    1    2    0    0  0.92657344048E+01 -0.40926130041E+02 -0.16380217913E+02  0.46142317709E+02  0.99999995281E+01 0.  0.
         12    1    1    2    0    0 -0.92657344048E+01  0.40926130041E+02  0.16380217913E+02  0.45045682291E+02  0.00000000000E+00 0. -1.
         11    1    3    3    0    0  0.13232625831E+01 -0.83576650253E+01 -0.22408374072E+00  0.84647387629E+01  0.51100000000E-03 0. -1.
        -11    1    3    3    0    0  0.78542875313E+01 -0.30540072710E+02 -0.13420676517E+02  0.34270985281E+02  0.51100000000E-03 0.  1.
         12    1    3    3    0    0  0.88184290351E-01 -0.20283923056E+01 -0.27354576553E+01  0.34065936650E+01  0.00000000000E+00 0. -1.
</event>
<event>
 7    1  0.1503436E-008  0.4614232E+02  0.7816164E-02  0.1320468E+00
        -11   -1    0    0    0    0  0.00000000000E+00  0.00000000000E+00  0.45593999997E+02  0.45594000000E+02  0.51100000000E-03 0. -1.
         11   -1    0    0    0    0 -0.00000000000E+00 -0.00000000000E+00 -0.45593999997E+02  0.45594000000E+02  0.51100000000E-03 0.  1.
    9900012    2    1    2    0    0  0.30486663619E+02  0.31808043837E+02 -0.93768467688E+01  0.46142316892E+02  0.99999920747E+01 0.  0.
         12    1    1    2    0    0 -0.30486663619E+02 -0.31808043837E+02  0.93768467688E+01  0.45045683108E+02  0.00000000000E+00 0. -1.
         11    1    3    3    0    0  0.40041436741E+01  0.46217132443E+01 -0.41474250166E+01  0.73888114338E+01  0.51100000000E-03 0. -1.
        -11    1    3    3    0    0  0.22616517099E+02  0.25687497561E+02 -0.51181360093E+01  0.34605630945E+02  0.51100000000E-03 0.  1.
        -12    1    3    3    0    0  0.38660028456E+01  0.14988330318E+01 -0.11128574286E+00  0.41478745131E+01  0.00000000000E+00 0.  1.
</event>
<event>
 7    1  0.1503436E-008  0.4614232E+02  0.7816164E-02  0.1320468E+00
        -11   -1    0    0    0    0  0.00000000000E+00  0.00000000000E+00  0.45593999997E+02  0.45594000000E+02  0.51100000000E-03 0.  1.
         11   -1    0    0    0    0 -0.00000000000E+00 -0.00000000000E+00 -0.45593999997E+02  0.45594000000E+02  0.51100000000E-03 0. -1.
    9900012    2    1    2    0    0  0.26757507804E+02  0.58274166108E-01  0.36237354866E+02  0.46142317549E+02  0.99999980666E+01 0.  0.
         12    1    1    2    0    0 -0.26757507804E+02 -0.58274166108E-01 -0.36237354866E+02  0.45045682451E+02  0.00000000000E+00 0. -1.
         11    1    3    3    0    0  0.19537118418E+02  0.38046330944E+01  0.29166655736E+02  0.35311018622E+02  0.51100000000E-03 0. -1.
        -11    1    3    3    0    0  0.30296140684E+01 -0.13030609803E+01  0.22502656444E+01  0.39925211400E+01  0.51100000000E-03 0.  1.
         12    1    3    3    0    0  0.41907753175E+01 -0.24432979480E+01  0.48204334863E+01  0.68387777870E+01  0.00000000000E+00 0. -1.
</event>
<event>
 7    1  0.1503436E-008  0.4614232E+02  0.7816164E-02  0.1320468E+00
        -11   -1    0    0    0    0  0.00000000000E+00  0.00000000000E+00  0.45593999997E+02  0.45594000000E+02  0.51100000000E-03 0.  1.
         11   -1    0    0    0    0 -0.00000000000E+00 -0.00000000000E+00 -0.45593999997E+02  0.45594000000E+02  0.51100000000E-03 0. -1.
    9900012    2    1    2    0    0  0.34959520829E+02 -0.18734064561E+02  0.21353696034E+02  0.46142316457E+02  0.99999881062E+01 0.  0.
         12    1    1    2    0    0 -0.34959520829E+02  0.18734064561E+02 -0.21353696034E+02  0.45045683543E+02  0.00000000000E+00 0. -1.
         11    1    3    3    0    0 -0.10915910621E+00 -0.10006151161E-01  0.14328206775E+00  0.18040467175E+00  0.51100000000E-03 0. -1.
        -11    1    3    3    0    0  0.34529673884E+02 -0.18278498849E+02  0.22055685521E+02  0.44864854427E+02  0.51100000000E-03 0.  1.
        -12    1    3    3    0    0  0.53900605092E+00 -0.44555956083E+00 -0.84527155465E+00  0.10970573578E+01  0.00000000000E+00 0.  1.
</event>
<event>
 7    1  0.1503436E-008  0.4614232E+02  0.7816164E-02  0.1320468E+00
        -11   -1    0    0    0    0  0.00000000000E+00  0.00000000000E+00  0.45593999997E+02  0.45594000000E+02  0.51100000000E-03 0.  1.
         11   -1    0    0    0    0 -0.00000000000E+00 -0.00000000000E+00 -0.45593999997E+02  0.45594000000E+02  0.51100000000E-03 0. -1.
    9900012    2    1    2    0    0 -0.17519708745E+02  0.43865244661E+01  0.41266593900E+02  0.46142316927E+02  0.99999923929E+01 0.  0.
         12    1    1    2    0    0  0.17519708745E+02 -0.43865244661E+01 -0.41266593900E+02  0.45045683073E+02  0.00000000000E+00 0. -1.
         11    1    3    3    0    0 -0.66101175316E+01 -0.10268468255E+01  0.15966315673E+02  0.17311016857E+02  0.51100000000E-03 0. -1.
        -11    1    3    3    0    0 -0.88426329131E+01  0.47588735644E+01  0.13454608584E+02  0.16788851266E+02  0.51100000000E-03 0.  1.
        -12    1    3    3    0    0 -0.20669582998E+01  0.65449772718E+00  0.11845669643E+02  0.12042448804E+02  0.00000000000E+00 0.  1.
</event>
<event>
 7    1  0.1503436E-008  0.4614232E+02  0.7816164E-02  0.1320468E+00
        -11   -1    0    0    0    0  0.00000000000E+00  0.00000000000E+00  0.45593999997E+02  0.45594000000E+02  0.51100000000E-03 0.  1.
         11   -1    0    0    0    0 -0.00000000000E+00 -0.00000000000E+00 -0.45593999997E+02  0.45594000000E+02  0.51100000000E-03 0. -1.
    9900012    2    1    2    0    0 -0.25016001750E+02  0.12403756637E+02  0.35347700658E+02  0.46142318031E+02  0.10000002460E+02 0.  0.
         12    1    1    2    0    0  0.25016001750E+02 -0.12403756637E+02 -0.35347700658E+02  0.45045681969E+02  0.00000000000E+00 0. -1.
         11    1    3    3    0    0 -0.75361512783E+01  0.17861853956E+01  0.40212980033E+01  0.87266758992E+01  0.51100000000E-03 0. -1.
        -11    1    3    3    0    0 -0.98938626856E+01  0.57110440171E+01  0.17300727317E+02  0.20732093685E+02  0.51100000000E-03 0.  1.
         12    1    3    3    0    0 -0.75859877856E+01  0.49065272243E+01  0.14025675338E+02  0.16683548447E+02  0.00000000000E+00 0. -1.
</event>
<event>
 7    1  0.1503436E-008  0.4614232E+02  0.7816164E-02  0.1320468E+00
        -11   -1    0    0    0    0  0.00000000000E+00  0.00000000000E+00  0.45593999997E+02  0.45594000000E+02  0.51100000000E-03 0.  1.
         11   -1    0    0    0    0 -0.00000000000E+00 -0.00000000000E+00 -0.45593999997E+02  0.45594000000E+02  0.51100000000E-03 0. -1.
    9900012    2    1    2    0    0  0.15559927769E+02  0.22669988280E+02  0.35680158861E+02  0.46142318108E+02  0.10000003165E+02 0.  0.
         12    1    1    2    0    0 -0.15559927769E+02 -0.22669988280E+02 -0.35680158861E+02  0.45045681892E+02  0.00000000000E+00 0. -1.
         11    1    3    3    0    0  0.66476685698E+01  0.32203739296E+01  0.73515235700E+01  0.10421478049E+02  0.51100000000E-03 0. -1.
        -11    1    3    3    0    0  0.42329294244E+01  0.11244231845E+02  0.12884243580E+02  0.17616871861E+02  0.51100000000E-03 0.  1.
         12    1    3    3    0    0  0.46793297746E+01  0.82053825048E+01  0.15444391711E+02  0.18103968198E+02  0.00000000000E+00 0. -1.
</event>
<event>
 7    1  0.1503436E-008  0.4614232E+02  0.7816164E-02  0.1320468E+00
        -11   -1    0    0    0    0  0.00000000000E+00  0.00000000000E+00  0.45593999997E+02  0.45594000000E+02  0.51100000000E-03 0.  1.
         11   -1    0    0    0    0 -0.00000000000E+00 -0.00000000000E+00 -0.45593999997E+02  0.45594000000E+02  0.51100000000E-03 0. -1.
    9900012    2    1    2    0    0 -0.28853902922E+02  0.16015581352E+02  0.30660510765E+02  0.46142317852E+02  0.10000000826E+02 0.  0.
         12    1    1    2    0    0  0.28853902922E+02 -0.16015581352E+02 -0.30660510765E+02  0.45045682148E+02  0.00000000000E+00 0. -1.
         11    1    3    3    0    0 -0.13893851109E+01 -0.33122340738E+00  0.26525359162E+01  0.30126478354E+01  0.51100000000E-03 0. -1.
        -11    1    3    3    0    0 -0.16305330086E+02  0.13543769614E+02  0.16556842739E+02  0.26896589493E+02  0.51100000000E-03 0.  1.
        -12    1    3    3    0    0 -0.11159187725E+02  0.28030351445E+01  0.11451132110E+02  0.16233080524E+02  0.00000000000E+00 0.  1.
</event>
<event>
 7    1  0.1867091E-008  0.4614231E+02  0.7816164E-02  0.1320468E+00
        -11   -1    0    0    0    0  0.00000000000E+00  0.00000000000E+00  0.45593999997E+02  0.45594000000E+02  0.51100000000E-03 0.  1.
         11   -1    0    0    0    0 -0.00000000000E+00 -0.00000000000E+00 -0.45593999997E+02  0.45594000000E+02  0.51100000000E-03 0. -1.
    9900012    2    1    2    0    0 -0.15075707759E+02 -0.39642855123E+02  0.15175017004E+02  0.46142311330E+02  0.99999413524E+01 0.  0.
         12    1    1    2    0    0  0.15075707759E+02  0.39642855123E+02 -0.15175017004E+02  0.45045688670E+02  0.00000000000E+00 0. -1.
         11    1    3    3    0    0 -0.15794110300E+01 -0.41964064857E+01  0.47889054430E+01  0.65603340005E+01  0.51100000000E-03 0. -1.
        -11    1    3    3    0    0 -0.13490831889E+02 -0.35505088632E+02  0.10116414231E+02  0.39305924502E+02  0.51100000000E-03 0.  1.
        -12    1    3    3    0    0 -0.54648403976E-02  0.58639994813E-01  0.26969733019E+00  0.27605282717E+00  0.00000000000E+00 0.  1.
</event>
<event>
 7    1  0.1503436E-008  0.4614231E+02  0.7816164E-02  0.1320468E+00
        -11   -1    0    0    0    0  0.00000000000E+00  0.00000000000E+00  0.45593999997E+02  0.45594000000E+02  0.51100000000E-03 0.  1.
         11   -1    0    0    0    0 -0.00000000000E+00 -0.00000000000E+00 -0.45593999997E+02  0.45594000000E+02  0.51100000000E-03 0. -1.
    9900012    2    1    2    0    0 -0.34228251178E+02 -0.19169948447E+02  0.22137155415E+02  0.46142314835E+02  0.99999733129E+01 0.  0.
         12    1    1    2    0    0  0.34228251178E+02  0.19169948447E+02 -0.22137155415E+02  0.45045685165E+02  0.00000000000E+00 0. -1.
         11    1    3    3    0    0 -0.10439445784E+02 -0.92031695028E+01  0.11526595944E+02  0.18070494500E+02  0.51100000000E-03 0. -1.
        -11    1    3    3    0    0 -0.18718987938E+02 -0.75166618632E+01  0.68603675457E+01  0.21306462825E+02  0.51100000000E-03 0.  1.
         12    1    3    3    0    0 -0.50698174564E+01 -0.24501170805E+01  0.37501919255E+01  0.67653575092E+01  0.00000000000E+00 0. -1.
</event>
<event>
 7    1  0.1503436E-008  0.4614232E+02  0.7816164E-02  0.1320468E+00
        -11   -1    0    0    0    0  0.00000000000E+00  0.00000000000E+00  0.45593999997E+02  0.45594000000E+02  0.51100000000E-03 0.  1.
         11   -1    0    0    0    0 -0.00000000000E+00 -0.00000000000E+00 -0.45593999997E+02  0.45594000000E+02  0.51100000000E-03 0. -1.
    9900012    2    1    2    0    0  0.26067103112E+02  0.13119275575E+02  0.34314780760E+02  0.46142318355E+02  0.10000005416E+02 0.  0.
         12    1    1    2    0    0 -0.26067103112E+02 -0.13119275575E+02 -0.34314780760E+02  0.45045681645E+02  0.00000000000E+00 0. -1.
         11    1    3    3    0    0  0.21422863570E+02  0.78181795941E+01  0.22979466046E+02  0.32374664103E+02  0.51100000000E-03 0. -1.
        -11    1    3    3    0    0  0.32683423825E+01  0.41548149563E+01  0.10573922657E+02  0.11821691498E+02  0.51100000000E-03 0.  1.
         12    1    3    3    0    0  0.13758971589E+01  0.11462810241E+01  0.76139205660E+00  0.19459627545E+01  0.00000000000E+00 0. -1.
</event>
<event>
 7    1  0.1503436E-008  0.4614232E+02  0.7816164E-02  0.1320468E+00
        -11   -1    0    0    0    0  0.00000000000E+00  0.00000000000E+00  0.45593999997E+02  0.45594000000E+02  0.51100000000E-03 0.  1.
         11   -1    0    0    0    0 -0.00000000000E+00 -0.00000000000E+00 -0.45593999997E+02  0.45594000000E+02  0.51100000000E-03 0. -1.
    9900012    2    1    2    0    0  0.30416477509E+02 -0.15498214733E+02  0.29389739010E+02  0.46142317376E+02  0.99999964907E+01 0.  0.
         12    1    1    2    0    0 -0.30416477509E+02  0.15498214733E+02 -0.29389739010E+02  0.45045682624E+02  0.00000000000E+00 0. -1.
         11    1    3    3    0    0  0.10605180521E+02 -0.99402577031E+01  0.13551913157E+02  0.19872919452E+02  0.51100000000E-03 0.  1.
        -11    1    3    3    0    0  0.96011845146E+01 -0.35344545646E+01  0.55721664167E+01  0.11650070901E+02  0.51100000000E-03 0. -1.
        -12    1    3    3    0    0  0.10210112474E+02 -0.20235024649E+01  0.10265659437E+02  0.14619327023E+02  0.00000000000E+00 0.  1.
</event>
<event>
 7    1  0.1503436E-008  0.4614232E+02  0.7816164E-02  0.1320468E+00
        -11   -1    0    0    0    0  0.00000000000E+00  0.00000000000E+00  0.45593999997E+02  0.45594000000E+02  0.51100000000E-03 0.  1.
         11   -1    0    0    0    0 -0.00000000000E+00 -0.00000000000E+00 -0.45593999997E+02  0.45594000000E+02  0.51100000000E-03 0. -1.
    9900012    2    1    2    0    0  0.18735013104E+02 -0.40203933922E+02  0.78585265628E+01  0.46142318092E+02  0.10000003014E+02 0.  0.
         12    1    1    2    0    0 -0.18735013104E+02  0.40203933922E+02 -0.78585265628E+01  0.45045681908E+02  0.00000000000E+00 0. -1.
         11    1    3    3    0    0  0.81412886866E+01 -0.13405488135E+02 -0.32543761070E+00  0.15687370828E+02  0.51100000000E-03 0. -1.
        -11    1    3    3    0    0  0.10516657327E+02 -0.23075644813E+02  0.57390614291E+01  0.26000428674E+02  0.51100000000E-03 0.  1.
        -12    1    3    3    0    0  0.77067090548E-01 -0.37228009749E+01  0.24449027444E+01  0.44545185896E+01  0.00000000000E+00 0.  1.
</event>
<event>
 7    1  0.1503436E-008  0.4614232E+02  0.7816164E-02  0.1320468E+00
        -11   -1    0    0    0    0  0.00000000000E+00  0.00000000000E+00  0.45593999997E+02  0.45594000000E+02  0.51100000000E-03 0.  1.
         11   -1    0    0    0    0 -0.00000000000E+00 -0.00000000000E+00 -0.45593999997E+02  0.45594000000E+02  0.51100000000E-03 0. -1.
    9900012    2    1    2    0    0  0.40622381106E+02  0.13776867004E+02  0.13752590696E+02  0.46142315833E+02  0.99999824188E+01 0.  0.
         12    1    1    2    0    0 -0.40622381106E+02 -0.13776867004E+02 -0.13752590696E+02  0.45045684167E+02  0.00000000000E+00 0. -1.
         11    1    3    3    0    0  0.24261880773E+02  0.81889314934E+01  0.11082997536E+02  0.27902155692E+02  0.51100000000E-03 0. -1.
        -11    1    3    3    0    0  0.15957554302E+02  0.47051423405E+01  0.34550104122E+01  0.16991733312E+02  0.51100000000E-03 0.  1.
         12    1    3    3    0    0  0.40294603190E+00  0.88279317052E+00 -0.78541725223E+00  0.12484268287E+01  0.00000000000E+00 0. -1.
</event>
<event>
 7    1  0.1503436E-008  0.4614232E+02  0.7816164E-02  0.1320468E+00
        -11   -1    0    0    0    0  0.00000000000E+00  0.00000000000E+00  0.45593999997E+02  0.45594000000E+02  0.51100000000E-03 0.  1.
         11   -1    0    0    0    0 -0.00000000000E+00 -0.00000000000E+00 -0.45593999997E+02  0.45594000000E+02  0.51100000000E-03 0. -1.
    9900012    2    1    2    0    0  0.18759832760E+02  0.11626445338E+02  0.39268410409E+02  0.46142316384E+02  0.99999874400E+01 0.  0.
         12    1    1    2    0    0 -0.18759832760E+02 -0.11626445338E+02 -0.39268410409E+02  0.45045683616E+02  0.00000000000E+00 0. -1.
         11    1    3    3    0    0  0.14504010351E+02  0.60050384613E+01  0.27582704896E+02  0.31736925069E+02  0.51100000000E-03 0.  1.
        -11    1    3    3    0    0  0.38551515031E+00  0.40631996798E+01  0.43411151109E+01  0.59584808665E+01  0.51100000000E-03 0. -1.
         12    1    3    3    0    0  0.38703072589E+01  0.15582071974E+01  0.73445904018E+01  0.84469104482E+01  0.00000000000E+00 0. -1.
</event>
<event>
 7    1  0.1503436E-008  0.4614232E+02  0.7816164E-02  0.1320468E+00
        -11   -1    0    0    0    0  0.00000000000E+00  0.00000000000E+00  0.45593999997E+02  0.45594000000E+02  0.51100000000E-03 0.  1.
         11   -1    0    0    0    0 -0.00000000000E+00 -0.00000000000E+00 -0.45593999997E+02  0.45594000000E+02  0.51100000000E-03 0. -1.
    9900012    2    1    2    0    0  0.30508247645E+02  0.15889236003E+02  0.29084231178E+02  0.46142317650E+02  0.99999989906E+01 0.  0.
         12    1    1    2    0    0 -0.30508247645E+02 -0.15889236003E+02 -0.29084231178E+02  0.45045682350E+02  0.00000000000E+00 0. -1.
         11    1    3    3    0    0  0.23231055117E+01  0.91847538603E+00  0.23346817452E+00  0.25089686931E+01  0.51100000000E-03 0. -1.
        -11    1    3    3    0    0  0.22090040726E+02  0.13818554643E+02  0.25990685843E+02  0.36802691512E+02  0.51100000000E-03 0.  1.
        -12    1    3    3    0    0  0.60951014071E+01  0.11522059738E+01  0.28600771614E+01  0.68306574455E+01  0.00000000000E+00 0.  1.
</event>
<event>
 7    1  0.1503436E-008  0.4614232E+02  0.7816164E-02  0.1320468E+00
        -11   -1    0    0    0    0  0.00000000000E+00  0.00000000000E+00  0.45593999997E+02  0.45594000000E+02  0.51100000000E-03 0.  1.
         11   -1    0    0    0    0 -0.00000000000E+00 -0.00000000000E+00 -0.45593999997E+02  0.45594000000E+02  0.51100000000E-03 0. -1.
    9900012    2    1    2    0    0 -0.32195568760E+02 -0.30615804146E+02 -0.74317793168E+01  0.46142318130E+02  0.10000003368E+02 0.  0.
         12    1    1    2    0    0  0.32195568760E+02  0.30615804146E+02  0.74317793168E+01  0.45045681870E+02  0.00000000000E+00 0. -1.
         11    1    3    3    0    0 -0.28245852086E+02 -0.24621403456E+02 -0.51567071384E+01  0.37823713421E+02  0.51100000000E-03 0.  1.
        -11    1    3    3    0    0 -0.15525097582E+00  0.16839896671E+00  0.51383316808E+00  0.56257076286E+00  0.51100000000E-03 0. -1.
         12    1    3    3    0    0 -0.37944656980E+01 -0.61627996572E+01 -0.27889053464E+01  0.77560339465E+01  0.00000000000E+00 0. -1.
</event>
<event>
 7    1  0.1503436E-008  0.4614232E+02  0.7816164E-02  0.1320468E+00
        -11   -1    0    0    0    0  0.00000000000E+00  0.00000000000E+00  0.45593999997E+02  0.45594000000E+02  0.51100000000E-03 0.  1.
         11   -1    0    0    0    0 -0.00000000000E+00 -0.00000000000E+00 -0.45593999997E+02  0.45594000000E+02  0.51100000000E-03 0. -1.
    9900012    2    1    2    0    0  0.23316090641E+02  0.36600491912E+02  0.12077975479E+02  0.46142316715E+02  0.99999904579E+01 0.  0.
         12    1    1    2    0    0 -0.23316090641E+02 -0.36600491912E+02 -0.12077975479E+02  0.45045683285E+02  0.00000000000E+00 0. -1.
         11    1    3    3    0    0  0.89356650606E+01  0.22338710262E+02  0.79988015063E+01  0.25354386446E+02  0.51100000000E-03 0. -1.
        -11    1    3    3    0    0  0.10385830606E+02  0.10645362122E+02  0.19740109982E+01  0.15002864119E+02  0.51100000000E-03 0.  1.
        -12    1    3    3    0    0  0.39945949747E+01  0.36164195277E+01  0.21051629742E+01  0.57850661500E+01  0.00000000000E+00 0.  1.
</event>
<event>
 7    1  0.1503436E-008  0.4614232E+02  0.7816164E-02  0.1320468E+00
        -11   -1    0    0    0    0  0.00000000000E+00  0.00000000000E+00  0.45593999997E+02  0.45594000000E+02  0.51100000000E-03 0. -1.
         11   -1    0    0    0    0 -0.00000000000E+00 -0.00000000000E+00 -0.45593999997E+02  0.45594000000E+02  0.51100000000E-03 0.  1.
    9900012    2    1    2    0    0 -0.79701761121E+01 -0.39591514101E+02 -0.19952489554E+02  0.46142317239E+02  0.99999952359E+01 0.  0.
         12    1    1    2    0    0  0.79701761121E+01  0.39591514101E+02  0.19952489554E+02  0.45045682761E+02  0.00000000000E+00 0. -1.
         11    1    3    3    0    0 -0.84501923933E+01 -0.31217885644E+02 -0.18702990521E+02  0.37359924923E+02  0.51100000000E-03 0. -1.
        -11    1    3    3    0    0  0.58174068071E+00 -0.85060833497E+01 -0.12199870674E+01  0.86127954159E+01  0.51100000000E-03 0.  1.
         12    1    3    3    0    0 -0.10172439948E+00  0.13245489325E+00 -0.29511965342E-01  0.16959689942E+00  0.00000000000E+00 0. -1.
</event>
<event>
 7    1  0.1503436E-008  0.4614232E+02  0.7816164E-02  0.1320468E+00
        -11   -1    0    0    0    0  0.00000000000E+00  0.00000000000E+00  0.45593999997E+02  0.45594000000E+02  0.51100000000E-03 0.  1.
         11   -1    0    0    0    0 -0.00000000000E+00 -0.00000000000E+00 -0.45593999997E+02  0.45594000000E+02  0.51100000000E-03 0. -1.
    9900012    2    1    2    0    0  0.32922273927E+02  0.29025481958E+02 -0.10137002941E+02  0.46142317054E+02  0.99999935498E+01 0.  0.
         12    1    1    2    0    0 -0.32922273927E+02 -0.29025481958E+02  0.10137002941E+02  0.45045682946E+02  0.00000000000E+00 0. -1.
         11    1    3    3    0    0  0.11982145514E+02  0.12113284639E+02 -0.88069998095E+01  0.19179851975E+02  0.51100000000E-03 0. -1.
        -11    1    3    3    0    0  0.13877994523E+02  0.10730779181E+02 -0.10062273496E+01  0.17571592061E+02  0.51100000000E-03 0.  1.
         12    1    3    3    0    0  0.70621338911E+01  0.61814181381E+01 -0.32377578176E+00  0.93908730185E+01  0.00000000000E+00 0. -1.
</event>
<event>
 7    1  0.1503436E-008  0.4614232E+02  0.7816164E-02  0.1320468E+00
        -11   -1    0    0    0    0  0.00000000000E+00  0.00000000000E+00  0.45593999997E+02  0.45594000000E+02  0.51100000000E-03 0.  1.
         11   -1    0    0    0    0 -0.00000000000E+00 -0.00000000000E+00 -0.45593999997E+02  0.45594000000E+02  0.51100000000E-03 0. -1.
    9900012    2    1    2    0    0  0.38266840468E+02  0.23718389748E+02  0.14833693497E+01  0.46142317895E+02  0.10000001220E+02 0.  0.
         12    1    1    2    0    0 -0.38266840468E+02 -0.23718389748E+02 -0.14833693497E+01  0.45045682105E+02  0.00000000000E+00 0. -1.
         11    1    3    3    0    0  0.52546422715E+01  0.68434074641E+01  0.86626250675E+00  0.86714417552E+01  0.51100000000E-03 0. -1.
        -11    1    3    3    0    0  0.16728635842E+02  0.90604291181E+01 -0.23426214303E+01  0.19168372606E+02  0.51100000000E-03 0.  1.
         12    1    3    3    0    0  0.16283562355E+02  0.78145531663E+01  0.29597282733E+01  0.18302503534E+02  0.00000000000E+00 0. -1.
</event>
<event>
 7    1  0.1503436E-008  0.4614232E+02  0.7816164E-02  0.1320468E+00
        -11   -1    0    0    0    0  0.00000000000E+00  0.00000000000E+00  0.45593999997E+02  0.45594000000E+02  0.51100000000E-03 0.  1.
         11   -1    0    0    0    0 -0.00000000000E+00 -0.00000000000E+00 -0.45593999997E+02  0.45594000000E+02  0.51100000000E-03 0. -1.
    9900012    2    1    2    0    0  0.34546364858E+02  0.28503115769E+02  0.48202278583E+01  0.46142317298E+02  0.99999957765E+01 0.  0.
         12    1    1    2    0    0 -0.34546364858E+02 -0.28503115769E+02 -0.48202278583E+01  0.45045682702E+02  0.00000000000E+00 0. -1.
         11    1    3    3    0    0  0.13147708021E+02  0.62993438513E+01  0.42499828011E+01  0.15185727287E+02  0.51100000000E-03 0. -1.
        -11    1    3    3    0    0  0.84477131900E+01  0.69832083830E+01 -0.94100761514E-01  0.10960744166E+02  0.51100000000E-03 0.  1.
         12    1    3    3    0    0  0.12950943647E+02  0.15220563535E+02  0.66434581872E+00  0.19995845845E+02  0.00000000000E+00 0. -1.
</event>
<event>
 7    1  0.1503436E-008  0.4614232E+02  0.7816164E-02  0.1320468E+00
        -11   -1    0    0    0    0  0.00000000000E+00  0.00000000000E+00  0.45593999997E+02  0.45594000000E+02  0.51100000000E-03 0.  1.
         11   -1    0    0    0    0 -0.00000000000E+00 -0.00000000000E+00 -0.45593999997E+02  0.45594000000E+02  0.51100000000E-03 0. -1.
    9900012    2    1    2    0    0 -0.31598855325E+02 -0.20821862233E+02  0.24435131790E+02  0.46142320181E+02  0.10000022070E+02 0.  0.
         12    1    1    2    0    0  0.31598855325E+02  0.20821862233E+02 -0.24435131790E+02  0.45045679819E+02  0.00000000000E+00 0. -1.
         11    1    3    3    0    0 -0.10993796316E+02 -0.72697182215E+01  0.32968196467E+01  0.13586073035E+02  0.51100000000E-03 0. -1.
        -11    1    3    3    0    0 -0.58200079329E+01 -0.44055053841E+01  0.74369971933E+01  0.10420647655E+02  0.51100000000E-03 0.  1.
         12    1    3    3    0    0 -0.14785051076E+02 -0.91466386278E+01  0.13701314950E+02  0.22135599492E+02  0.00000000000E+00 0. -1.
</event>
<event>
 7    1  0.1503436E-008  0.4614232E+02  0.7816164E-02  0.1320468E+00
        -11   -1    0    0    0    0  0.00000000000E+00  0.00000000000E+00  0.45593999997E+02  0.45594000000E+02  0.51100000000E-03 0. -1.
         11   -1    0    0    0    0 -0.00000000000E+00 -0.00000000000E+00 -0.45593999997E+02  0.45594000000E+02  0.51100000000E-03 0.  1.
    9900012    2    1    2    0    0 -0.12025641355E+02  0.12483302225E+02 -0.41577212525E+02  0.46142317790E+02  0.10000000262E+02 0.  0.
         12    1    1    2    0    0  0.12025641355E+02 -0.12483302225E+02  0.41577212525E+02  0.45045682210E+02  0.00000000000E+00 0. -1.
         11    1    3    3    0    0 -0.20939129734E+01  0.50949476190E+01 -0.56884664648E+01  0.79184350577E+01  0.51100000000E-03 0. -1.
        -11    1    3    3    0    0 -0.84218889132E+01  0.49580397811E+01 -0.31531009549E+02  0.33010830568E+02  0.51100000000E-03 0.  1.
        -12    1    3    3    0    0 -0.15098394679E+01  0.24303148253E+01 -0.43577365114E+01  0.52130521647E+01  0.00000000000E+00 0.  1.
</event>
<event>
 7    1  0.1503436E-008  0.4614232E+02  0.7816164E-02  0.1320468E+00
        -11   -1    0    0    0    0  0.00000000000E+00  0.00000000000E+00  0.45593999997E+02  0.45594000000E+02  0.51100000000E-03 0. -1.
         11   -1    0    0    0    0 -0.00000000000E+00 -0.00000000000E+00 -0.45593999997E+02  0.45594000000E+02  0.51100000000E-03 0.  1.
    9900012    2    1    2    0    0  0.17756385071E+02 -0.22798284546E+02 -0.34555209495E+02  0.46142317718E+02  0.99999996029E+01 0.  0.
         12    1    1    2    0    0 -0.17756385071E+02  0.22798284546E+02  0.34555209495E+02  0.45045682282E+02  0.00000000000E+00 0. -1.
         11    1    3    3    0    0  0.26035425374E+01 -0.57909472078E+00 -0.75901438651E+01  0.80451270092E+01  0.51100000000E-03 0. -1.
        -11    1    3    3    0    0  0.10159938789E+02 -0.14633295847E+02 -0.17226575904E+02  0.24781295793E+02  0.51100000000E-03 0.  1.
         12    1    3    3    0    0  0.49929037448E+01 -0.75858939780E+01 -0.97384897256E+01  0.13315894915E+02  0.00000000000E+00 0. -1.
</event>
<event>
 7    1  0.1503436E-008  0.4614232E+02  0.7816164E-02  0.1320468E+00
        -11   -1    0    0    0    0  0.00000000000E+00  0.00000000000E+00  0.45593999997E+02  0.45594000000E+02  0.51100000000E-03 0.  1.
         11   -1    0    0    0    0 -0.00000000000E+00 -0.00000000000E+00 -0.45593999997E+02  0.45594000000E+02  0.51100000000E-03 0. -1.
    9900012    2    1    2    0    0  0.11431952657E+02 -0.29781674251E+02  0.31803706993E+02  0.46142318284E+02  0.10000004770E+02 0.  0.
         12    1    1    2    0    0 -0.11431952657E+02  0.29781674251E+02 -0.31803706993E+02  0.45045681716E+02  0.00000000000E+00 0. -1.
         11    1    3    3    0    0  0.40719465706E+00  0.53892701148E+00  0.14102054552E+01  0.15636270334E+01  0.51100000000E-03 0. -1.
        -11    1    3    3    0    0  0.31247067284E+01 -0.11847636999E+02  0.14337791456E+02  0.18860078438E+02  0.51100000000E-03 0.  1.
         12    1    3    3    0    0  0.79000512716E+01 -0.18472964264E+02  0.16055710081E+02  0.25718612813E+02  0.00000000000E+00 0. -1.
</event>
<event>
 7    1  0.1503436E-008  0.4614232E+02  0.7816164E-02  0.1320468E+00
        -11   -1    0    0    0    0  0.00000000000E+00  0.00000000000E+00  0.45593999997E+02  0.45594000000E+02  0.51100000000E-03 0.  1.
         11   -1    0    0    0    0 -0.00000000000E+00 -0.00000000000E+00 -0.45593999997E+02  0.45594000000E+02  0.51100000000E-03 0. -1.
    9900012    2    1    2    0    0 -0.71386325692E+01  0.23775853398E+02  0.37588059188E+02  0.46142317928E+02  0.10000001523E+02 0.  0.
         12    1    1    2    0    0  0.71386325692E+01 -0.23775853398E+02 -0.37588059188E+02  0.45045682072E+02  0.00000000000E+00 0. -1.
         11    1    3    3    0    0 -0.57772290037E+01  0.13997330140E+02  0.20497034995E+02  0.25483917867E+02  0.51100000000E-03 0. -1.
        -11    1    3    3    0    0  0.24193267090E+01  0.35252087425E+01  0.69259619243E+01  0.81393603705E+01  0.51100000000E-03 0.  1.
        -12    1    3    3    0    0 -0.37807302745E+01  0.62533145161E+01  0.10165062269E+02  0.12519039691E+02  0.00000000000E+00 0.  1.
</event>
<event>
 7    1  0.1503436E-008  0.4614232E+02  0.7816164E-02  0.1320468E+00
        -11   -1    0    0    0    0  0.00000000000E+00  0.00000000000E+00  0.45593999997E+02  0.45594000000E+02  0.51100000000E-03 0.  1.
         11   -1    0    0    0    0 -0.00000000000E+00 -0.00000000000E+00 -0.45593999997E+02  0.45594000000E+02  0.51100000000E-03 0. -1.
    9900012    2    1    2    0    0  0.49590084075E+01 -0.42348852713E+02  0.14529156983E+02  0.46142317708E+02  0.99999995197E+01 0.  0.
         12    1    1    2    0    0 -0.49590084075E+01  0.42348852713E+02 -0.14529156983E+02  0.45045682292E+02  0.00000000000E+00 0. -1.
         11    1    3    3    0    0  0.14479219924E+01 -0.21420997793E+02  0.90268126192E+01  0.23290319252E+02  0.51100000000E-03 0.  1.
        -11    1    3    3    0    0  0.49584314348E+01 -0.18060463055E+02  0.58503363968E+01  0.19621233506E+02  0.51100000000E-03 0. -1.
         12    1    3    3    0    0 -0.14473450197E+01 -0.28673918649E+01 -0.34799203332E+00  0.32307649509E+01  0.00000000000E+00 0. -1.
</event>
<event>
 7    1  0.1503436E-008  0.4614232E+02  0.7816164E-02  0.1320468E+00
        -11   -1    0    0    0    0  0.00000000000E+00  0.00000000000E+00  0.45593999997E+02  0.45594000000E+02  0.51100000000E-03 0.  1.
         11   -1    0    0    0    0 -0.00000000000E+00 -0.00000000000E+00 -0.45593999997E+02  0.45594000000E+02  0.51100000000E-03 0. -1.
    9900012    2    1    2    0    0 -0.22262186420E+02  0.26958598937E+02  0.28403212464E+02  0.46142317864E+02  0.10000000936E+02 0.  0.
         12    1    1    2    0    0  0.22262186420E+02 -0.26958598937E+02 -0.28403212464E+02  0.45045682136E+02  0.00000000000E+00 0. -1.
         11    1    3    3    0    0 -0.63949854112E+01  0.96022248768E+01  0.12685702507E+02  0.17147174967E+02  0.51100000000E-03 0. -1.
        -11    1    3    3    0    0 -0.15533496485E+00  0.28167920931E+01  0.90379820472E+00  0.29623129650E+01  0.51100000000E-03 0.  1.
        -12    1    3    3    0    0 -0.15711866044E+02  0.14539581967E+02  0.14813711752E+02  0.26032829931E+02  0.00000000000E+00 0.  1.
</event>
<event>
 7    1  0.1503436E-008  0.4614232E+02  0.7816164E-02  0.1320468E+00
        -11   -1    0    0    0    0  0.00000000000E+00  0.00000000000E+00  0.45593999997E+02  0.45594000000E+02  0.51100000000E-03 0.  1.
         11   -1    0    0    0    0 -0.00000000000E+00 -0.00000000000E+00 -0.45593999997E+02  0.45594000000E+02  0.51100000000E-03 0. -1.
    9900012    2    1    2    0    0 -0.95684861038E+00  0.44873811004E+02  0.38130083482E+01  0.46142317566E+02  0.99999982177E+01 0.  0.
         12    1    1    2    0    0  0.95684861038E+00 -0.44873811004E+02 -0.38130083482E+01  0.45045682434E+02  0.00000000000E+00 0. -1.
         11    1    3    3    0    0  0.11375106436E+01  0.42889364331E+01 -0.53906084443E+00  0.44698426199E+01  0.51100000000E-03 0. -1.
        -11    1    3    3    0    0 -0.17541906293E+01  0.25583528429E+02  0.66512807122E+01  0.26492143118E+02  0.51100000000E-03 0.  1.
        -12    1    3    3    0    0 -0.34016862471E+00  0.15001346143E+02 -0.22992115196E+01  0.15180331828E+02  0.00000000000E+00 0.  1.
</event>
<event>
 7    1  0.1503436E-008  0.4614232E+02  0.7816164E-02  0.1320468E+00
        -11   -1    0    0    0    0  0.00000000000E+00  0.00000000000E+00  0.45593999997E+02  0.45594000000E+02  0.51100000000E-03 0.  1.
         11   -1    0    0    0    0 -0.00000000000E+00 -0.00000000000E+00 -0.45593999997E+02  0.45594000000E+02  0.51100000000E-03 0. -1.
    9900012    2    1    2    0    0 -0.11048610930E+02  0.52819399551E+01  0.43349081608E+02  0.46142316861E+02  0.99999917902E+01 0.  0.
         12    1    1    2    0    0  0.11048610930E+02 -0.52819399551E+01 -0.43349081608E+02  0.45045683139E+02  0.00000000000E+00 0. -1.
         11    1    3    3    0    0 -0.38400051357E+01 -0.12821460610E+01  0.13322419178E+02  0.13923950265E+02  0.51100000000E-03 0. -1.
        -11    1    3    3    0    0 -0.64396891672E+01  0.67268059548E+01  0.18956421702E+02  0.21120261337E+02  0.51100000000E-03 0.  1.
        -12    1    3    3    0    0 -0.76891662736E+00 -0.16271993867E+00  0.11070240729E+02  0.11098105259E+02  0.00000000000E+00 0.  1.
</event>
<event>
 7    1  0.1804975E-008  0.4614232E+02  0.7816164E-02  0.1320468E+00
        -11   -1    0    0    0    0  0.00000000000E+00  0.00000000000E+00  0.45593999997E+02  0.45594000000E+02  0.51100000000E-03 0. -1.
         11   -1    0    0    0    0 -0.00000000000E+00 -0.00000000000E+00 -0.45593999997E+02  0.45594000000E+02  0.51100000000E-03 0.  1.
    9900012    2    1    2    0    0  0.22776549567E+02 -0.34173707654E+02 -0.18506754294E+02  0.46142318081E+02  0.10000002916E+02 0.  0.
         12    1    1    2    0    0 -0.22776549567E+02  0.34173707654E+02  0.18506754294E+02  0.45045681919E+02  0.00000000000E+00 0. -1.
         11    1    3    3    0    0  0.12661356160E+01 -0.53077182915E+01 -0.14089082222E+01  0.56356007222E+01  0.51100000000E-03 0. -1.
        -11    1    3    3    0    0  0.20786565115E+02 -0.26795053297E+02 -0.13949438842E+02  0.36669374344E+02  0.51100000000E-03 0.  1.
        -12    1    3    3    0    0  0.72384883595E+00 -0.20709360655E+01 -0.31484072307E+01  0.38373430150E+01  0.00000000000E+00 0.  1.
</event>
<event>
 7    1  0.1503436E-008  0.4614231E+02  0.7816164E-02  0.1320468E+00
        -11   -1    0    0    0    0  0.00000000000E+00  0.00000000000E+00  0.45593999997E+02  0.45594000000E+02  0.51100000000E-03 0.  1.
         11   -1    0    0    0    0 -0.00000000000E+00 -0.00000000000E+00 -0.45593999997E+02  0.45594000000E+02  0.51100000000E-03 0. -1.
    9900012    2    1    2    0    0 -0.46712328897E+01 -0.44452619419E+02  0.55908874780E+01  0.46142314161E+02  0.99999671697E+01 0.  0.
         12    1    1    2    0    0  0.46712328897E+01  0.44452619419E+02 -0.55908874780E+01  0.45045685839E+02  0.00000000000E+00 0. -1.
         11    1    3    3    0    0 -0.46718074779E+01 -0.89336573282E+01  0.29660423354E+00  0.10085831285E+02  0.51100000000E-03 0. -1.
        -11    1    3    3    0    0  0.10726742692E+01 -0.29681008359E+02  0.38609069291E+01  0.29950283636E+02  0.51100000000E-03 0.  1.
         12    1    3    3    0    0 -0.10720996810E+01 -0.58379537318E+01  0.14333763153E+01  0.61061992403E+01  0.00000000000E+00 0. -1.
</event>
<event>
 7    1  0.1503436E-008  0.4614232E+02  0.7816164E-02  0.1320468E+00
        -11   -1    0    0    0    0  0.00000000000E+00  0.00000000000E+00  0.45593999997E+02  0.45594000000E+02  0.51100000000E-03 0.  1.
         11   -1    0    0    0    0 -0.00000000000E+00 -0.00000000000E+00 -0.45593999997E+02  0.45594000000E+02  0.51100000000E-03 0. -1.
    9900012    2    1    2    0    0 -0.35636317141E+02  0.25842587632E+02  0.95565129513E+01  0.46142319023E+02  0.10000011509E+02 0.  0.
         12    1    1    2    0    0  0.35636317141E+02 -0.25842587632E+02 -0.95565129513E+01  0.45045680977E+02  0.00000000000E+00 0. -1.
         11    1    3    3    0    0 -0.15409344749E+02  0.10431031644E+02  0.65399206571E+01  0.19723713880E+02  0.51100000000E-03 0. -1.
        -11    1    3    3    0    0 -0.40868600051E+01  0.22627709870E+01  0.30889417491E+01  0.56003677229E+01  0.51100000000E-03 0.  1.
         12    1    3    3    0    0 -0.16140112387E+02  0.13148785001E+02 -0.72349454861E-01  0.20818237421E+02  0.00000000000E+00 0. -1.
</event>
<event>
 7    1  0.1503436E-008  0.4614233E+02  0.7816164E-02  0.1320468E+00
        -11   -1    0    0    0    0  0.00000000000E+00  0.00000000000E+00  0.45593999997E+02  0.45594000000E+02  0.51100000000E-03 0.  1.
         11   -1    0    0    0    0 -0.00000000000E+00 -0.00000000000E+00 -0.45593999997E+02  0.45594000000E+02  0.51100000000E-03 0. -1.
    9900012    2    1    2    0    0  0.16454635123E+02 -0.21263842598E+01  0.41878827621E+02  0.46142326179E+02  0.10000076763E+02 0.  0.
         12    1    1    2    0    0 -0.16454635123E+02  0.21263842598E+01 -0.41878827621E+02  0.45045673821E+02  0.00000000000E+00 0. -1.
         11    1    3    3    0    0  0.85430966679E+01 -0.44358074301E+01  0.20854186611E+02  0.22968630514E+02  0.51100000000E-03 0.  1.
        -11    1    3    3    0    0  0.26243002480E+01  0.30369078950E+01  0.12378870024E+02  0.13013307984E+02  0.51100000000E-03 0. -1.
         12    1    3    3    0    0  0.52872382066E+01 -0.72748472479E+00  0.86457709857E+01  0.10160387680E+02  0.00000000000E+00 0. -1.
</event>
<event>
 7    1  0.1503436E-008  0.4614232E+02  0.7816164E-02  0.1320468E+00
        -11   -1    0    0    0    0  0.00000000000E+00  0.00000000000E+00  0.45593999997E+02  0.45594000000E+02  0.51100000000E-03 0.  1.
         11   -1    0    0    0    0 -0.00000000000E+00 -0.00000000000E+00 -0.45593999997E+02  0.45594000000E+02  0.51100000000E-03 0. -1.
    9900012    2    1    2    0    0 -0.22606486974E+01  0.25965207329E+01  0.44913929370E+02  0.46142317589E+02  0.99999984294E+01 0.  0.
         12    1    1    2    0    0  0.22606486974E+01 -0.25965207329E+01 -0.44913929370E+02  0.45045682411E+02  0.00000000000E+00 0. -1.
         11    1    3    3    0    0  0.77242353284E+00  0.44874855888E+01  0.10427554164E+02  0.11378402837E+02  0.51100000000E-03 0. -1.
        -11    1    3    3    0    0 -0.10651197379E+01 -0.21486962373E+01  0.19250706927E+02  0.19399512701E+02  0.51100000000E-03 0.  1.
         12    1    3    3    0    0 -0.19679524924E+01  0.25773138138E+00  0.15235668280E+02  0.15364402052E+02  0.00000000000E+00 0. -1.
</event>
<event>
 7    1  0.1503436E-008  0.4614232E+02  0.7816164E-02  0.1320468E+00
        -11   -1    0    0    0    0  0.00000000000E+00  0.00000000000E+00  0.45593999997E+02  0.45594000000E+02  0.51100000000E-03 0. -1.
         11   -1    0    0    0    0 -0.00000000000E+00 -0.00000000000E+00 -0.45593999997E+02  0.45594000000E+02  0.51100000000E-03 0.  1.
    9900012    2    1    2    0    0  0.11307543950E+02 -0.40024006374E+02 -0.17301208877E+02  0.46142318020E+02  0.10000002361E+02 0.  0.
         12    1    1    2    0    0 -0.11307543950E+02  0.40024006374E+02  0.17301208877E+02  0.45045681980E+02  0.00000000000E+00 0. -1.
         11    1    3    3    0    0  0.44647419802E+01 -0.15265291654E+02 -0.37036025385E+01  0.16330331358E+02  0.51100000000E-03 0. -1.
        -11    1    3    3    0    0  0.71960931243E+01 -0.23738904193E+02 -0.14193362905E+02  0.28579203616E+02  0.51100000000E-03 0.  1.
        -12    1    3    3    0    0 -0.35329115479E+00 -0.10198105273E+01  0.59575656627E+00  0.12327830457E+01  0.00000000000E+00 0.  1.
</event>
<event>
 7    1  0.1503436E-008  0.4614232E+02  0.7816164E-02  0.1320468E+00
        -11   -1    0    0    0    0  0.00000000000E+00  0.00000000000E+00  0.45593999997E+02  0.45594000000E+02  0.51100000000E-03 0.  1.
         11   -1    0    0    0    0 -0.00000000000E+00 -0.00000000000E+00 -0.45593999997E+02  0.45594000000E+02  0.51100000000E-03 0. -1.
    9900012    2    1    2    0    0  0.22212743258E+02  0.73674875127E+01  0.38489319386E+02  0.46142317165E+02  0.99999945606E+01 0.  0.
         12    1    1    2    0    0 -0.22212743258E+02 -0.73674875127E+01 -0.38489319386E+02  0.45045682835E+02  0.00000000000E+00 0. -1.
         11    1    3    3    0    0  0.28371230354E+01  0.29012524275E+01  0.48323971375E+01  0.63101977086E+01  0.51100000000E-03 0. -1.
        -11    1    3    3    0    0  0.10254642725E+02 -0.13141287011E+01  0.18948340047E+02  0.21585277910E+02  0.51100000000E-03 0.  1.
        -12    1    3    3    0    0  0.91209774981E+01  0.57803637863E+01  0.14708582201E+02  0.18246841546E+02  0.00000000000E+00 0.  1.
</event>
<event>
 7    1  0.1503436E-008  0.4614232E+02  0.7816164E-02  0.1320468E+00
        -11   -1    0    0    0    0  0.00000000000E+00  0.00000000000E+00  0.45593999997E+02  0.45594000000E+02  0.51100000000E-03 0.  1.
         11   -1    0    0    0    0 -0.00000000000E+00 -0.00000000000E+00 -0.45593999997E+02  0.45594000000E+02  0.51100000000E-03 0. -1.
    9900012    2    1    2    0    0 -0.40194776788E+02 -0.17658272481E+02  0.10083589884E+02  0.46142318153E+02  0.10000003574E+02 0.  0.
         12    1    1    2    0    0  0.40194776788E+02  0.17658272481E+02 -0.10083589884E+02  0.45045681847E+02  0.00000000000E+00 0. -1.
         11    1    3    3    0    0 -0.17560908687E+02 -0.57784435275E+01  0.69450850796E+01  0.19748674146E+02  0.51100000000E-03 0.  1.
        -11    1    3    3    0    0 -0.18684219224E+02 -0.94609928043E+01  0.26795887747E+00  0.20944742421E+02  0.51100000000E-03 0. -1.
         12    1    3    3    0    0 -0.39496488777E+01 -0.24188361495E+01  0.28705459272E+01  0.54489015862E+01  0.00000000000E+00 0. -1.
</event>
<event>
 7    1  0.1503436E-008  0.4614232E+02  0.7816164E-02  0.1320468E+00
        -11   -1    0    0    0    0  0.00000000000E+00  0.00000000000E+00  0.45593999997E+02  0.45594000000E+02  0.51100000000E-03 0. -1.
         11   -1    0    0    0    0 -0.00000000000E+00 -0.00000000000E+00 -0.45593999997E+02  0.45594000000E+02  0.51100000000E-03 0.  1.
    9900012    2    1    2    0    0  0.24460529339E+02 -0.28308393724E+02 -0.25088456273E+02  0.46142319974E+02  0.10000020181E+02 0.  0.
         12    1    1    2    0    0 -0.24460529339E+02  0.28308393724E+02  0.25088456273E+02  0.45045680026E+02  0.00000000000E+00 0. -1.
         11    1    3    3    0    0  0.11879912449E+02 -0.92935857999E+01 -0.13388964646E+02  0.20168476178E+02  0.51100000000E-03 0. -1.
        -11    1    3    3    0    0  0.42798695327E+01 -0.35617292001E+01 -0.37644617661E+01  0.67211881957E+01  0.51100000000E-03 0.  1.
         12    1    3    3    0    0  0.83007473572E+01 -0.15453078724E+02 -0.79350298618E+01  0.19252655600E+02  0.00000000000E+00 0. -1.
</event>
<event>
 7    1  0.1503436E-008  0.4614232E+02  0.7816164E-02  0.1320468E+00
        -11   -1    0    0    0    0  0.00000000000E+00  0.00000000000E+00  0.45593999997E+02  0.45594000000E+02  0.51100000000E-03 0. -1.
         11   -1    0    0    0    0 -0.00000000000E+00 -0.00000000000E+00 -0.45593999997E+02  0.45594000000E+02  0.51100000000E-03 0.  1.
    9900012    2    1    2    0    0 -0.34611021931E+02  0.93018392253E+01 -0.27288576749E+02  0.46142317931E+02  0.10000001551E+02 0.  0.
         12    1    1    2    0    0  0.34611021931E+02 -0.93018392253E+01  0.27288576749E+02  0.45045682069E+02  0.00000000000E+00 0. -1.
         11    1    3    3    0    0 -0.26433509849E+02  0.44003845008E+01 -0.20465479582E+02  0.33718387884E+02  0.51100000000E-03 0. -1.
        -11    1    3    3    0    0 -0.67232156882E+01  0.27047286145E+01 -0.31455368491E+01  0.79001005309E+01  0.51100000000E-03 0.  1.
         12    1    3    3    0    0 -0.14542963929E+01  0.21967261100E+01 -0.36775603176E+01  0.45238295160E+01  0.00000000000E+00 0. -1.
</event>
<event>
 7    1  0.1503436E-008  0.4614232E+02  0.7816164E-02  0.1320468E+00
        -11   -1    0    0    0    0  0.00000000000E+00  0.00000000000E+00  0.45593999997E+02  0.45594000000E+02  0.51100000000E-03 0.  1.
         11   -1    0    0    0    0 -0.00000000000E+00 -0.00000000000E+00 -0.45593999997E+02  0.45594000000E+02  0.51100000000E-03 0. -1.
    9900012    2    1    2    0    0  0.57866159587E+01  0.13392354579E+02  0.42617759254E+02  0.46142317751E+02  0.99999999103E+01 0.  0.
         12    1    1    2    0    0 -0.57866159587E+01 -0.13392354579E+02 -0.42617759254E+02  0.45045682249E+02  0.00000000000E+00 0. -1.
         11    1    3    3    0    0 -0.10627733304E+01 -0.51004740388E+00  0.28870144698E+01  0.31184111845E+01  0.51100000000E-03 0. -1.
        -11    1    3    3    0    0  0.71672648561E+01  0.11605371033E+02  0.37040462145E+02  0.39472144083E+02  0.51100000000E-03 0.  1.
        -12    1    3    3    0    0 -0.31787556696E+00  0.22970309503E+01  0.26902826388E+01  0.35517624835E+01  0.00000000000E+00 0.  1.
</event>
<event>
 7    1  0.1503436E-008  0.4614232E+02  0.7816164E-02  0.1320468E+00
        -11   -1    0    0    0    0  0.00000000000E+00  0.00000000000E+00  0.45593999997E+02  0.45594000000E+02  0.51100000000E-03 0. -1.
         11   -1    0    0    0    0 -0.00000000000E+00 -0.00000000000E+00 -0.45593999997E+02  0.45594000000E+02  0.51100000000E-03 0.  1.
    9900012    2    1    2    0    0 -0.42029380492E+01 -0.22418897317E+02 -0.38843814116E+02  0.46142317185E+02  0.99999947473E+01 0.  0.
         12    1    1    2    0    0  0.42029380492E+01  0.22418897317E+02  0.38843814116E+02  0.45045682815E+02  0.00000000000E+00 0. -1.
         11    1    3    3    0    0  0.79356255109E-01  0.91067386106E+00 -0.73474492726E+00  0.11728063206E+01  0.51100000000E-03 0. -1.
        -11    1    3    3    0    0 -0.22794039928E+01 -0.84634426981E+01 -0.16165223766E+02  0.18388583538E+02  0.51100000000E-03 0.  1.
         12    1    3    3    0    0 -0.20028903115E+01 -0.14866128480E+02 -0.21943845423E+02  0.26580927327E+02  0.00000000000E+00 0. -1.
</event>
<event>
 7    1  0.1503436E-008  0.4614232E+02  0.7816164E-02  0.1320468E+00
        -11   -1    0    0    0    0  0.00000000000E+00  0.00000000000E+00  0.45593999997E+02  0.45594000000E+02  0.51100000000E-03 0.  1.
         11   -1    0    0    0    0 -0.00000000000E+00 -0.00000000000E+00 -0.45593999997E+02  0.45594000000E+02  0.51100000000E-03 0. -1.
    9900012    2    1    2    0    0  0.17621709764E+02  0.40528387831E+02  0.87200139894E+01  0.46142317419E+02  0.99999968801E+01 0.  0.
         12    1    1    2    0    0 -0.17621709764E+02 -0.40528387831E+02 -0.87200139894E+01  0.45045682581E+02  0.00000000000E+00 0. -1.
         11    1    3    3    0    0  0.69461317382E+01  0.71402571502E+01  0.36005461463E+01  0.10592259018E+02  0.51100000000E-03 0. -1.
        -11    1    3    3    0    0  0.36583354033E+01  0.13695380891E+02  0.76815950949E+00  0.14196370838E+02  0.51100000000E-03 0.  1.
         12    1    3    3    0    0  0.70172426223E+01  0.19692749790E+02  0.43513083336E+01  0.21353687563E+02  0.00000000000E+00 0. -1.
</event>
<event>
 7    1  0.1503436E-008  0.4614231E+02  0.7816164E-02  0.1320468E+00
        -11   -1    0    0    0    0  0.00000000000E+00  0.00000000000E+00  0.45593999997E+02  0.45594000000E+02  0.51100000000E-03 0.  1.
         11   -1    0    0    0    0 -0.00000000000E+00 -0.00000000000E+00 -0.45593999997E+02  0.45594000000E+02  0.51100000000E-03 0. -1.
    9900012    2    1    2    0    0 -0.23730698142E+02 -0.30133697977E+02  0.23620511756E+02  0.46142308045E+02  0.99999114009E+01 0.  0.
         12    1    1    2    0    0  0.23730698142E+02  0.30133697977E+02 -0.23620511756E+02  0.45045691955E+02  0.00000000000E+00 0. -1.
         11    1    3    3    0    0 -0.64330648461E+01 -0.13828311577E+02  0.57886503196E+01  0.16313031514E+02  0.51100000000E-03 0. -1.
        -11    1    3    3    0    0 -0.75893958871E+01 -0.87157684122E+01  0.78507606903E+01  0.13971327518E+02  0.51100000000E-03 0.  1.
         12    1    3    3    0    0 -0.97082374089E+01 -0.75896179873E+01  0.99811007464E+01  0.15857949013E+02  0.00000000000E+00 0. -1.
</event>
<event>
 7    1  0.1503436E-008  0.4614232E+02  0.7816164E-02  0.1320468E+00
        -11   -1    0    0    0    0  0.00000000000E+00  0.00000000000E+00  0.45593999997E+02  0.45594000000E+02  0.51100000000E-03 0.  1.
         11   -1    0    0    0    0 -0.00000000000E+00 -0.00000000000E+00 -0.45593999997E+02  0.45594000000E+02  0.51100000000E-03 0. -1.
    9900012    2    1    2    0    0 -0.12121760478E+02  0.22273438369E+02  0.37229965074E+02  0.46142318373E+02  0.10000005575E+02 0.  0.
         12    1    1    2    0    0  0.12121760478E+02 -0.22273438369E+02 -0.37229965074E+02  0.45045681627E+02  0.00000000000E+00 0. -1.
         11    1    3    3    0    0 -0.53322283538E+01  0.31004945409E+01  0.11761128892E+02  0.13280432173E+02  0.51100000000E-03 0. -1.
        -11    1    3    3    0    0 -0.24258337263E+01  0.12197357855E+02  0.13708900633E+02  0.18509299412E+02  0.51100000000E-03 0.  1.
         12    1    3    3    0    0 -0.43636983975E+01  0.69755859730E+01  0.11759935549E+02  0.14352586787E+02  0.00000000000E+00 0. -1.
</event>
<event>
 7    1  0.1503436E-008  0.4614232E+02  0.7816164E-02  0.1320468E+00
        -11   -1    0    0    0    0  0.00000000000E+00  0.00000000000E+00  0.45593999997E+02  0.45594000000E+02  0.51100000000E-03 0. -1.
         11   -1    0    0    0    0 -0.00000000000E+00 -0.00000000000E+00 -0.45593999997E+02  0.45594000000E+02  0.51100000000E-03 0.  1.
    9900012    2    1    2    0    0 -0.21894704018E+02 -0.84944668596E+01 -0.38439295176E+02  0.46142318243E+02  0.10000004398E+02 0.  0.
         12    1    1    2    0    0  0.21894704018E+02  0.84944668596E+01  0.38439295176E+02  0.45045681757E+02  0.00000000000E+00 0. -1.
         11    1    3    3    0    0 -0.28334528135E+00 -0.97191018691E+00 -0.47483875944E+00  0.11181976876E+01  0.51100000000E-03 0. -1.
        -11    1    3    3    0    0 -0.17840037450E+02 -0.35138216319E+01 -0.32659043584E+02  0.37379499819E+02  0.51100000000E-03 0.  1.
        -12    1    3    3    0    0 -0.37713212875E+01 -0.40087350408E+01 -0.53054128329E+01  0.76446207367E+01  0.00000000000E+00 0.  1.
</event>
<event>
 7    1  0.1503436E-008  0.4614232E+02  0.7816164E-02  0.1320468E+00
        -11   -1    0    0    0    0  0.00000000000E+00  0.00000000000E+00  0.45593999997E+02  0.45594000000E+02  0.51100000000E-03 0. -1.
         11   -1    0    0    0    0 -0.00000000000E+00 -0.00000000000E+00 -0.45593999997E+02  0.45594000000E+02  0.51100000000E-03 0.  1.
    9900012    2    1    2    0    0 -0.39967365070E+02 -0.20104750334E+02 -0.52461839881E+01  0.46142315378E+02  0.99999782720E+01 0.  0.
         12    1    1    2    0    0  0.39967365070E+02  0.20104750334E+02  0.52461839881E+01  0.45045684622E+02  0.00000000000E+00 0. -1.
         11    1    3    3    0    0 -0.32674331213E+01  0.33216424983E-01  0.68760428141E+00  0.33391649319E+01  0.51100000000E-03 0. -1.
        -11    1    3    3    0    0 -0.29434298027E+02 -0.14145246890E+02 -0.67589098241E+01  0.33348894618E+02  0.51100000000E-03 0.  1.
         12    1    3    3    0    0 -0.72656339211E+01 -0.59927198686E+01  0.82512155460E+00  0.94542558289E+01  0.00000000000E+00 0. -1.
</event>
<event>
 7    1  0.1503436E-008  0.4614231E+02  0.7816164E-02  0.1320468E+00
        -11   -1    0    0    0    0  0.00000000000E+00  0.00000000000E+00  0.45593999997E+02  0.45594000000E+02  0.51100000000E-03 0.  1.
         11   -1    0    0    0    0 -0.00000000000E+00 -0.00000000000E+00 -0.45593999997E+02  0.45594000000E+02  0.51100000000E-03 0. -1.
    9900012    2    1    2    0    0  0.24779625706E+02 -0.13415914784E+02  0.35143953670E+02  0.46142310981E+02  0.99999381766E+01 0.  0.
         12    1    1    2    0    0 -0.24779625706E+02  0.13415914784E+02 -0.35143953670E+02  0.45045689019E+02  0.00000000000E+00 0. -1.
         11    1    3    3    0    0  0.11982377736E+02 -0.54538715771E+01  0.15173761090E+02  0.20088930217E+02  0.51100000000E-03 0. -1.
        -11    1    3    3    0    0  0.10177313949E+02 -0.26362535617E+01  0.10372845285E+02  0.14769003745E+02  0.51100000000E-03 0.  1.
         12    1    3    3    0    0  0.26199340217E+01 -0.53257896453E+01  0.95973472946E+01  0.11284377019E+02  0.00000000000E+00 0. -1.
</event>
<event>
 7    1  0.1503436E-008  0.4614232E+02  0.7816164E-02  0.1320468E+00
        -11   -1    0    0    0    0  0.00000000000E+00  0.00000000000E+00  0.45593999997E+02  0.45594000000E+02  0.51100000000E-03 0.  1.
         11   -1    0    0    0    0 -0.00000000000E+00 -0.00000000000E+00 -0.45593999997E+02  0.45594000000E+02  0.51100000000E-03 0. -1.
    9900012    2    1    2    0    0  0.23433652922E+02  0.34950471584E+02  0.16076129942E+02  0.46142317553E+02  0.99999981015E+01 0.  0.
         12    1    1    2    0    0 -0.23433652922E+02 -0.34950471584E+02 -0.16076129942E+02  0.45045682447E+02  0.00000000000E+00 0. -1.
         11    1    3    3    0    0  0.10032521443E+02  0.17177053106E+02  0.92647004256E+01  0.21943958489E+02  0.51100000000E-03 0.  1.
        -11    1    3    3    0    0  0.73617808184E+01  0.58554839142E+01  0.51795799529E+01  0.10738275347E+02  0.51100000000E-03 0. -1.
        -12    1    3    3    0    0  0.60393506599E+01  0.11917934564E+02  0.16318495638E+01  0.13460083717E+02  0.00000000000E+00 0.  1.
</event>
<event>
 7    1  0.1503436E-008  0.4614232E+02  0.7816164E-02  0.1320468E+00
        -11   -1    0    0    0    0  0.00000000000E+00  0.00000000000E+00  0.45593999997E+02  0.45594000000E+02  0.51100000000E-03 0.  1.
         11   -1    0    0    0    0 -0.00000000000E+00 -0.00000000000E+00 -0.45593999997E+02  0.45594000000E+02  0.51100000000E-03 0. -1.
    9900012    2    1    2    0    0  0.43192721210E+02  0.90781042913E+01  0.90050155792E+01  0.46142318202E+02  0.10000004018E+02 0.  0.
         12    1    1    2    0    0 -0.43192721210E+02 -0.90781042913E+01 -0.90050155792E+01  0.45045681798E+02  0.00000000000E+00 0. -1.
         11    1    3    3    0    0  0.57203948154E+01  0.22798539809E+01  0.32998598308E+01  0.69863957934E+01  0.51100000000E-03 0. -1.
        -11    1    3    3    0    0  0.56822585989E+01  0.29812199496E+01 -0.85150948364E+00  0.64730830239E+01  0.51100000000E-03 0.  1.
        -12    1    3    3    0    0  0.31790067796E+02  0.38170303608E+01  0.65566652320E+01  0.32682839384E+02  0.00000000000E+00 0.  1.
</event>
<event>
 7    1  0.1503436E-008  0.4614232E+02  0.7816164E-02  0.1320468E+00
        -11   -1    0    0    0    0  0.00000000000E+00  0.00000000000E+00  0.45593999997E+02  0.45594000000E+02  0.51100000000E-03 0.  1.
         11   -1    0    0    0    0 -0.00000000000E+00 -0.00000000000E+00 -0.45593999997E+02  0.45594000000E+02  0.51100000000E-03 0. -1.
    9900012    2    1    2    0    0  0.32389968254E+02 -0.97148261149E+01  0.29759455452E+02  0.46142322308E+02  0.10000041461E+02 0.  0.
         12    1    1    2    0    0 -0.32389968254E+02  0.97148261149E+01 -0.29759455452E+02  0.45045677692E+02  0.00000000000E+00 0. -1.
         11    1    3    3    0    0  0.25258016714E+01 -0.22463387954E+01  0.20563023474E+01  0.39565252017E+01  0.51100000000E-03 0. -1.
        -11    1    3    3    0    0  0.81336038606E+00  0.12264728559E+01  0.99046724121E+00  0.17739268307E+01  0.51100000000E-03 0.  1.
        -12    1    3    3    0    0  0.29050806197E+02 -0.86949601754E+01  0.26712685863E+02  0.40411870275E+02  0.00000000000E+00 0.  1.
</event>
<event>
 7    1  0.1503436E-008  0.4614232E+02  0.7816164E-02  0.1320468E+00
        -11   -1    0    0    0    0  0.00000000000E+00  0.00000000000E+00  0.45593999997E+02  0.45594000000E+02  0.51100000000E-03 0. -1.
         11   -1    0    0    0    0 -0.00000000000E+00 -0.00000000000E+00 -0.45593999997E+02  0.45594000000E+02  0.51100000000E-03 0.  1.
    9900012    2    1    2    0    0  0.11503529533E+02  0.91895850432E+01 -0.42571514080E+02  0.46142317897E+02  0.10000001243E+02 0.  0.
         12    1    1    2    0    0 -0.11503529533E+02 -0.91895850432E+01  0.42571514080E+02  0.45045682103E+02  0.00000000000E+00 0. -1.
         11    1    3    3    0    0  0.10310932534E+01  0.13487588761E+01 -0.96459645496E+01  0.97942297377E+01  0.51100000000E-03 0. -1.
        -11    1    3    3    0    0  0.28227952507E+01 -0.26553900073E+00 -0.14805109438E+02  0.15074148391E+02  0.51100000000E-03 0.  1.
        -12    1    3    3    0    0  0.76496410294E+01  0.81063651679E+01 -0.18120440093E+02  0.21273939768E+02  0.00000000000E+00 0.  1.
</event>
<event>
 7    1  0.1503436E-008  0.4614232E+02  0.7816164E-02  0.1320468E+00
        -11   -1    0    0    0    0  0.00000000000E+00  0.00000000000E+00  0.45593999997E+02  0.45594000000E+02  0.51100000000E-03 0.  1.
         11   -1    0    0    0    0 -0.00000000000E+00 -0.00000000000E+00 -0.45593999997E+02  0.45594000000E+02  0.51100000000E-03 0. -1.
    9900012    2    1    2    0    0 -0.30248381166E+02 -0.24177192734E+02  0.23013304010E+02  0.46142319040E+02  0.10000011663E+02 0.  0.
         12    1    1    2    0    0  0.30248381166E+02  0.24177192734E+02 -0.23013304010E+02  0.45045680960E+02  0.00000000000E+00 0. -1.
         11    1    3    3    0    0 -0.13612644243E+01  0.69441747321E+00  0.12467755656E+01  0.19722337671E+01  0.51100000000E-03 0. -1.
        -11    1    3    3    0    0 -0.90943680489E+01 -0.49804852069E+01  0.55613721949E+01  0.11766121878E+02  0.51100000000E-03 0.  1.
        -12    1    3    3    0    0 -0.19792748693E+02 -0.19891125000E+02  0.16205156250E+02  0.32403963395E+02  0.00000000000E+00 0.  1.
</event>
<event>
 7    1  0.1503436E-008  0.4614232E+02  0.7816164E-02  0.1320468E+00
        -11   -1    0    0    0    0  0.00000000000E+00  0.00000000000E+00  0.45593999997E+02  0.45594000000E+02  0.51100000000E-03 0.  1.
         11   -1    0    0    0    0 -0.00000000000E+00 -0.00000000000E+00 -0.45593999997E+02  0.45594000000E+02  0.51100000000E-03 0. -1.
    9900012    2    1    2    0    0  0.20772055239E+02  0.39620741659E+02  0.52756098453E+01  0.46142317547E+02  0.99999980435E+01 0.  0.
         12    1    1    2    0    0 -0.20772055239E+02 -0.39620741659E+02 -0.52756098453E+01  0.45045682453E+02  0.00000000000E+00 0. -1.
         11    1    3    3    0    0  0.80437525882E+01  0.72693288788E+01 -0.16592154444E+00  0.10843091269E+02  0.51100000000E-03 0. -1.
        -11    1    3    3    0    0  0.60314655339E+01  0.12038442103E+02  0.27406254738E+01  0.13740949495E+02  0.51100000000E-03 0.  1.
         12    1    3    3    0    0  0.66968371170E+01  0.20312970677E+02  0.27009059159E+01  0.21558276783E+02  0.00000000000E+00 0. -1.
</event>
<event>
 7    1  0.1503436E-008  0.4614232E+02  0.7816164E-02  0.1320468E+00
        -11   -1    0    0    0    0  0.00000000000E+00  0.00000000000E+00  0.45593999997E+02  0.45594000000E+02  0.51100000000E-03 0.  1.
         11   -1    0    0    0    0 -0.00000000000E+00 -0.00000000000E+00 -0.45593999997E+02  0.45594000000E+02  0.51100000000E-03 0. -1.
    9900012    2    1    2    0    0  0.38156416428E+02  0.19872907851E+02 -0.13351737143E+02  0.46142318011E+02  0.10000002283E+02 0.  0.
         12    1    1    2    0    0 -0.38156416428E+02 -0.19872907851E+02  0.13351737143E+02  0.45045681989E+02  0.00000000000E+00 0. -1.
         11    1    3    3    0    0  0.30454362662E+02  0.11487519357E+02 -0.10726443520E+02  0.34270802398E+02  0.51100000000E-03 0. -1.
        -11    1    3    3    0    0  0.52191356829E+01  0.56624328899E+01 -0.27694822335E+01  0.81836761673E+01  0.51100000000E-03 0.  1.
         12    1    3    3    0    0  0.24829180829E+01  0.27229556039E+01  0.14418861033E+00  0.36878394464E+01  0.00000000000E+00 0. -1.
</event>
<event>
 7    1  0.1503436E-008  0.4614232E+02  0.7816164E-02  0.1320468E+00
        -11   -1    0    0    0    0  0.00000000000E+00  0.00000000000E+00  0.45593999997E+02  0.45594000000E+02  0.51100000000E-03 0.  1.
         11   -1    0    0    0    0 -0.00000000000E+00 -0.00000000000E+00 -0.45593999997E+02  0.45594000000E+02  0.51100000000E-03 0. -1.
    9900012    2    1    2    0    0  0.39454240456E+02  0.14517487056E+02  0.16177730245E+02  0.46142317896E+02  0.10000001227E+02 0.  0.
         12    1    1    2    0    0 -0.39454240456E+02 -0.14517487056E+02 -0.16177730245E+02  0.45045682104E+02  0.00000000000E+00 0. -1.
         11    1    3    3    0    0  0.33738347541E+02  0.12380286584E+02  0.13023541873E+02  0.38225125688E+02  0.51100000000E-03 0.  1.
        -11    1    3    3    0    0 -0.49894433787E+00 -0.88612661485E-01 -0.15886710487E+00  0.53107125153E+00  0.51100000000E-03 0. -1.
         12    1    3    3    0    0  0.62148372530E+01  0.22258131336E+01  0.33130554769E+01  0.73861209562E+01  0.00000000000E+00 0. -1.
</event>
<event>
 7    1  0.1503436E-008  0.4614232E+02  0.7816164E-02  0.1320468E+00
        -11   -1    0    0    0    0  0.00000000000E+00  0.00000000000E+00  0.45593999997E+02  0.45594000000E+02  0.51100000000E-03 0. -1.
         11   -1    0    0    0    0 -0.00000000000E+00 -0.00000000000E+00 -0.45593999997E+02  0.45594000000E+02  0.51100000000E-03 0.  1.
    9900012    2    1    2    0    0  0.95273674742E+01  0.28525858968E+02 -0.33535326550E+02  0.46142317769E+02  0.10000000070E+02 0.  0.
         12    1    1    2    0    0 -0.95273674742E+01 -0.28525858968E+02  0.33535326550E+02  0.45045682231E+02  0.00000000000E+00 0. -1.
         11    1    3    3    0    0  0.30693420996E+01  0.18820576010E+02 -0.21004138098E+02  0.28369151552E+02  0.51100000000E-03 0. -1.
        -11    1    3    3    0    0  0.50415269845E+01  0.46351543940E+01 -0.45857033964E+01  0.82419855916E+01  0.51100000000E-03 0.  1.
        -12    1    3    3    0    0  0.14164983902E+01  0.50701285648E+01 -0.79454850552E+01  0.95311806255E+01  0.00000000000E+00 0.  1.
</event>
<event>
 7    1  0.1592017E-008  0.4614232E+02  0.7816164E-02  0.1320468E+00
        -11   -1    0    0    0    0  0.00000000000E+00  0.00000000000E+00  0.45593999997E+02  0.45594000000E+02  0.51100000000E-03 0. -1.
         11   -1    0    0    0    0 -0.00000000000E+00 -0.00000000000E+00 -0.45593999997E+02  0.45594000000E+02  0.51100000000E-03 0.  1.
    9900012    2    1    2    0    0 -0.42272971686E+02 -0.20851304428E+01 -0.15419519503E+02  0.46142317789E+02  0.10000000259E+02 0.  0.
         12    1    1    2    0    0  0.42272971686E+02  0.20851304428E+01  0.15419519503E+02  0.45045682211E+02  0.00000000000E+00 0. -1.
         11    1    3    3    0    0 -0.71692279801E+01 -0.33018887407E+01 -0.15191591133E+01  0.80379191188E+01  0.51100000000E-03 0. -1.
        -11    1    3    3    0    0 -0.18548872167E+02  0.30779813436E+01 -0.79555795768E+01  0.20416313930E+02  0.51100000000E-03 0.  1.
        -12    1    3    3    0    0 -0.16554871538E+02 -0.18612230457E+01 -0.59447808127E+01  0.17688084740E+02  0.00000000000E+00 0.  1.
</event>
<event>
 7    1  0.1503436E-008  0.4614232E+02  0.7816164E-02  0.1320468E+00
        -11   -1    0    0    0    0  0.00000000000E+00  0.00000000000E+00  0.45593999997E+02  0.45594000000E+02  0.51100000000E-03 0.  1.
         11   -1    0    0    0    0 -0.00000000000E+00 -0.00000000000E+00 -0.45593999997E+02  0.45594000000E+02  0.51100000000E-03 0. -1.
    9900012    2    1    2    0    0 -0.23509868281E+02  0.37845476014E+02  0.66422555062E+01  0.46142317415E+02  0.99999968452E+01 0.  0.
         12    1    1    2    0    0  0.23509868281E+02 -0.37845476014E+02 -0.66422555062E+01  0.45045682585E+02  0.00000000000E+00 0. -1.
         11    1    3    3    0    0 -0.15704624637E+01  0.29986407587E+00  0.72338067269E+00  0.17548648588E+01  0.51100000000E-03 0. -1.
        -11    1    3    3    0    0 -0.20384175185E+02  0.36892326656E+02  0.49415640210E+01  0.42437924305E+02  0.51100000000E-03 0.  1.
        -12    1    3    3    0    0 -0.15552306323E+01  0.65328528234E+00  0.97731081247E+00  0.19495282517E+01  0.00000000000E+00 0.  1.
</event>
<event>
 7    1  0.1503436E-008  0.4614232E+02  0.7816164E-02  0.1320468E+00
        -11   -1    0    0    0    0  0.00000000000E+00  0.00000000000E+00  0.45593999997E+02  0.45594000000E+02  0.51100000000E-03 0.  1.
         11   -1    0    0    0    0 -0.00000000000E+00 -0.00000000000E+00 -0.45593999997E+02  0.45594000000E+02  0.51100000000E-03 0. -1.
    9900012    2    1    2    0    0 -0.21196636587E+02 -0.20805612688E+02  0.33866539900E+02  0.46142318223E+02  0.10000004216E+02 0.  0.
         12    1    1    2    0    0  0.21196636587E+02  0.20805612688E+02 -0.33866539900E+02  0.45045681777E+02  0.00000000000E+00 0. -1.
         11    1    3    3    0    0 -0.75810955492E+01 -0.32103901084E+01  0.97249520373E+01  0.12741832944E+02  0.51100000000E-03 0. -1.
        -11    1    3    3    0    0 -0.89206529425E+01 -0.14241325875E+02  0.14655379818E+02  0.22297389297E+02  0.51100000000E-03 0.  1.
        -12    1    3    3    0    0 -0.46948880952E+01 -0.33538967046E+01  0.94862080446E+01  0.11103095982E+02  0.00000000000E+00 0.  1.
</event>
<event>
 7    1  0.1503436E-008  0.4614232E+02  0.7816164E-02  0.1320468E+00
        -11   -1    0    0    0    0  0.00000000000E+00  0.00000000000E+00  0.45593999997E+02  0.45594000000E+02  0.51100000000E-03 0.  1.
         11   -1    0    0    0    0 -0.00000000000E+00 -0.00000000000E+00 -0.45593999997E+02  0.45594000000E+02  0.51100000000E-03 0. -1.
    9900012    2    1    2    0    0  0.41770526675E+02  0.12872905584E+02 -0.10891506612E+02  0.46142317486E+02  0.99999974893E+01 0.  0.
         12    1    1    2    0    0 -0.41770526675E+02 -0.12872905584E+02  0.10891506612E+02  0.45045682514E+02  0.00000000000E+00 0. -1.
         11    1    3    3    0    0  0.52267765920E+01  0.24397556447E+00  0.53866966127E+00  0.52601219457E+01  0.51100000000E-03 0. -1.
        -11    1    3    3    0    0  0.35886712951E+02  0.13113835586E+02 -0.10459086991E+02  0.39613398632E+02  0.51100000000E-03 0.  1.
         12    1    3    3    0    0  0.65703713179E+00 -0.48490556641E+00 -0.97108928151E+00  0.12687969079E+01  0.00000000000E+00 0. -1.
</event>
<event>
 7    1  0.1503436E-008  0.4614232E+02  0.7816164E-02  0.1320468E+00
        -11   -1    0    0    0    0  0.00000000000E+00  0.00000000000E+00  0.45593999997E+02  0.45594000000E+02  0.51100000000E-03 0.  1.
         11   -1    0    0    0    0 -0.00000000000E+00 -0.00000000000E+00 -0.45593999997E+02  0.45594000000E+02  0.51100000000E-03 0. -1.
    9900012    2    1    2    0    0  0.22155913317E+02 -0.18566676761E+02  0.34547177035E+02  0.46142318498E+02  0.10000006724E+02 0.  0.
         12    1    1    2    0    0 -0.22155913317E+02  0.18566676761E+02 -0.34547177035E+02  0.45045681502E+02  0.00000000000E+00 0. -1.
         11    1    3    3    0    0  0.36383118272E+01 -0.39128519421E+01  0.23285181819E+01  0.58283548671E+01  0.51100000000E-03 0. -1.
        -11    1    3    3    0    0  0.79927529815E+01 -0.76693657293E+01  0.19254996215E+02  0.22213917944E+02  0.51100000000E-03 0.  1.
        -12    1    3    3    0    0  0.10524848509E+02 -0.69844590892E+01  0.12963662638E+02  0.18100045687E+02  0.00000000000E+00 0.  1.
</event>
<event>
 7    1  0.1503436E-008  0.4614231E+02  0.7816164E-02  0.1320468E+00
        -11   -1    0    0    0    0  0.00000000000E+00  0.00000000000E+00  0.45593999997E+02  0.45594000000E+02  0.51100000000E-03 0.  1.
         11   -1    0    0    0    0 -0.00000000000E+00 -0.00000000000E+00 -0.45593999997E+02  0.45594000000E+02  0.51100000000E-03 0. -1.
    9900012    2    1    2    0    0  0.42314225054E+02 -0.10439590644E+02  0.11385762116E+02  0.46142309044E+02  0.99999205146E+01 0.  0.
         12    1    1    2    0    0 -0.42314225054E+02  0.10439590644E+02 -0.11385762116E+02  0.45045690956E+02  0.00000000000E+00 0. -1.
         11    1    3    3    0    0  0.23950585925E+02 -0.28725352301E+01  0.85249962370E+01  0.25584323049E+02  0.51100000000E-03 0. -1.
        -11    1    3    3    0    0  0.83629444178E+01 -0.35091916018E+01 -0.93483688581E+00  0.91174111072E+01  0.51100000000E-03 0.  1.
        -12    1    3    3    0    0  0.10000694711E+02 -0.40578638121E+01  0.37956027649E+01  0.11440574888E+02  0.00000000000E+00 0.  1.
</event>
<event>
 7    1  0.1503436E-008  0.4614232E+02  0.7816164E-02  0.1320468E+00
        -11   -1    0    0    0    0  0.00000000000E+00  0.00000000000E+00  0.45593999997E+02  0.45594000000E+02  0.51100000000E-03 0.  1.
         11   -1    0    0    0    0 -0.00000000000E+00 -0.00000000000E+00 -0.45593999997E+02  0.45594000000E+02  0.51100000000E-03 0. -1.
    9900012    2    1    2    0    0  0.17373711162E+02 -0.45060706122E+01  0.41315408025E+02  0.46142318162E+02  0.10000003659E+02 0.  0.
         12    1    1    2    0    0 -0.17373711162E+02  0.45060706122E+01 -0.41315408025E+02  0.45045681838E+02  0.00000000000E+00 0. -1.
         11    1    3    3    0    0  0.15102854668E+02 -0.35084299800E+01  0.28006594870E+02  0.32012101720E+02  0.51100000000E-03 0. -1.
        -11    1    3    3    0    0  0.33999313595E+01 -0.40817180155E+00  0.10544165311E+02  0.11086277997E+02  0.51100000000E-03 0.  1.
         12    1    3    3    0    0 -0.11290748655E+01 -0.58946883063E+00  0.27646478444E+01  0.30439384452E+01  0.00000000000E+00 0. -1.
</event>
<event>
 7    1  0.1503436E-008  0.4614232E+02  0.7816164E-02  0.1320468E+00
        -11   -1    0    0    0    0  0.00000000000E+00  0.00000000000E+00  0.45593999997E+02  0.45594000000E+02  0.51100000000E-03 0. -1.
         11   -1    0    0    0    0 -0.00000000000E+00 -0.00000000000E+00 -0.45593999997E+02  0.45594000000E+02  0.51100000000E-03 0.  1.
    9900012    2    1    2    0    0 -0.12286229902E+02 -0.25872909530E+02 -0.34767145772E+02  0.46142319653E+02  0.10000017254E+02 0.  0.
         12    1    1    2    0    0  0.12286229902E+02  0.25872909530E+02  0.34767145772E+02  0.45045680347E+02  0.00000000000E+00 0. -1.
         11    1    3    3    0    0 -0.14414831631E+01 -0.21796664240E+00 -0.39454806865E+00  0.15103150685E+01  0.51100000000E-03 0. -1.
        -11    1    3    3    0    0 -0.10879136070E+02 -0.24112736472E+02 -0.33937070378E+02  0.43029111167E+02  0.51100000000E-03 0.  1.
        -12    1    3    3    0    0  0.34389330249E-01 -0.15422064164E+01 -0.43552732566E+00  0.16028934176E+01  0.00000000000E+00 0.  1.
</event>
<event>
 7    1  0.1503436E-008  0.4614232E+02  0.7816164E-02  0.1320468E+00
        -11   -1    0    0    0    0  0.00000000000E+00  0.00000000000E+00  0.45593999997E+02  0.45594000000E+02  0.51100000000E-03 0.  1.
         11   -1    0    0    0    0 -0.00000000000E+00 -0.00000000000E+00 -0.45593999997E+02  0.45594000000E+02  0.51100000000E-03 0. -1.
    9900012    2    1    2    0    0 -0.96581505773E+01 -0.26224197514E+02  0.35328813840E+02  0.46142317686E+02  0.99999993120E+01 0.  0.
         12    1    1    2    0    0  0.96581505773E+01  0.26224197514E+02 -0.35328813840E+02  0.45045682314E+02  0.00000000000E+00 0. -1.
         11    1    3    3    0    0 -0.94842261569E+01 -0.12654494776E+02  0.22010105799E+02  0.27102242368E+02  0.51100000000E-03 0.  1.
        -11    1    3    3    0    0 -0.36886306867E+00 -0.71852425077E+01  0.64854901784E+01  0.96863487947E+01  0.51100000000E-03 0. -1.
        -12    1    3    3    0    0  0.19493864836E+00 -0.63844602302E+01  0.68332178625E+01  0.93537265228E+01  0.00000000000E+00 0.  1.
</event>
<event>
 7    1  0.1503436E-008  0.4614232E+02  0.7816164E-02  0.1320468E+00
        -11   -1    0    0    0    0  0.00000000000E+00  0.00000000000E+00  0.45593999997E+02  0.45594000000E+02  0.51100000000E-03 0.  1.
         11   -1    0    0    0    0 -0.00000000000E+00 -0.00000000000E+00 -0.45593999997E+02  0.45594000000E+02  0.51100000000E-03 0. -1.
    9900012    2    1    2    0    0  0.38398237696E+02 -0.15180215569E+02  0.18006941002E+02  0.46142317331E+02  0.99999960791E+01 0.  0.
         12    1    1    2    0    0 -0.38398237696E+02  0.15180215569E+02 -0.18006941002E+02  0.45045682669E+02  0.00000000000E+00 0. -1.
         11    1    3    3    0    0  0.83684313186E+01 -0.38848411645E+01  0.36234759676E+00  0.92333054563E+01  0.51100000000E-03 0. -1.
        -11    1    3    3    0    0  0.12812984336E+02 -0.27259636294E+01  0.84842142686E+01  0.15607220679E+02  0.51100000000E-03 0.  1.
        -12    1    3    3    0    0  0.17216822041E+02 -0.85694107752E+01  0.91603791366E+01  0.21301791196E+02  0.00000000000E+00 0.  1.
</event>
<event>
 7    1  0.1503436E-008  0.4614232E+02  0.7816164E-02  0.1320468E+00
        -11   -1    0    0    0    0  0.00000000000E+00  0.00000000000E+00  0.45593999997E+02  0.45594000000E+02  0.51100000000E-03 0.  1.
         11   -1    0    0    0    0 -0.00000000000E+00 -0.00000000000E+00 -0.45593999997E+02  0.45594000000E+02  0.51100000000E-03 0. -1.
    9900012    2    1    2    0    0 -0.22065414560E+02 -0.37161569840E+02  0.12698374718E+02  0.46142317486E+02  0.99999974934E+01 0.  0.
         12    1    1    2    0    0  0.22065414560E+02  0.37161569840E+02 -0.12698374718E+02  0.45045682514E+02  0.00000000000E+00 0. -1.
         11    1    3    3    0    0 -0.12815353474E+01 -0.62868767240E+01  0.43391699031E+01  0.77456792793E+01  0.51100000000E-03 0. -1.
        -11    1    3    3    0    0 -0.67521770643E+01 -0.13563504168E+02  0.42626146015E+01  0.15739454372E+02  0.51100000000E-03 0.  1.
         12    1    3    3    0    0 -0.14031702148E+02 -0.17311188948E+02  0.40965902136E+01  0.22657183835E+02  0.00000000000E+00 0. -1.
</event>
<event>
 7    1  0.1503436E-008  0.4614232E+02  0.7816164E-02  0.1320468E+00
        -11   -1    0    0    0    0  0.00000000000E+00  0.00000000000E+00  0.45593999997E+02  0.45594000000E+02  0.51100000000E-03 0. -1.
         11   -1    0    0    0    0 -0.00000000000E+00 -0.00000000000E+00 -0.45593999997E+02  0.45594000000E+02  0.51100000000E-03 0.  1.
    9900012    2    1    2    0    0  0.58072119449E+01  0.34437233050E+02  0.28451131059E+02  0.46142316642E+02  0.99999897918E+01 0.  0.
         12    1    1    2    0    0 -0.58072119449E+01 -0.34437233050E+02 -0.28451131059E+02  0.45045683358E+02  0.00000000000E+00 0. -1.
         11    1    3    3    0    0  0.36597116519E+01  0.14030324224E+02  0.17306786221E+02  0.22578049888E+02  0.51100000000E-03 0. -1.
        -11    1    3    3    0    0  0.27877400953E+01  0.12770857959E+02  0.64312737919E+01  0.14568033179E+02  0.51100000000E-03 0.  1.
         12    1    3    3    0    0 -0.64023980227E+00  0.76360508664E+01  0.47130710460E+01  0.89962335742E+01  0.00000000000E+00 0. -1.
</event>
<event>
 7    1  0.1503436E-008  0.4614232E+02  0.7816164E-02  0.1320468E+00
        -11   -1    0    0    0    0  0.00000000000E+00  0.00000000000E+00  0.45593999997E+02  0.45594000000E+02  0.51100000000E-03 0.  1.
         11   -1    0    0    0    0 -0.00000000000E+00 -0.00000000000E+00 -0.45593999997E+02  0.45594000000E+02  0.51100000000E-03 0. -1.
    9900012    2    1    2    0    0  0.29782658298E+02 -0.29827748403E+02  0.15887484563E+02  0.46142317900E+02  0.10000001268E+02 0.  0.
         12    1    1    2    0    0 -0.29782658298E+02  0.29827748403E+02 -0.15887484563E+02  0.45045682100E+02  0.00000000000E+00 0. -1.
         11    1    3    3    0    0  0.50075244416E+01 -0.82378605829E+01  0.69694455960E+01  0.11895832051E+02  0.51100000000E-03 0. -1.
        -11    1    3    3    0    0  0.12450230023E+02 -0.12488986275E+02  0.61580062517E+01  0.18678973395E+02  0.51100000000E-03 0.  1.
         12    1    3    3    0    0  0.12324903833E+02 -0.91009015448E+01  0.27600327156E+01  0.15567512454E+02  0.00000000000E+00 0. -1.
</event>
<event>
 7    1  0.1503436E-008  0.4614232E+02  0.7816164E-02  0.1320468E+00
        -11   -1    0    0    0    0  0.00000000000E+00  0.00000000000E+00  0.45593999997E+02  0.45594000000E+02  0.51100000000E-03 0.  1.
         11   -1    0    0    0    0 -0.00000000000E+00 -0.00000000000E+00 -0.45593999997E+02  0.45594000000E+02  0.51100000000E-03 0. -1.
    9900012    2    1    2    0    0 -0.15825201028E+02 -0.19278502760E+02  0.37510209011E+02  0.46142318339E+02  0.10000005270E+02 0.  0.
         12    1    1    2    0    0  0.15825201028E+02  0.19278502760E+02 -0.37510209011E+02  0.45045681661E+02  0.00000000000E+00 0. -1.
         11    1    3    3    0    0 -0.40784309536E+01 -0.11728388931E+02  0.14631763786E+02  0.19190550219E+02  0.51100000000E-03 0. -1.
        -11    1    3    3    0    0 -0.66986506456E+01 -0.30807080143E+01  0.10116281490E+02  0.12518060304E+02  0.51100000000E-03 0.  1.
        -12    1    3    3    0    0 -0.50481194290E+01 -0.44694058154E+01  0.12762163735E+02  0.14433707816E+02  0.00000000000E+00 0.  1.
</event>
<event>
 7    1  0.1503436E-008  0.4614232E+02  0.7816164E-02  0.1320468E+00
        -11   -1    0    0    0    0  0.00000000000E+00  0.00000000000E+00  0.45593999997E+02  0.45594000000E+02  0.51100000000E-03 0. -1.
         11   -1    0    0    0    0 -0.00000000000E+00 -0.00000000000E+00 -0.45593999997E+02  0.45594000000E+02  0.51100000000E-03 0.  1.
    9900012    2    1    2    0    0 -0.14018862092E+02  0.36658503728E+02 -0.22107444636E+02  0.46142317651E+02  0.99999989990E+01 0.  0.
         12    1    1    2    0    0  0.14018862092E+02 -0.36658503728E+02  0.22107444636E+02  0.45045682349E+02  0.00000000000E+00 0. -1.
         11    1    3    3    0    0 -0.11615993236E+01  0.47917282170E+01 -0.59988320508E+01  0.77650472329E+01  0.51100000000E-03 0. -1.
        -11    1    3    3    0    0 -0.71533951356E+01  0.22827368390E+02 -0.13097070974E+02  0.27272570064E+02  0.51100000000E-03 0.  1.
        -12    1    3    3    0    0 -0.57038676326E+01  0.90394071214E+01 -0.30115416112E+01  0.11104700354E+02  0.00000000000E+00 0.  1.
</event>
<event>
 7    1  0.1503436E-008  0.4614232E+02  0.7816164E-02  0.1320468E+00
        -11   -1    0    0    0    0  0.00000000000E+00  0.00000000000E+00  0.45593999997E+02  0.45594000000E+02  0.51100000000E-03 0.  1.
         11   -1    0    0    0    0 -0.00000000000E+00 -0.00000000000E+00 -0.45593999997E+02  0.45594000000E+02  0.51100000000E-03 0. -1.
    9900012    2    1    2    0    0  0.33618598671E+02 -0.10100539924E+02  0.28229105602E+02  0.46142317782E+02  0.10000000195E+02 0.  0.
         12    1    1    2    0    0 -0.33618598671E+02  0.10100539924E+02 -0.28229105602E+02  0.45045682218E+02  0.00000000000E+00 0. -1.
         11    1    3    3    0    0  0.20914962480E+02 -0.23821319105E+01  0.15228793944E+02  0.25981269662E+02  0.51100000000E-03 0. -1.
        -11    1    3    3    0    0  0.45286974427E+01 -0.43055719683E+01  0.73788151343E+01  0.96692276604E+01  0.51100000000E-03 0.  1.
         12    1    3    3    0    0  0.81749387483E+01 -0.34128360453E+01  0.56214965233E+01  0.10491820460E+02  0.00000000000E+00 0. -1.
</event>
<event>
 7    1  0.1503436E-008  0.4614231E+02  0.7816164E-02  0.1320468E+00
        -11   -1    0    0    0    0  0.00000000000E+00  0.00000000000E+00  0.45593999997E+02  0.45594000000E+02  0.51100000000E-03 0.  1.
         11   -1    0    0    0    0 -0.00000000000E+00 -0.00000000000E+00 -0.45593999997E+02  0.45594000000E+02  0.51100000000E-03 0. -1.
    9900012    2    1    2    0    0 -0.17996795542E+02 -0.22593516507E+02  0.34565332090E+02  0.46142314076E+02  0.99999663926E+01 0.  0.
         12    1    1    2    0    0  0.17996795542E+02  0.22593516507E+02 -0.34565332090E+02  0.45045685924E+02  0.00000000000E+00 0. -1.
         11    1    3    3    0    0 -0.16107535496E+01 -0.28637723597E+01  0.65550812930E+00  0.33504343441E+01  0.51100000000E-03 0. -1.
        -11    1    3    3    0    0 -0.43229411329E+01 -0.86354301498E+01  0.13932321640E+02  0.16951933826E+02  0.51100000000E-03 0.  1.
         12    1    3    3    0    0 -0.12063100859E+02 -0.11094313997E+02  0.19977502321E+02  0.25839945905E+02  0.00000000000E+00 0. -1.
</event>
<event>
 7    1  0.1503436E-008  0.4614232E+02  0.7816164E-02  0.1320468E+00
        -11   -1    0    0    0    0  0.00000000000E+00  0.00000000000E+00  0.45593999997E+02  0.45594000000E+02  0.51100000000E-03 0.  1.
         11   -1    0    0    0    0 -0.00000000000E+00 -0.00000000000E+00 -0.45593999997E+02  0.45594000000E+02  0.51100000000E-03 0. -1.
    9900012    2    1    2    0    0 -0.20402524203E+02 -0.23123063487E+02  0.32835567209E+02  0.46142317267E+02  0.99999954978E+01 0.  0.
         12    1    1    2    0    0  0.20402524203E+02  0.23123063487E+02 -0.32835567209E+02  0.45045682733E+02  0.00000000000E+00 0. -1.
         11    1    3    3    0    0 -0.15306173167E+00 -0.83861758779E+00 -0.12705418897E+00  0.86188768427E+00  0.51100000000E-03 0. -1.
        -11    1    3    3    0    0 -0.18455258037E+02 -0.19597245938E+02  0.25207368804E+02  0.36878991850E+02  0.51100000000E-03 0.  1.
        -12    1    3    3    0    0 -0.17942044342E+01 -0.26871999611E+01  0.77552525945E+01  0.84014377334E+01  0.00000000000E+00 0.  1.
</event>
<event>
 7    1  0.1503436E-008  0.4614232E+02  0.7816164E-02  0.1320468E+00
        -11   -1    0    0    0    0  0.00000000000E+00  0.00000000000E+00  0.45593999997E+02  0.45594000000E+02  0.51100000000E-03 0.  1.
         11   -1    0    0    0    0 -0.00000000000E+00 -0.00000000000E+00 -0.45593999997E+02  0.45594000000E+02  0.51100000000E-03 0. -1.
    9900012    2    1    2    0    0  0.35869228663E+02 -0.11910678334E+02  0.24508115930E+02  0.46142316858E+02  0.99999917671E+01 0.  0.
         12    1    1    2    0    0 -0.35869228663E+02  0.11910678334E+02 -0.24508115930E+02  0.45045683142E+02  0.00000000000E+00 0. -1.
         11    1    3    3    0    0  0.29057679661E+02 -0.95007791863E+01  0.18063105934E+02  0.35509003769E+02  0.51100000000E-03 0. -1.
        -11    1    3    3    0    0  0.54883476600E+01 -0.34627501101E+01  0.61024470410E+01  0.89079996919E+01  0.51100000000E-03 0.  1.
         12    1    3    3    0    0  0.13232013422E+01  0.10528509623E+01  0.34256295504E+00  0.17253133973E+01  0.00000000000E+00 0. -1.
</event>
<event>
 7    1  0.1503436E-008  0.4614232E+02  0.7816164E-02  0.1320468E+00
        -11   -1    0    0    0    0  0.00000000000E+00  0.00000000000E+00  0.45593999997E+02  0.45594000000E+02  0.51100000000E-03 0.  1.
         11   -1    0    0    0    0 -0.00000000000E+00 -0.00000000000E+00 -0.45593999997E+02  0.45594000000E+02  0.51100000000E-03 0. -1.
    9900012    2    1    2    0    0  0.12588231552E+02 -0.17026653584E+02  0.39758559063E+02  0.46142317359E+02  0.99999963303E+01 0.  0.
         12    1    1    2    0    0 -0.12588231552E+02  0.17026653584E+02 -0.39758559063E+02  0.45045682641E+02  0.00000000000E+00 0. -1.
         11    1    3    3    0    0  0.27927953652E+01 -0.65416527134E+00  0.66886576176E+01  0.72777592115E+01  0.51100000000E-03 0. -1.
        -11    1    3    3    0    0  0.10062386819E+02 -0.14768622262E+02  0.25605196942E+02  0.31224828946E+02  0.51100000000E-03 0.  1.
        -12    1    3    3    0    0 -0.26695063196E+00 -0.16038660510E+01  0.74647045033E+01  0.76397292014E+01  0.00000000000E+00 0.  1.
</event>
<event>
 7    1  0.1503436E-008  0.4614232E+02  0.7816164E-02  0.1320468E+00
        -11   -1    0    0    0    0  0.00000000000E+00  0.00000000000E+00  0.45593999997E+02  0.45594000000E+02  0.51100000000E-03 0. -1.
         11   -1    0    0    0    0 -0.00000000000E+00 -0.00000000000E+00 -0.45593999997E+02  0.45594000000E+02  0.51100000000E-03 0.  1.
    9900012    2    1    2    0    0 -0.41426188755E+02 -0.17438782584E+02 -0.29788005907E+01  0.46142317568E+02  0.99999982400E+01 0.  0.
         12    1    1    2    0    0  0.41426188755E+02  0.17438782584E+02  0.29788005907E+01  0.45045682432E+02  0.00000000000E+00 0. -1.
         11    1    3    3    0    0 -0.10888637825E+02 -0.19398934702E+01  0.19389310282E+01  0.11228761024E+02  0.51100000000E-03 0. -1.
        -11    1    3    3    0    0 -0.27310730785E+02 -0.12401692298E+02 -0.51558291096E+01  0.30434529106E+02  0.51100000000E-03 0.  1.
         12    1    3    3    0    0 -0.32268201460E+01 -0.30971968159E+01  0.23809749072E+00  0.44790274376E+01  0.00000000000E+00 0. -1.
</event>
<event>
 7    1  0.1503436E-008  0.4614232E+02  0.7816164E-02  0.1320468E+00
        -11   -1    0    0    0    0  0.00000000000E+00  0.00000000000E+00  0.45593999997E+02  0.45594000000E+02  0.51100000000E-03 0.  1.
         11   -1    0    0    0    0 -0.00000000000E+00 -0.00000000000E+00 -0.45593999997E+02  0.45594000000E+02  0.51100000000E-03 0. -1.
    9900012    2    1    2    0    0 -0.87932414145E+01  0.43896484321E+02 -0.49890960984E+01  0.46142317518E+02  0.99999977869E+01 0.  0.
         12    1    1    2    0    0  0.87932414145E+01 -0.43896484321E+02  0.49890960984E+01  0.45045682482E+02  0.00000000000E+00 0. -1.
         11    1    3    3    0    0 -0.13613589784E+01  0.20268570156E+01 -0.11381513754E+01  0.26938516002E+01  0.51100000000E-03 0. -1.
        -11    1    3    3    0    0  0.38011025841E+00  0.20362775678E+02 -0.10136400318E+01  0.20391532151E+02  0.51100000000E-03 0.  1.
        -12    1    3    3    0    0 -0.78119926945E+01  0.21506851628E+02 -0.28373046913E+01  0.23056933767E+02  0.00000000000E+00 0.  1.
</event>
<event>
 7    1  0.1503436E-008  0.4614232E+02  0.7816164E-02  0.1320468E+00
        -11   -1    0    0    0    0  0.00000000000E+00  0.00000000000E+00  0.45593999997E+02  0.45594000000E+02  0.51100000000E-03 0.  1.
         11   -1    0    0    0    0 -0.00000000000E+00 -0.00000000000E+00 -0.45593999997E+02  0.45594000000E+02  0.51100000000E-03 0. -1.
    9900012    2    1    2    0    0  0.10046137517E+02 -0.40635219962E+02  0.16642346131E+02  0.46142315799E+02  0.99999821093E+01 0.  0.
         12    1    1    2    0    0 -0.10046137517E+02  0.40635219962E+02 -0.16642346131E+02  0.45045684201E+02  0.00000000000E+00 0. -1.
         11    1    3    3    0    0  0.16037022518E+01 -0.18632531376E+02  0.11077761440E+02  0.21736142371E+02  0.51100000000E-03 0. -1.
        -11    1    3    3    0    0  0.56556228719E+01 -0.14821361577E+02  0.52006548415E+01  0.16694479330E+02  0.51100000000E-03 0.  1.
         12    1    3    3    0    0  0.27868123930E+01 -0.71813270088E+01  0.36392984983E+00  0.77116940977E+01  0.00000000000E+00 0. -1.
</event>
<event>
 7    1  0.1503436E-008  0.4614232E+02  0.7816164E-02  0.1320468E+00
        -11   -1    0    0    0    0  0.00000000000E+00  0.00000000000E+00  0.45593999997E+02  0.45594000000E+02  0.51100000000E-03 0. -1.
         11   -1    0    0    0    0 -0.00000000000E+00 -0.00000000000E+00 -0.45593999997E+02  0.45594000000E+02  0.51100000000E-03 0.  1.
    9900012    2    1    2    0    0  0.90472680345E+00  0.44076562993E+02  0.92493978129E+01  0.46142319899E+02  0.10000019494E+02 0.  0.
         12    1    1    2    0    0 -0.90472680345E+00 -0.44076562993E+02 -0.92493978129E+01  0.45045680101E+02  0.00000000000E+00 0. -1.
         11    1    3    3    0    0 -0.57291445691E+00  0.18698973236E+02  0.67039031519E+01  0.19872648258E+02  0.51100000000E-03 0. -1.
        -11    1    3    3    0    0  0.21644131121E+01  0.24489946637E+02  0.13389337176E+01  0.24621838156E+02  0.51100000000E-03 0.  1.
        -12    1    3    3    0    0 -0.68677185172E+00  0.88764312032E+00  0.12065609434E+01  0.16478334854E+01  0.00000000000E+00 0.  1.
</event>
<event>
 7    1  0.1503436E-008  0.4614232E+02  0.7816164E-02  0.1320468E+00
        -11   -1    0    0    0    0  0.00000000000E+00  0.00000000000E+00  0.45593999997E+02  0.45594000000E+02  0.51100000000E-03 0.  1.
         11   -1    0    0    0    0 -0.00000000000E+00 -0.00000000000E+00 -0.45593999997E+02  0.45594000000E+02  0.51100000000E-03 0. -1.
    9900012    2    1    2    0    0 -0.33370383539E+02  0.92244306795E+00  0.30243678641E+02  0.46142317671E+02  0.99999991794E+01 0.  0.
         12    1    1    2    0    0  0.33370383539E+02 -0.92244306795E+00 -0.30243678641E+02  0.45045682329E+02  0.00000000000E+00 0. -1.
         11    1    3    3    0    0 -0.24337397105E+02 -0.17165006886E+01  0.25957304728E+02  0.35623544762E+02  0.51100000000E-03 0. -1.
        -11    1    3    3    0    0 -0.56455482910E+01  0.20823183594E+01  0.36185533891E+01  0.70215521181E+01  0.51100000000E-03 0.  1.
         12    1    3    3    0    0 -0.33874381433E+01  0.55662539718E+00  0.66782052403E+00  0.34972207909E+01  0.00000000000E+00 0. -1.
</event>
<event>
 7    1  0.1503436E-008  0.4614232E+02  0.7816164E-02  0.1320468E+00
        -11   -1    0    0    0    0  0.00000000000E+00  0.00000000000E+00  0.45593999997E+02  0.45594000000E+02  0.51100000000E-03 0. -1.
         11   -1    0    0    0    0 -0.00000000000E+00 -0.00000000000E+00 -0.45593999997E+02  0.45594000000E+02  0.51100000000E-03 0.  1.
    9900012    2    1    2    0    0 -0.30892794952E+02 -0.27797377697E+02 -0.17379717662E+02  0.46142316824E+02  0.99999914568E+01 0.  0.
         12    1    1    2    0    0  0.30892794952E+02  0.27797377697E+02  0.17379717662E+02  0.45045683176E+02  0.00000000000E+00 0. -1.
         11    1    3    3    0    0 -0.11593983410E+01 -0.24070896252E+01  0.73645557635E+00  0.27713989344E+01  0.51100000000E-03 0. -1.
        -11    1    3    3    0    0 -0.26278494728E+02 -0.22782379326E+02 -0.14314618023E+02  0.37609897399E+02  0.51100000000E-03 0.  1.
        -12    1    3    3    0    0 -0.34549018833E+01 -0.26079087453E+01 -0.38015552150E+01  0.57610204912E+01  0.00000000000E+00 0.  1.
</event>
<event>
 7    1  0.1503436E-008  0.4614232E+02  0.7816164E-02  0.1320468E+00
        -11   -1    0    0    0    0  0.00000000000E+00  0.00000000000E+00  0.45593999997E+02  0.45594000000E+02  0.51100000000E-03 0.  1.
         11   -1    0    0    0    0 -0.00000000000E+00 -0.00000000000E+00 -0.45593999997E+02  0.45594000000E+02  0.51100000000E-03 0. -1.
    9900012    2    1    2    0    0 -0.35512407195E+01  0.33540625969E+02  0.29858477612E+02  0.46142316673E+02  0.99999900821E+01 0.  0.
         12    1    1    2    0    0  0.35512407195E+01 -0.33540625969E+02 -0.29858477612E+02  0.45045683327E+02  0.00000000000E+00 0. -1.
         11    1    3    3    0    0 -0.22293934447E+01  0.70868225127E+01  0.44223139796E+01  0.86458145743E+01  0.51100000000E-03 0. -1.
        -11    1    3    3    0    0 -0.33645393530E+01  0.24425349145E+02  0.22386745789E+02  0.33302915686E+02  0.51100000000E-03 0.  1.
        -12    1    3    3    0    0  0.20426920781E+01  0.20284543111E+01  0.30494178438E+01  0.41935864131E+01  0.00000000000E+00 0.  1.
</event>
<event>
 7    1  0.1503436E-008  0.4614232E+02  0.7816164E-02  0.1320468E+00
        -11   -1    0    0    0    0  0.00000000000E+00  0.00000000000E+00  0.45593999997E+02  0.45594000000E+02  0.51100000000E-03 0. -1.
         11   -1    0    0    0    0 -0.00000000000E+00 -0.00000000000E+00 -0.45593999997E+02  0.45594000000E+02  0.51100000000E-03 0.  1.
    9900012    2    1    2    0    0 -0.37432830284E+02 -0.21159827628E+02  0.13422308463E+02  0.46142318156E+02  0.10000003601E+02 0.  0.
         12    1    1    2    0    0  0.37432830284E+02  0.21159827628E+02 -0.13422308463E+02  0.45045681844E+02  0.00000000000E+00 0. -1.
         11    1    3    3    0    0 -0.24867113899E+02 -0.17061713522E+02  0.98714482383E+01  0.31732017152E+02  0.51100000000E-03 0.  1.
        -11    1    3    3    0    0 -0.11356806031E+02 -0.50414129651E+01  0.30157764861E+01  0.12786234629E+02  0.51100000000E-03 0. -1.
         12    1    3    3    0    0 -0.12089103547E+01  0.94329885941E+00  0.53508373860E+00  0.16240663753E+01  0.00000000000E+00 0. -1.
</event>
<event>
 7    1  0.1503436E-008  0.4614232E+02  0.7816164E-02  0.1320468E+00
        -11   -1    0    0    0    0  0.00000000000E+00  0.00000000000E+00  0.45593999997E+02  0.45594000000E+02  0.51100000000E-03 0.  1.
         11   -1    0    0    0    0 -0.00000000000E+00 -0.00000000000E+00 -0.45593999997E+02  0.45594000000E+02  0.51100000000E-03 0. -1.
    9900012    2    1    2    0    0  0.34568558783E+01 -0.42916273454E+02  0.13242245967E+02  0.46142318098E+02  0.10000003074E+02 0.  0.
         12    1    1    2    0    0 -0.34568558783E+01  0.42916273454E+02 -0.13242245967E+02  0.45045681902E+02  0.00000000000E+00 0. -1.
         11    1    3    3    0    0 -0.13032212459E+01 -0.12341331880E+02  0.61446161802E+01  0.13847857829E+02  0.51100000000E-03 0. -1.
        -11    1    3    3    0    0  0.45897981314E+01 -0.11085756868E+02  0.32141730997E+01  0.12421399325E+02  0.51100000000E-03 0.  1.
         12    1    3    3    0    0  0.17027899281E+00 -0.19489184706E+02  0.38834566874E+01  0.19873060944E+02  0.00000000000E+00 0. -1.
</event>
<event>
 7    1  0.1503436E-008  0.4614232E+02  0.7816164E-02  0.1320468E+00
        -11   -1    0    0    0    0  0.00000000000E+00  0.00000000000E+00  0.45593999997E+02  0.45594000000E+02  0.51100000000E-03 0.  1.
         11   -1    0    0    0    0 -0.00000000000E+00 -0.00000000000E+00 -0.45593999997E+02  0.45594000000E+02  0.51100000000E-03 0. -1.
    9900012    2    1    2    0    0 -0.39378547817E+02 -0.21110748212E+02  0.57253520668E+01  0.46142319025E+02  0.10000011521E+02 0.  0.
         12    1    1    2    0    0  0.39378547817E+02  0.21110748212E+02 -0.57253520668E+01  0.45045680975E+02  0.00000000000E+00 0. -1.
         11    1    3    3    0    0 -0.47240902786E+01 -0.11210080045E+01  0.11334010382E+01  0.49858084682E+01  0.51100000000E-03 0. -1.
        -11    1    3    3    0    0 -0.28311053799E+02 -0.12819931110E+02  0.15711674481E+01  0.31118081050E+02  0.51100000000E-03 0.  1.
        -12    1    3    3    0    0 -0.63434037397E+01 -0.71698090983E+01  0.30207835805E+01  0.10038429506E+02  0.00000000000E+00 0.  1.
</event>
<event>
 7    1  0.1503436E-008  0.4614232E+02  0.7816164E-02  0.1320468E+00
        -11   -1    0    0    0    0  0.00000000000E+00  0.00000000000E+00  0.45593999997E+02  0.45594000000E+02  0.51100000000E-03 0. -1.
         11   -1    0    0    0    0 -0.00000000000E+00 -0.00000000000E+00 -0.45593999997E+02  0.45594000000E+02  0.51100000000E-03 0.  1.
    9900012    2    1    2    0    0 -0.36993533650E+02 -0.56452539485E+00 -0.25695780632E+02  0.46142319151E+02  0.10000012674E+02 0.  0.
         12    1    1    2    0    0  0.36993533650E+02  0.56452539485E+00  0.25695780632E+02  0.45045680849E+02  0.00000000000E+00 0. -1.
         11    1    3    3    0    0 -0.12027758773E+01  0.56093937955E+00 -0.35812141975E+01  0.38192169600E+01  0.51100000000E-03 0. -1.
        -11    1    3    3    0    0 -0.23960093534E+02  0.12951838292E+00 -0.12489944503E+02  0.27020391765E+02  0.51100000000E-03 0.  1.
         12    1    3    3    0    0 -0.11830664238E+02 -0.12549831573E+01 -0.96246219318E+01  0.15302710426E+02  0.00000000000E+00 0. -1.
</event>
<event>
 7    1  0.1503436E-008  0.4614232E+02  0.7816164E-02  0.1320468E+00
        -11   -1    0    0    0    0  0.00000000000E+00  0.00000000000E+00  0.45593999997E+02  0.45594000000E+02  0.51100000000E-03 0.  1.
         11   -1    0    0    0    0 -0.00000000000E+00 -0.00000000000E+00 -0.45593999997E+02  0.45594000000E+02  0.51100000000E-03 0. -1.
    9900012    2    1    2    0    0 -0.24810712280E+02 -0.37568999157E+02 -0.14533777299E+01  0.46142318206E+02  0.10000004055E+02 0.  0.
         12    1    1    2    0    0  0.24810712280E+02  0.37568999157E+02  0.14533777299E+01  0.45045681794E+02  0.00000000000E+00 0. -1.
         11    1    3    3    0    0 -0.22737299629E+01 -0.24624050250E+01 -0.27259336086E+01  0.43201852682E+01  0.51100000000E-03 0. -1.
        -11    1    3    3    0    0 -0.15887028581E+02 -0.22552406364E+02  0.41290419321E+00  0.27589476256E+02  0.51100000000E-03 0.  1.
         12    1    3    3    0    0 -0.66499537356E+01 -0.12554187768E+02  0.85965168550E+00  0.14232656682E+02  0.00000000000E+00 0. -1.
</event>
<event>
 7    1  0.1503436E-008  0.4614232E+02  0.7816164E-02  0.1320468E+00
        -11   -1    0    0    0    0  0.00000000000E+00  0.00000000000E+00  0.45593999997E+02  0.45594000000E+02  0.51100000000E-03 0.  1.
         11   -1    0    0    0    0 -0.00000000000E+00 -0.00000000000E+00 -0.45593999997E+02  0.45594000000E+02  0.51100000000E-03 0. -1.
    9900012    2    1    2    0    0  0.29446179472E+01  0.48492837764E+01  0.44686990534E+02  0.46142318176E+02  0.10000003783E+02 0.  0.
         12    1    1    2    0    0 -0.29446179472E+01 -0.48492837764E+01 -0.44686990534E+02  0.45045681824E+02  0.00000000000E+00 0. -1.
         11    1    3    3    0    0 -0.15600087379E+01  0.11495474871E-03  0.61269634205E+01  0.63224448034E+01  0.51100000000E-03 0. -1.
        -11    1    3    3    0    0 -0.17072080787E+01  0.20163088147E+01  0.17017613326E+02  0.17221475669E+02  0.51100000000E-03 0.  1.
        -12    1    3    3    0    0  0.62118347637E+01  0.28328600070E+01  0.21542413788E+02  0.22598397704E+02  0.00000000000E+00 0.  1.
</event>
<event>
 7    1  0.1503436E-008  0.4614232E+02  0.7816164E-02  0.1320468E+00
        -11   -1    0    0    0    0  0.00000000000E+00  0.00000000000E+00  0.45593999997E+02  0.45594000000E+02  0.51100000000E-03 0. -1.
         11   -1    0    0    0    0 -0.00000000000E+00 -0.00000000000E+00 -0.45593999997E+02  0.45594000000E+02  0.51100000000E-03 0.  1.
    9900012    2    1    2    0    0  0.24952635017E+02 -0.32789662314E+02 -0.18202134160E+02  0.46142316112E+02  0.99999849610E+01 0.  0.
         12    1    1    2    0    0 -0.24952635017E+02  0.32789662314E+02  0.18202134160E+02  0.45045683888E+02  0.00000000000E+00 0. -1.
         11    1    3    3    0    0  0.36859814012E+01 -0.38218996937E+01 -0.58758573124E+01  0.79195375860E+01  0.51100000000E-03 0.  1.
        -11    1    3    3    0    0  0.14331418913E+01 -0.32808334056E+01 -0.22539479086E+00  0.35872784376E+01  0.51100000000E-03 0. -1.
        -12    1    3    3    0    0  0.19833511725E+02 -0.25686929215E+02 -0.12100882057E+02  0.34635500088E+02  0.00000000000E+00 0.  1.
</event>
<event>
 7    1  0.1503436E-008  0.4614232E+02  0.7816164E-02  0.1320468E+00
        -11   -1    0    0    0    0  0.00000000000E+00  0.00000000000E+00  0.45593999997E+02  0.45594000000E+02  0.51100000000E-03 0.  1.
         11   -1    0    0    0    0 -0.00000000000E+00 -0.00000000000E+00 -0.45593999997E+02  0.45594000000E+02  0.51100000000E-03 0. -1.
    9900012    2    1    2    0    0  0.44420355223E+02  0.31344298901E+01  0.67912357971E+01  0.46142317715E+02  0.99999995750E+01 0.  0.
         12    1    1    2    0    0 -0.44420355223E+02 -0.31344298901E+01 -0.67912357971E+01  0.45045682285E+02  0.00000000000E+00 0. -1.
         11    1    3    3    0    0  0.95182297193E+01  0.40328075254E+00 -0.41410161994E+00  0.95357649283E+01  0.51100000000E-03 0. -1.
        -11    1    3    3    0    0  0.12667390106E+02  0.45267568628E+01  0.12007423626E+01  0.13505409371E+02  0.51100000000E-03 0.  1.
        -12    1    3    3    0    0  0.22234735398E+02 -0.17956077252E+01  0.60045950544E+01  0.23101143416E+02  0.00000000000E+00 0.  1.
</event>
<event>
 7    1  0.1503436E-008  0.4614232E+02  0.7816164E-02  0.1320468E+00
        -11   -1    0    0    0    0  0.00000000000E+00  0.00000000000E+00  0.45593999997E+02  0.45594000000E+02  0.51100000000E-03 0.  1.
         11   -1    0    0    0    0 -0.00000000000E+00 -0.00000000000E+00 -0.45593999997E+02  0.45594000000E+02  0.51100000000E-03 0. -1.
    9900012    2    1    2    0    0  0.44401507093E+02  0.36046559006E+01  0.66802756245E+01  0.46142318090E+02  0.10000002998E+02 0.  0.
         12    1    1    2    0    0 -0.44401507093E+02 -0.36046559006E+01 -0.66802756245E+01  0.45045681910E+02  0.00000000000E+00 0. -1.
         11    1    3    3    0    0  0.65980620908E+01  0.99035769345E+00  0.26057078676E+01  0.71627470615E+01  0.51100000000E-03 0. -1.
        -11    1    3    3    0    0  0.30604760101E+02  0.30289476672E+01  0.63805630329E+01  0.31409193713E+02  0.51100000000E-03 0.  1.
        -12    1    3    3    0    0  0.71986849015E+01 -0.41464946006E+00 -0.23059952760E+01  0.75703773154E+01  0.00000000000E+00 0.  1.
</event>
<event>
 7    1  0.1503436E-008  0.4614232E+02  0.7816164E-02  0.1320468E+00
        -11   -1    0    0    0    0  0.00000000000E+00  0.00000000000E+00  0.45593999997E+02  0.45594000000E+02  0.51100000000E-03 0.  1.
         11   -1    0    0    0    0 -0.00000000000E+00 -0.00000000000E+00 -0.45593999997E+02  0.45594000000E+02  0.51100000000E-03 0. -1.
    9900012    2    1    2    0    0  0.11208872936E+02  0.20172298006E+02  0.38685308232E+02  0.46142317495E+02  0.99999975705E+01 0.  0.
         12    1    1    2    0    0 -0.11208872936E+02 -0.20172298006E+02 -0.38685308232E+02  0.45045682505E+02  0.00000000000E+00 0. -1.
         11    1    3    3    0    0  0.97426804080E+01  0.14550410536E+02  0.31822021310E+02  0.36321829646E+02  0.51100000000E-03 0. -1.
        -11    1    3    3    0    0 -0.39562889333E+00  0.41636699603E+01  0.59768929775E+01  0.72949242412E+01  0.51100000000E-03 0.  1.
         12    1    3    3    0    0  0.18618214217E+01  0.14582175092E+01  0.88639394474E+00  0.25255636075E+01  0.00000000000E+00 0. -1.
</event>
<event>
 7    1  0.1503436E-008  0.4614232E+02  0.7816164E-02  0.1320468E+00
        -11   -1    0    0    0    0  0.00000000000E+00  0.00000000000E+00  0.45593999997E+02  0.45594000000E+02  0.51100000000E-03 0.  1.
         11   -1    0    0    0    0 -0.00000000000E+00 -0.00000000000E+00 -0.45593999997E+02  0.45594000000E+02  0.51100000000E-03 0. -1.
    9900012    2    1    2    0    0  0.41929633557E+02  0.92023085014E+01  0.13650519217E+02  0.46142319554E+02  0.10000016347E+02 0.  0.
         12    1    1    2    0    0 -0.41929633557E+02 -0.92023085014E+01 -0.13650519217E+02  0.45045680446E+02  0.00000000000E+00 0. -1.
         11    1    3    3    0    0  0.34130104370E+01 -0.60128829852E-01  0.36535499423E+01  0.50000683156E+01  0.51100000000E-03 0. -1.
        -11    1    3    3    0    0  0.19399093535E+02  0.60427593087E+01  0.71913049571E+01  0.21553529579E+02  0.51100000000E-03 0.  1.
         12    1    3    3    0    0  0.19117529585E+02  0.32196780225E+01  0.28056643175E+01  0.19588721659E+02  0.00000000000E+00 0. -1.
</event>
<event>
 7    1  0.1503436E-008  0.4614232E+02  0.7816164E-02  0.1320468E+00
        -11   -1    0    0    0    0  0.00000000000E+00  0.00000000000E+00  0.45593999997E+02  0.45594000000E+02  0.51100000000E-03 0.  1.
         11   -1    0    0    0    0 -0.00000000000E+00 -0.00000000000E+00 -0.45593999997E+02  0.45594000000E+02  0.51100000000E-03 0. -1.
    9900012    2    1    2    0    0  0.69750089625E+01 -0.95062454240E+01  0.43475206353E+02  0.46142322965E+02  0.10000047453E+02 0.  0.
         12    1    1    2    0    0 -0.69750089625E+01  0.95062454240E+01 -0.43475206353E+02  0.45045677035E+02  0.00000000000E+00 0. -1.
         11    1    3    3    0    0  0.60093366993E+00 -0.61083006978E+01  0.93492121554E+01  0.11183927167E+02  0.51100000000E-03 0. -1.
        -11    1    3    3    0    0  0.40132692353E+01 -0.32773058238E+01  0.21749100230E+02  0.22357782191E+02  0.51100000000E-03 0.  1.
         12    1    3    3    0    0  0.23608060572E+01 -0.12063890233E+00  0.12376893968E+02  0.12600613607E+02  0.00000000000E+00 0. -1.
</event>
<event>
 7    1  0.1503436E-008  0.4614232E+02  0.7816164E-02  0.1320468E+00
        -11   -1    0    0    0    0  0.00000000000E+00  0.00000000000E+00  0.45593999997E+02  0.45594000000E+02  0.51100000000E-03 0. -1.
         11   -1    0    0    0    0 -0.00000000000E+00 -0.00000000000E+00 -0.45593999997E+02  0.45594000000E+02  0.51100000000E-03 0.  1.
    9900012    2    1    2    0    0 -0.40879712568E+02 -0.15021563033E+02 -0.11502837839E+02  0.46142317255E+02  0.99999953893E+01 0.  0.
         12    1    1    2    0    0  0.40879712568E+02  0.15021563033E+02  0.11502837839E+02  0.45045682745E+02  0.00000000000E+00 0. -1.
         11    1    3    3    0    0 -0.40967618425E+01 -0.13699549034E+01  0.17175073359E+00  0.43231623388E+01  0.51100000000E-03 0. -1.
        -11    1    3    3    0    0 -0.71731949134E+01 -0.31406364352E+01 -0.60595605880E+01  0.99013432051E+01  0.51100000000E-03 0.  1.
        -12    1    3    3    0    0 -0.29609755812E+02 -0.10510971694E+02 -0.56150279842E+01  0.31917811712E+02  0.00000000000E+00 0.  1.
</event>
<event>
 7    1  0.1503436E-008  0.4614232E+02  0.7816164E-02  0.1320468E+00
        -11   -1    0    0    0    0  0.00000000000E+00  0.00000000000E+00  0.45593999997E+02  0.45594000000E+02  0.51100000000E-03 0. -1.
         11   -1    0    0    0    0 -0.00000000000E+00 -0.00000000000E+00 -0.45593999997E+02  0.45594000000E+02  0.51100000000E-03 0.  1.
    9900012    2    1    2    0    0  0.21651695316E+02 -0.33234837190E+02 -0.21348609101E+02  0.46142318479E+02  0.10000006547E+02 0.  0.
         12    1    1    2    0    0 -0.21651695316E+02  0.33234837190E+02  0.21348609101E+02  0.45045681521E+02  0.00000000000E+00 0. -1.
         11    1    3    3    0    0  0.18042289369E+02 -0.30048129258E+02 -0.16512220748E+02  0.38743615111E+02  0.51100000000E-03 0. -1.
        -11    1    3    3    0    0 -0.33253984494E+00  0.16293076846E+00 -0.63277359845E+00  0.73316565099E+00  0.51100000000E-03 0.  1.
         12    1    3    3    0    0  0.39419457923E+01 -0.33496387006E+01 -0.42036147541E+01  0.66655377169E+01  0.00000000000E+00 0. -1.
</event>
<event>
 7    1  0.1853281E-008  0.4614231E+02  0.7816164E-02  0.1320468E+00
        -11   -1    0    0    0    0  0.00000000000E+00  0.00000000000E+00  0.45593999997E+02  0.45594000000E+02  0.51100000000E-03 0.  1.
         11   -1    0    0    0    0 -0.00000000000E+00 -0.00000000000E+00 -0.45593999997E+02  0.45594000000E+02  0.51100000000E-03 0. -1.
    9900012    2    1    2    0    0  0.11685095662E+02 -0.41694875747E+02  0.12414094263E+02  0.46142313630E+02  0.99999623287E+01 0.  0.
         12    1    1    2    0    0 -0.11685095662E+02  0.41694875747E+02 -0.12414094263E+02  0.45045686370E+02  0.00000000000E+00 0. -1.
         11    1    3    3    0    0 -0.77090204183E+00 -0.29893602557E+00 -0.32678960297E-01  0.82747862875E+00  0.51100000000E-03 0. -1.
        -11    1    3    3    0    0  0.11222572967E+02 -0.32243310836E+02  0.80031696427E+01  0.35066051421E+02  0.51100000000E-03 0.  1.
        -12    1    3    3    0    0  0.12334247375E+01 -0.91526288854E+01  0.44436035810E+01  0.10248783581E+02  0.00000000000E+00 0.  1.
</event>
<event>
 7    1  0.1503436E-008  0.4614232E+02  0.7816164E-02  0.1320468E+00
        -11   -1    0    0    0    0  0.00000000000E+00  0.00000000000E+00  0.45593999997E+02  0.45594000000E+02  0.51100000000E-03 0.  1.
         11   -1    0    0    0    0 -0.00000000000E+00 -0.00000000000E+00 -0.45593999997E+02  0.45594000000E+02  0.51100000000E-03 0. -1.
    9900012    2    1    2    0    0 -0.11456411854E+02  0.21771121247E+02  0.37734365659E+02  0.46142318247E+02  0.10000004431E+02 0.  0.
         12    1    1    2    0    0  0.11456411854E+02 -0.21771121247E+02 -0.37734365659E+02  0.45045681753E+02  0.00000000000E+00 0. -1.
         11    1    3    3    0    0 -0.92688657876E+00  0.44481720192E+01  0.95413651372E+01  0.10568017883E+02  0.51100000000E-03 0. -1.
        -11    1    3    3    0    0  0.29795312592E+00  0.46263224198E+01  0.36706724433E+01  0.59131608843E+01  0.51100000000E-03 0.  1.
        -12    1    3    3    0    0 -0.10827478402E+02  0.12696626808E+02  0.24522328078E+02  0.29661139479E+02  0.00000000000E+00 0.  1.
</event>
<event>
 7    1  0.1503436E-008  0.4614232E+02  0.7816164E-02  0.1320468E+00
        -11   -1    0    0    0    0  0.00000000000E+00  0.00000000000E+00  0.45593999997E+02  0.45594000000E+02  0.51100000000E-03 0.  1.
         11   -1    0    0    0    0 -0.00000000000E+00 -0.00000000000E+00 -0.45593999997E+02  0.45594000000E+02  0.51100000000E-03 0. -1.
    9900012    2    1    2    0    0  0.46714411213E+01  0.17273494747E+02  0.41339055454E+02  0.46142317757E+02  0.99999999632E+01 0.  0.
         12    1    1    2    0    0 -0.46714411213E+01 -0.17273494747E+02 -0.41339055454E+02  0.45045682243E+02  0.00000000000E+00 0. -1.
         11    1    3    3    0    0 -0.19244928120E+01  0.54104588604E+01  0.10538772448E+02  0.12001769146E+02  0.51100000000E-03 0. -1.
        -11    1    3    3    0    0  0.20135867054E+00  0.73365292569E+00 -0.12826450981E-01  0.76089204789E+00  0.51100000000E-03 0.  1.
        -12    1    3    3    0    0  0.63945752627E+01  0.11129382961E+02  0.30813109457E+02  0.33379656563E+02  0.00000000000E+00 0.  1.
</event>
<event>
 7    1  0.1503436E-008  0.4614232E+02  0.7816164E-02  0.1320468E+00
        -11   -1    0    0    0    0  0.00000000000E+00  0.00000000000E+00  0.45593999997E+02  0.45594000000E+02  0.51100000000E-03 0.  1.
         11   -1    0    0    0    0 -0.00000000000E+00 -0.00000000000E+00 -0.45593999997E+02  0.45594000000E+02  0.51100000000E-03 0. -1.
    9900012    2    1    2    0    0  0.22641601260E+02 -0.30687389812E+02  0.23974058308E+02  0.46142317934E+02  0.10000001574E+02 0.  0.
         12    1    1    2    0    0 -0.22641601260E+02  0.30687389812E+02 -0.23974058308E+02  0.45045682066E+02  0.00000000000E+00 0. -1.
         11    1    3    3    0    0  0.77248472353E+01 -0.60335039822E+01  0.92743877292E+01  0.13494098826E+02  0.51100000000E-03 0. -1.
        -11    1    3    3    0    0  0.31247265934E+01 -0.91773855947E+01  0.49135688076E+01  0.10868830725E+02  0.51100000000E-03 0.  1.
         12    1    3    3    0    0  0.11792027431E+02 -0.15476500235E+02  0.97861017708E+01  0.21779388383E+02  0.00000000000E+00 0. -1.
</event>
<event>
 7    1  0.1503436E-008  0.4614232E+02  0.7816164E-02  0.1320468E+00
        -11   -1    0    0    0    0  0.00000000000E+00  0.00000000000E+00  0.45593999997E+02  0.45594000000E+02  0.51100000000E-03 0.  1.
         11   -1    0    0    0    0 -0.00000000000E+00 -0.00000000000E+00 -0.45593999997E+02  0.45594000000E+02  0.51100000000E-03 0. -1.
    9900012    2    1    2    0    0 -0.29092155599E+02  0.31978864514E+02  0.12653542314E+02  0.46142318452E+02  0.10000006303E+02 0.  0.
         12    1    1    2    0    0  0.29092155599E+02 -0.31978864514E+02 -0.12653542314E+02  0.45045681548E+02  0.00000000000E+00 0. -1.
         11    1    3    3    0    0 -0.39432641169E-01  0.20229719220E+01 -0.34671770985E+00  0.20528477200E+01  0.51100000000E-03 0. -1.
        -11    1    3    3    0    0 -0.14743585686E+02  0.11129968366E+02  0.61693820816E+01  0.19475902809E+02  0.51100000000E-03 0.  1.
        -12    1    3    3    0    0 -0.14309137272E+02  0.18825924227E+02  0.68308779420E+01  0.24613567923E+02  0.00000000000E+00 0.  1.
</event>
<event>
 7    1  0.1503436E-008  0.4614232E+02  0.7816164E-02  0.1320468E+00
        -11   -1    0    0    0    0  0.00000000000E+00  0.00000000000E+00  0.45593999997E+02  0.45594000000E+02  0.51100000000E-03 0.  1.
         11   -1    0    0    0    0 -0.00000000000E+00 -0.00000000000E+00 -0.45593999997E+02  0.45594000000E+02  0.51100000000E-03 0. -1.
    9900012    2    1    2    0    0  0.33945014268E+02 -0.27505859914E+02  0.10967105335E+02  0.46142315161E+02  0.99999762871E+01 0.  0.
         12    1    1    2    0    0 -0.33945014268E+02  0.27505859914E+02 -0.10967105335E+02  0.45045684839E+02  0.00000000000E+00 0. -1.
         11    1    3    3    0    0  0.17345576736E+02 -0.10698490725E+02  0.46953013563E+01  0.20913454789E+02  0.51100000000E-03 0. -1.
        -11    1    3    3    0    0  0.38010131861E+01 -0.10620882829E+01  0.22515401844E+01  0.45436952169E+01  0.51100000000E-03 0.  1.
         12    1    3    3    0    0  0.12798424345E+02 -0.15745280905E+02  0.40202637940E+01  0.20685165155E+02  0.00000000000E+00 0. -1.
</event>
<event>
 7    1  0.1503436E-008  0.4614232E+02  0.7816164E-02  0.1320468E+00
        -11   -1    0    0    0    0  0.00000000000E+00  0.00000000000E+00  0.45593999997E+02  0.45594000000E+02  0.51100000000E-03 0.  1.
         11   -1    0    0    0    0 -0.00000000000E+00 -0.00000000000E+00 -0.45593999997E+02  0.45594000000E+02  0.51100000000E-03 0. -1.
    9900012    2    1    2    0    0 -0.12891860495E+02  0.14282424337E+02  0.40729912986E+02  0.46142317368E+02  0.99999964148E+01 0.  0.
         12    1    1    2    0    0  0.12891860495E+02 -0.14282424337E+02 -0.40729912986E+02  0.45045682632E+02  0.00000000000E+00 0. -1.
         11    1    3    3    0    0 -0.56398883227E+00 -0.34805138377E+00 -0.13495695451E-01  0.66287673333E+00  0.51100000000E-03 0. -1.
        -11    1    3    3    0    0 -0.84372311398E+01  0.67192072523E+01  0.27797387706E+02  0.29816595697E+02  0.51100000000E-03 0.  1.
        -12    1    3    3    0    0 -0.38906405232E+01  0.79112684683E+01  0.12946020975E+02  0.15662844938E+02  0.00000000000E+00 0.  1.
</event>
<event>
 7    1  0.1503436E-008  0.4614232E+02  0.7816164E-02  0.1320468E+00
        -11   -1    0    0    0    0  0.00000000000E+00  0.00000000000E+00  0.45593999997E+02  0.45594000000E+02  0.51100000000E-03 0. -1.
         11   -1    0    0    0    0 -0.00000000000E+00 -0.00000000000E+00 -0.45593999997E+02  0.45594000000E+02  0.51100000000E-03 0.  1.
    9900012    2    1    2    0    0  0.25385780536E+02  0.25192345124E+02 -0.27386517045E+02  0.46142318496E+02  0.10000006705E+02 0.  0.
         12    1    1    2    0    0 -0.25385780536E+02 -0.25192345124E+02  0.27386517045E+02  0.45045681504E+02  0.00000000000E+00 0. -1.
         11    1    3    3    0    0  0.10415593462E+02  0.14014389149E+02 -0.11402133646E+02  0.20854168464E+02  0.51100000000E-03 0. -1.
        -11    1    3    3    0    0  0.12859687266E+02  0.84182342837E+01 -0.99022396991E+01  0.18283669663E+02  0.51100000000E-03 0.  1.
         12    1    3    3    0    0  0.21104998077E+01  0.27597216907E+01 -0.60821436998E+01  0.70044803686E+01  0.00000000000E+00 0. -1.
</event>
<event>
 7    1  0.1503436E-008  0.4614232E+02  0.7816164E-02  0.1320468E+00
        -11   -1    0    0    0    0  0.00000000000E+00  0.00000000000E+00  0.45593999997E+02  0.45594000000E+02  0.51100000000E-03 0. -1.
         11   -1    0    0    0    0 -0.00000000000E+00 -0.00000000000E+00 -0.45593999997E+02  0.45594000000E+02  0.51100000000E-03 0.  1.
    9900012    2    1    2    0    0 -0.95553287580E+01  0.43066827611E+01 -0.43809378153E+02  0.46142318317E+02  0.10000005073E+02 0.  0.
         12    1    1    2    0    0  0.95553287580E+01 -0.43066827611E+01  0.43809378153E+02  0.45045681683E+02  0.00000000000E+00 0. -1.
         11    1    3    3    0    0 -0.38686392806E+01  0.48601255713E+01 -0.33276685965E+02  0.33851514287E+02  0.51100000000E-03 0. -1.
        -11    1    3    3    0    0 -0.19107827959E+01 -0.15051584561E+01 -0.37500229041E+01  0.44698171007E+01  0.51100000000E-03 0.  1.
         12    1    3    3    0    0 -0.37759066815E+01  0.95171564591E+00 -0.67826692843E+01  0.78209869299E+01  0.00000000000E+00 0. -1.
</event>
<event>
 7    1  0.1503436E-008  0.4614232E+02  0.7816164E-02  0.1320468E+00
        -11   -1    0    0    0    0  0.00000000000E+00  0.00000000000E+00  0.45593999997E+02  0.45594000000E+02  0.51100000000E-03 0.  1.
         11   -1    0    0    0    0 -0.00000000000E+00 -0.00000000000E+00 -0.45593999997E+02  0.45594000000E+02  0.51100000000E-03 0. -1.
    9900012    2    1    2    0    0 -0.21170829830E+02 -0.18924306359E+02  0.34968272838E+02  0.46142317498E+02  0.99999975983E+01 0.  0.
         12    1    1    2    0    0  0.21170829830E+02  0.18924306359E+02 -0.34968272838E+02  0.45045682502E+02  0.00000000000E+00 0. -1.
         11    1    3    3    0    0 -0.58414769318E+01 -0.32561533907E+01  0.42592505736E+01  0.79288462816E+01  0.51100000000E-03 0. -1.
        -11    1    3    3    0    0 -0.15847322744E+02 -0.14630601876E+02  0.28822186576E+02  0.35998758154E+02  0.51100000000E-03 0.  1.
         12    1    3    3    0    0  0.51796984587E+00 -0.10375510919E+01  0.18868356887E+01  0.22147130617E+01  0.00000000000E+00 0. -1.
</event>
<event>
 7    1  0.1503436E-008  0.4614232E+02  0.7816164E-02  0.1320468E+00
        -11   -1    0    0    0    0  0.00000000000E+00  0.00000000000E+00  0.45593999997E+02  0.45594000000E+02  0.51100000000E-03 0. -1.
         11   -1    0    0    0    0 -0.00000000000E+00 -0.00000000000E+00 -0.45593999997E+02  0.45594000000E+02  0.51100000000E-03 0.  1.
    9900012    2    1    2    0    0 -0.12654360165E+02 -0.42198715704E+02  0.93940954981E+01  0.46142317982E+02  0.10000002016E+02 0.  0.
         12    1    1    2    0    0  0.12654360165E+02  0.42198715704E+02 -0.93940954981E+01  0.45045682018E+02  0.00000000000E+00 0. -1.
         11    1    3    3    0    0 -0.30073153936E+01 -0.12859906407E+02  0.68597110634E+01  0.14882095780E+02  0.51100000000E-03 0. -1.
        -11    1    3    3    0    0 -0.97163060063E+01 -0.26800625517E+02  0.15923759470E+01  0.28551984027E+02  0.51100000000E-03 0.  1.
        -12    1    3    3    0    0  0.69261234677E-01 -0.25381837801E+01  0.94200848771E+00  0.27082381747E+01  0.00000000000E+00 0.  1.
</event>
<event>
 7    1  0.1503436E-008  0.4614232E+02  0.7816164E-02  0.1320468E+00
        -11   -1    0    0    0    0  0.00000000000E+00  0.00000000000E+00  0.45593999997E+02  0.45594000000E+02  0.51100000000E-03 0. -1.
         11   -1    0    0    0    0 -0.00000000000E+00 -0.00000000000E+00 -0.45593999997E+02  0.45594000000E+02  0.51100000000E-03 0.  1.
    9900012    2    1    2    0    0  0.32887092055E+02 -0.30711983274E+02  0.20800939060E+01  0.46142317287E+02  0.99999956761E+01 0.  0.
         12    1    1    2    0    0 -0.32887092055E+02  0.30711983274E+02 -0.20800939060E+01  0.45045682713E+02  0.00000000000E+00 0. -1.
         11    1    3    3    0    0  0.40970010947E+01 -0.36835198468E+01 -0.14710795353E+01  0.57024391002E+01  0.51100000000E-03 0. -1.
        -11    1    3    3    0    0  0.75554196774E+01 -0.35982929650E+01  0.27500239615E+01  0.88087860011E+01  0.51100000000E-03 0.  1.
        -12    1    3    3    0    0  0.21234671283E+02 -0.23430170462E+02  0.80114947989E+00  0.31631092186E+02  0.00000000000E+00 0.  1.
</event>
<event>
 7    1  0.1503436E-008  0.4614232E+02  0.7816164E-02  0.1320468E+00
        -11   -1    0    0    0    0  0.00000000000E+00  0.00000000000E+00  0.45593999997E+02  0.45594000000E+02  0.51100000000E-03 0.  1.
         11   -1    0    0    0    0 -0.00000000000E+00 -0.00000000000E+00 -0.45593999997E+02  0.45594000000E+02  0.51100000000E-03 0. -1.
    9900012    2    1    2    0    0 -0.43987547728E+02  0.62533949105E+01  0.74232124688E+01  0.46142318893E+02  0.10000010326E+02 0.  0.
         12    1    1    2    0    0  0.43987547728E+02 -0.62533949105E+01 -0.74232124688E+01  0.45045681107E+02  0.00000000000E+00 0. -1.
         11    1    3    3    0    0 -0.43691660911E+01  0.17060543568E+01 -0.14182907601E+01  0.49001819090E+01  0.51100000000E-03 0. -1.
        -11    1    3    3    0    0 -0.12988966224E-01  0.25084155751E+00  0.47203745622E+00  0.53470535944E+00  0.51100000000E-03 0.  1.
        -12    1    3    3    0    0 -0.39605392670E+02  0.42964989962E+01  0.83694657727E+01  0.40707431625E+02  0.00000000000E+00 0.  1.
</event>
<event>
 7    1  0.1503436E-008  0.4614232E+02  0.7816164E-02  0.1320468E+00
        -11   -1    0    0    0    0  0.00000000000E+00  0.00000000000E+00  0.45593999997E+02  0.45594000000E+02  0.51100000000E-03 0.  1.
         11   -1    0    0    0    0 -0.00000000000E+00 -0.00000000000E+00 -0.45593999997E+02  0.45594000000E+02  0.51100000000E-03 0. -1.
    9900012    2    1    2    0    0  0.43390440681E+02 -0.87667181634E+00  0.12067088731E+02  0.46142317339E+02  0.99999961487E+01 0.  0.
         12    1    1    2    0    0 -0.43390440681E+02  0.87667181634E+00 -0.12067088731E+02  0.45045682661E+02  0.00000000000E+00 0. -1.
         11    1    3    3    0    0  0.17776597863E+02 -0.17088470020E+01  0.70381701854E+00  0.17872407458E+02  0.51100000000E-03 0. -1.
        -11    1    3    3    0    0  0.20948913860E+02  0.19706883722E+01  0.86109301001E+01  0.22735186871E+02  0.51100000000E-03 0.  1.
         12    1    3    3    0    0  0.46649289574E+01 -0.11385131865E+01  0.27523416124E+01  0.55347230106E+01  0.00000000000E+00 0. -1.
</event>
<event>
 7    1  0.1503436E-008  0.4614232E+02  0.7816164E-02  0.1320468E+00
        -11   -1    0    0    0    0  0.00000000000E+00  0.00000000000E+00  0.45593999997E+02  0.45594000000E+02  0.51100000000E-03 0. -1.
         11   -1    0    0    0    0 -0.00000000000E+00 -0.00000000000E+00 -0.45593999997E+02  0.45594000000E+02  0.51100000000E-03 0.  1.
    9900012    2    1    2    0    0  0.36828801312E+02  0.48870199343E+01 -0.25472924494E+02  0.46142318162E+02  0.10000003660E+02 0.  0.
         12    1    1    2    0    0 -0.36828801312E+02 -0.48870199343E+01  0.25472924494E+02  0.45045681838E+02  0.00000000000E+00 0. -1.
         11    1    3    3    0    0  0.11607800805E+01 -0.18795646234E+00 -0.39678773981E+01  0.41384525290E+01  0.51100000000E-03 0. -1.
        -11    1    3    3    0    0  0.23426000617E+02  0.34111037256E+01 -0.13033500756E+02  0.27023790921E+02  0.51100000000E-03 0.  1.
         12    1    3    3    0    0  0.12242020615E+02  0.16638726710E+01 -0.84715463394E+01  0.14980074712E+02  0.00000000000E+00 0. -1.
</event>
<event>
 7    1  0.1503436E-008  0.4614232E+02  0.7816164E-02  0.1320468E+00
        -11   -1    0    0    0    0  0.00000000000E+00  0.00000000000E+00  0.45593999997E+02  0.45594000000E+02  0.51100000000E-03 0.  1.
         11   -1    0    0    0    0 -0.00000000000E+00 -0.00000000000E+00 -0.45593999997E+02  0.45594000000E+02  0.51100000000E-03 0. -1.
    9900012    2    1    2    0    0 -0.14785919832E+02  0.24001470434E+02  0.35134303522E+02  0.46142319938E+02  0.10000019850E+02 0.  0.
         12    1    1    2    0    0  0.14785919832E+02 -0.24001470434E+02 -0.35134303522E+02  0.45045680062E+02  0.00000000000E+00 0. -1.
         11    1    3    3    0    0 -0.35703749235E+01  0.12837949828E+02  0.11720228996E+02  0.17746106639E+02  0.51100000000E-03 0. -1.
        -11    1    3    3    0    0 -0.94302916279E+01  0.78632084560E+01  0.18706977740E+02  0.22376582935E+02  0.51100000000E-03 0.  1.
        -12    1    3    3    0    0 -0.17852532807E+01  0.33003121510E+01  0.47070967853E+01  0.60196303638E+01  0.00000000000E+00 0.  1.
</event>
<event>
 7    1  0.1503436E-008  0.4614232E+02  0.7816164E-02  0.1320468E+00
        -11   -1    0    0    0    0  0.00000000000E+00  0.00000000000E+00  0.45593999997E+02  0.45594000000E+02  0.51100000000E-03 0.  1.
         11   -1    0    0    0    0 -0.00000000000E+00 -0.00000000000E+00 -0.45593999997E+02  0.45594000000E+02  0.51100000000E-03 0. -1.
    9900012    2    1    2    0    0  0.10883571600E+02  0.42130071387E+02  0.11649825118E+02  0.46142317953E+02  0.10000001747E+02 0.  0.
         12    1    1    2    0    0 -0.10883571600E+02 -0.42130071387E+02 -0.11649825118E+02  0.45045682047E+02  0.00000000000E+00 0. -1.
         11    1    3    3    0    0  0.65882668028E+00  0.79913708690E+01  0.34700264379E+01  0.87371130645E+01  0.51100000000E-03 0. -1.
        -11    1    3    3    0    0  0.48280599036E+01  0.12520147034E+02 -0.65707950982E+00  0.13434879900E+02  0.51100000000E-03 0.  1.
        -12    1    3    3    0    0  0.53966850158E+01  0.21618553484E+02  0.88368781899E+01  0.23970324988E+02  0.00000000000E+00 0.  1.
</event>
<event>
 7    1  0.1685727E-008  0.4614232E+02  0.7816164E-02  0.1320468E+00
        -11   -1    0    0    0    0  0.00000000000E+00  0.00000000000E+00  0.45593999997E+02  0.45594000000E+02  0.51100000000E-03 0.  1.
         11   -1    0    0    0    0 -0.00000000000E+00 -0.00000000000E+00 -0.45593999997E+02  0.45594000000E+02  0.51100000000E-03 0. -1.
    9900012    2    1    2    0    0  0.48824950555E+01 -0.38185726457E+02  0.23390704302E+02  0.46142317513E+02  0.99999977381E+01 0.  0.
         12    1    1    2    0    0 -0.48824950555E+01  0.38185726457E+02 -0.23390704302E+02  0.45045682487E+02  0.00000000000E+00 0. -1.
         11    1    3    3    0    0 -0.72093042210E+00 -0.20222640473E+01 -0.46437292805E+00  0.21965734743E+01  0.51100000000E-03 0. -1.
        -11    1    3    3    0    0  0.57091954931E+01 -0.35738694825E+02  0.22727716171E+02  0.42736381499E+02  0.51100000000E-03 0.  1.
        -12    1    3    3    0    0 -0.10577001550E+00 -0.42476758412E+00  0.11273610588E+01  0.12093625402E+01  0.00000000000E+00 0.  1.
</event>
<event>
 7    1  0.1503436E-008  0.4614232E+02  0.7816164E-02  0.1320468E+00
        -11   -1    0    0    0    0  0.00000000000E+00  0.00000000000E+00  0.45593999997E+02  0.45594000000E+02  0.51100000000E-03 0.  1.
         11   -1    0    0    0    0 -0.00000000000E+00 -0.00000000000E+00 -0.45593999997E+02  0.45594000000E+02  0.51100000000E-03 0. -1.
    9900012    2    1    2    0    0 -0.41034038582E+02  0.62350730835E+01  0.17505570727E+02  0.46142318019E+02  0.10000002351E+02 0.  0.
         12    1    1    2    0    0  0.41034038582E+02 -0.62350730835E+01 -0.17505570727E+02  0.45045681981E+02  0.00000000000E+00 0. -1.
         11    1    3    3    0    0 -0.16591516892E+01  0.12000122893E+01  0.74255788415E+00  0.21781198991E+01  0.51100000000E-03 0. -1.
        -11    1    3    3    0    0 -0.39466513520E+00  0.11879397352E+01  0.14298848563E+01  0.19004032064E+01  0.51100000000E-03 0.  1.
        -12    1    3    3    0    0 -0.38980221757E+02  0.38471210590E+01  0.15333127986E+02  0.42063794913E+02  0.00000000000E+00 0.  1.
</event>
<event>
 7    1  0.1503436E-008  0.4614232E+02  0.7816164E-02  0.1320468E+00
        -11   -1    0    0    0    0  0.00000000000E+00  0.00000000000E+00  0.45593999997E+02  0.45594000000E+02  0.51100000000E-03 0.  1.
         11   -1    0    0    0    0 -0.00000000000E+00 -0.00000000000E+00 -0.45593999997E+02  0.45594000000E+02  0.51100000000E-03 0. -1.
    9900012    2    1    2    0    0  0.28929947189E+02 -0.94991408581E+01  0.33195450587E+02  0.46142318064E+02  0.10000002761E+02 0.  0.
         12    1    1    2    0    0 -0.28929947189E+02  0.94991408581E+01 -0.33195450587E+02  0.45045681936E+02  0.00000000000E+00 0. -1.
         11    1    3    3    0    0  0.32970146130E+01 -0.35570249764E+01  0.30167449004E+01  0.57116969542E+01  0.51100000000E-03 0. -1.
        -11    1    3    3    0    0  0.25617392057E+02 -0.62122237739E+01  0.28867858897E+02  0.39092144704E+02  0.51100000000E-03 0.  1.
        -12    1    3    3    0    0  0.15540518666E-01  0.27010789216E+00  0.13108467898E+01  0.13384764053E+01  0.00000000000E+00 0.  1.
</event>
<event>
 7    1  0.1503436E-008  0.4614232E+02  0.7816164E-02  0.1320468E+00
        -11   -1    0    0    0    0  0.00000000000E+00  0.00000000000E+00  0.45593999997E+02  0.45594000000E+02  0.51100000000E-03 0. -1.
         11   -1    0    0    0    0 -0.00000000000E+00 -0.00000000000E+00 -0.45593999997E+02  0.45594000000E+02  0.51100000000E-03 0.  1.
    9900012    2    1    2    0    0 -0.19947912024E+02  0.33201509032E+02 -0.22996828718E+02  0.46142317330E+02  0.99999960644E+01 0.  0.
         12    1    1    2    0    0  0.19947912024E+02 -0.33201509032E+02  0.22996828718E+02  0.45045682670E+02  0.00000000000E+00 0. -1.
         11    1    3    3    0    0 -0.57704717238E+00  0.19848619655E+01  0.16355987388E+00  0.20735024849E+01  0.51100000000E-03 0. -1.
        -11    1    3    3    0    0 -0.79975074333E+01  0.11060797246E+02 -0.12801115926E+02  0.18712827955E+02  0.51100000000E-03 0.  1.
        -12    1    3    3    0    0 -0.11373357419E+02  0.20155849821E+02 -0.10359272666E+02  0.25355986889E+02  0.00000000000E+00 0.  1.
</event>
<event>
 7    1  0.1503436E-008  0.4614232E+02  0.7816164E-02  0.1320468E+00
        -11   -1    0    0    0    0  0.00000000000E+00  0.00000000000E+00  0.45593999997E+02  0.45594000000E+02  0.51100000000E-03 0.  1.
         11   -1    0    0    0    0 -0.00000000000E+00 -0.00000000000E+00 -0.45593999997E+02  0.45594000000E+02  0.51100000000E-03 0. -1.
    9900012    2    1    2    0    0 -0.42640001080E+02 -0.45794219412E+01  0.13783060057E+02  0.46142317166E+02  0.99999945751E+01 0.  0.
         12    1    1    2    0    0  0.42640001080E+02  0.45794219412E+01 -0.13783060057E+02  0.45045682834E+02  0.00000000000E+00 0. -1.
         11    1    3    3    0    0 -0.34128529875E+01  0.19308173535E+01  0.14467816399E+01  0.41795691813E+01  0.51100000000E-03 0. -1.
        -11    1    3    3    0    0 -0.21696762064E+02 -0.11958016276E+01  0.78401206970E+01  0.23100799086E+02  0.51100000000E-03 0.  1.
         12    1    3    3    0    0 -0.17530386029E+02 -0.53144376671E+01  0.44961577198E+01  0.18861948899E+02  0.00000000000E+00 0. -1.
</event>
<event>
 7    1  0.1503436E-008  0.4614232E+02  0.7816164E-02  0.1320468E+00
        -11   -1    0    0    0    0  0.00000000000E+00  0.00000000000E+00  0.45593999997E+02  0.45594000000E+02  0.51100000000E-03 0.  1.
         11   -1    0    0    0    0 -0.00000000000E+00 -0.00000000000E+00 -0.45593999997E+02  0.45594000000E+02  0.51100000000E-03 0. -1.
    9900012    2    1    2    0    0 -0.14241861652E+02 -0.39634100229E+01  0.42550843747E+02  0.46142317123E+02  0.99999941779E+01 0.  0.
         12    1    1    2    0    0  0.14241861652E+02  0.39634100229E+01 -0.42550843747E+02  0.45045682877E+02  0.00000000000E+00 0. -1.
         11    1    3    3    0    0 -0.31285901468E+00  0.12114723221E+01  0.10270151553E+02  0.10346089074E+02  0.51100000000E-03 0. -1.
        -11    1    3    3    0    0 -0.85490311060E+01 -0.48741989042E+01  0.17700289139E+02  0.20252011842E+02  0.51100000000E-03 0.  1.
         12    1    3    3    0    0 -0.53799715318E+01 -0.30068344078E+00  0.14580403055E+02  0.15544216206E+02  0.00000000000E+00 0. -1.
</event>
<event>
 7    1  0.1503436E-008  0.4614232E+02  0.7816164E-02  0.1320468E+00
        -11   -1    0    0    0    0  0.00000000000E+00  0.00000000000E+00  0.45593999997E+02  0.45594000000E+02  0.51100000000E-03 0. -1.
         11   -1    0    0    0    0 -0.00000000000E+00 -0.00000000000E+00 -0.45593999997E+02  0.45594000000E+02  0.51100000000E-03 0.  1.
    9900012    2    1    2    0    0  0.10909298815E+02 -0.43620090557E+02 -0.27181737349E+01  0.46142316863E+02  0.99999918137E+01 0.  0.
         12    1    1    2    0    0 -0.10909298815E+02  0.43620090557E+02  0.27181737349E+01  0.45045683137E+02  0.00000000000E+00 0. -1.
         11    1    3    3    0    0  0.37354769390E+01 -0.16983074128E+02  0.90283799049E+00  0.17412458514E+02  0.51100000000E-03 0. -1.
        -11    1    3    3    0    0  0.34386657594E+00 -0.74646636436E+00 -0.16958007620E+01  0.18844619233E+01  0.51100000000E-03 0.  1.
        -12    1    3    3    0    0  0.68299552999E+01 -0.25890550065E+02 -0.19252109634E+01  0.26845396427E+02  0.00000000000E+00 0.  1.
</event>
<event>
 7    1  0.1503436E-008  0.4614232E+02  0.7816164E-02  0.1320468E+00
        -11   -1    0    0    0    0  0.00000000000E+00  0.00000000000E+00  0.45593999997E+02  0.45594000000E+02  0.51100000000E-03 0.  1.
         11   -1    0    0    0    0 -0.00000000000E+00 -0.00000000000E+00 -0.45593999997E+02  0.45594000000E+02  0.51100000000E-03 0. -1.
    9900012    2    1    2    0    0  0.21711855625E+02  0.29695499339E+02  0.25997809249E+02  0.46142318282E+02  0.10000004748E+02 0.  0.
         12    1    1    2    0    0 -0.21711855625E+02 -0.29695499339E+02 -0.25997809249E+02  0.45045681718E+02  0.00000000000E+00 0. -1.
         11    1    3    3    0    0  0.48592084726E+01  0.67972870782E+01  0.69820600191E+01  0.10888718059E+02  0.51100000000E-03 0. -1.
        -11    1    3    3    0    0  0.87360527772E+01  0.57656072494E+01  0.45807919153E+01  0.11425607201E+02  0.51100000000E-03 0.  1.
        -12    1    3    3    0    0  0.81165943751E+01  0.17132605012E+02  0.14434957315E+02  0.23827993021E+02  0.00000000000E+00 0.  1.
</event>
<event>
 7    1  0.1503436E-008  0.4614232E+02  0.7816164E-02  0.1320468E+00
        -11   -1    0    0    0    0  0.00000000000E+00  0.00000000000E+00  0.45593999997E+02  0.45594000000E+02  0.51100000000E-03 0.  1.
         11   -1    0    0    0    0 -0.00000000000E+00 -0.00000000000E+00 -0.45593999997E+02  0.45594000000E+02  0.51100000000E-03 0. -1.
    9900012    2    1    2    0    0  0.33989250051E+02  0.29445368128E+02  0.26104648522E+01  0.46142319297E+02  0.10000014009E+02 0.  0.
         12    1    1    2    0    0 -0.33989250051E+02 -0.29445368128E+02 -0.26104648522E+01  0.45045680703E+02  0.00000000000E+00 0. -1.
         11    1    3    3    0    0  0.22068058703E+02  0.24284028465E+02  0.22535827343E+01  0.32890604871E+02  0.51100000000E-03 0. -1.
        -11    1    3    3    0    0  0.85645580674E+01  0.37803988092E+01  0.14217526206E+01  0.94691314713E+01  0.51100000000E-03 0.  1.
         12    1    3    3    0    0  0.33566332807E+01  0.13809408545E+01 -0.10648705027E+01  0.37825829551E+01  0.00000000000E+00 0. -1.
</event>
<event>
 7    1  0.1503436E-008  0.4614232E+02  0.7816164E-02  0.1320468E+00
        -11   -1    0    0    0    0  0.00000000000E+00  0.00000000000E+00  0.45593999997E+02  0.45594000000E+02  0.51100000000E-03 0.  1.
         11   -1    0    0    0    0 -0.00000000000E+00 -0.00000000000E+00 -0.45593999997E+02  0.45594000000E+02  0.51100000000E-03 0. -1.
    9900012    2    1    2    0    0  0.13178085605E+02 -0.15422080679E+02  0.40219534409E+02  0.46142318067E+02  0.10000002792E+02 0.  0.
         12    1    1    2    0    0 -0.13178085605E+02  0.15422080679E+02 -0.40219534409E+02  0.45045681933E+02  0.00000000000E+00 0. -1.
         11    1    3    3    0    0  0.59669834697E+01 -0.72397833073E+01  0.23013996388E+02  0.24852834528E+02  0.51100000000E-03 0. -1.
        -11    1    3    3    0    0  0.62022620940E+01 -0.27511667881E+01  0.74359032764E+01  0.10066262046E+02  0.51100000000E-03 0.  1.
        -12    1    3    3    0    0  0.10088400412E+01 -0.54311305836E+01  0.97696347451E+01  0.11223221494E+02  0.00000000000E+00 0.  1.
</event>
<event>
 7    1  0.1503436E-008  0.4614231E+02  0.7816164E-02  0.1320468E+00
        -11   -1    0    0    0    0  0.00000000000E+00  0.00000000000E+00  0.45593999997E+02  0.45594000000E+02  0.51100000000E-03 0. -1.
         11   -1    0    0    0    0 -0.00000000000E+00 -0.00000000000E+00 -0.45593999997E+02  0.45594000000E+02  0.51100000000E-03 0.  1.
    9900012    2    1    2    0    0  0.40192561643E+02 -0.89825019986E+01 -0.18247921042E+02  0.46142312349E+02  0.99999506523E+01 0.  0.
         12    1    1    2    0    0 -0.40192561643E+02  0.89825019986E+01  0.18247921042E+02  0.45045687651E+02  0.00000000000E+00 0. -1.
         11    1    3    3    0    0  0.14341158581E+02 -0.46254082625E+01 -0.31671354286E+01  0.15397856284E+02  0.51100000000E-03 0. -1.
        -11    1    3    3    0    0  0.23947130179E+01  0.11938912908E+01 -0.17792536484E+01  0.32133737191E+01  0.51100000000E-03 0.  1.
        -12    1    3    3    0    0  0.23456690043E+02 -0.55509850268E+01 -0.13301531965E+02  0.27531082347E+02  0.00000000000E+00 0.  1.
</event>
<event>
 7    1  0.1503436E-008  0.4614232E+02  0.7816164E-02  0.1320468E+00
        -11   -1    0    0    0    0  0.00000000000E+00  0.00000000000E+00  0.45593999997E+02  0.45594000000E+02  0.51100000000E-03 0. -1.
         11   -1    0    0    0    0 -0.00000000000E+00 -0.00000000000E+00 -0.45593999997E+02  0.45594000000E+02  0.51100000000E-03 0.  1.
    9900012    2    1    2    0    0 -0.25614433445E+02  0.25337003701E+02 -0.27037949900E+02  0.46142315500E+02  0.99999793852E+01 0.  0.
         12    1    1    2    0    0  0.25614433445E+02 -0.25337003701E+02  0.27037949900E+02  0.45045684500E+02  0.00000000000E+00 0. -1.
         11    1    3    3    0    0 -0.56007373225E+01  0.92057650709E+01 -0.45818851127E+01  0.11709314264E+02  0.51100000000E-03 0. -1.
        -11    1    3    3    0    0 -0.12575599749E+02  0.11769111942E+02 -0.12619454698E+02  0.21352010258E+02  0.51100000000E-03 0.  1.
        -12    1    3    3    0    0 -0.74380963732E+01  0.43621266886E+01 -0.98366100896E+01  0.13080990978E+02  0.00000000000E+00 0.  1.
</event>
<event>
 7    1  0.1503436E-008  0.4614232E+02  0.7816164E-02  0.1320468E+00
        -11   -1    0    0    0    0  0.00000000000E+00  0.00000000000E+00  0.45593999997E+02  0.45594000000E+02  0.51100000000E-03 0.  1.
         11   -1    0    0    0    0 -0.00000000000E+00 -0.00000000000E+00 -0.45593999997E+02  0.45594000000E+02  0.51100000000E-03 0. -1.
    9900012    2    1    2    0    0  0.54236166507E+01 -0.42217258482E+02  0.14744518377E+02  0.46142319258E+02  0.10000013649E+02 0.  0.
         12    1    1    2    0    0 -0.54236166507E+01  0.42217258482E+02 -0.14744518377E+02  0.45045680742E+02  0.00000000000E+00 0. -1.
         11    1    3    3    0    0 -0.27499004788E+01 -0.10427701203E+02  0.37227098452E+01  0.11408657847E+02  0.51100000000E-03 0. -1.
        -11    1    3    3    0    0  0.31591085196E+01 -0.10814226803E+02  0.51151193924E+01  0.12373031748E+02  0.51100000000E-03 0.  1.
         12    1    3    3    0    0  0.50144086100E+01 -0.20975330477E+02  0.59066891396E+01  0.22360629663E+02  0.00000000000E+00 0. -1.
</event>
<event>
 7    1  0.1503436E-008  0.4614232E+02  0.7816164E-02  0.1320468E+00
        -11   -1    0    0    0    0  0.00000000000E+00  0.00000000000E+00  0.45593999997E+02  0.45594000000E+02  0.51100000000E-03 0.  1.
         11   -1    0    0    0    0 -0.00000000000E+00 -0.00000000000E+00 -0.45593999997E+02  0.45594000000E+02  0.51100000000E-03 0. -1.
    9900012    2    1    2    0    0  0.28878742630E+02  0.15507863967E+02  0.30897213422E+02  0.46142318543E+02  0.10000007127E+02 0.  0.
         12    1    1    2    0    0 -0.28878742630E+02 -0.15507863967E+02 -0.30897213422E+02  0.45045681457E+02  0.00000000000E+00 0. -1.
         11    1    3    3    0    0  0.10430780760E+02  0.92191584557E+01  0.86987237281E+01  0.16415293620E+02  0.51100000000E-03 0. -1.
        -11    1    3    3    0    0  0.16924306269E+02  0.63475665079E+01  0.19241092717E+02  0.26399685462E+02  0.51100000000E-03 0.  1.
         12    1    3    3    0    0  0.15236556014E+01 -0.58860996780E-01  0.29573969765E+01  0.33273394605E+01  0.00000000000E+00 0. -1.
</event>
<event>
 7    1  0.1503436E-008  0.4614232E+02  0.7816164E-02  0.1320468E+00
        -11   -1    0    0    0    0  0.00000000000E+00  0.00000000000E+00  0.45593999997E+02  0.45594000000E+02  0.51100000000E-03 0.  1.
         11   -1    0    0    0    0 -0.00000000000E+00 -0.00000000000E+00 -0.45593999997E+02  0.45594000000E+02  0.51100000000E-03 0. -1.
    9900012    2    1    2    0    0  0.83764577317E+01  0.17718436637E+02  0.40558666857E+02  0.46142317652E+02  0.99999990070E+01 0.  0.
         12    1    1    2    0    0 -0.83764577317E+01 -0.17718436637E+02 -0.40558666857E+02  0.45045682348E+02  0.00000000000E+00 0. -1.
         11    1    3    3    0    0  0.14967637638E+01  0.44290909942E+01  0.40574472663E+01  0.61903172276E+01  0.51100000000E-03 0. -1.
        -11    1    3    3    0    0  0.59532483812E+01  0.66535361687E+01  0.26049951615E+02  0.27537441588E+02  0.51100000000E-03 0.  1.
        -12    1    3    3    0    0  0.92644558675E+00  0.66358094739E+01  0.10451267976E+02  0.12414558836E+02  0.00000000000E+00 0.  1.
</event>
<event>
 7    1  0.1503436E-008  0.4614232E+02  0.7816164E-02  0.1320468E+00
        -11   -1    0    0    0    0  0.00000000000E+00  0.00000000000E+00  0.45593999997E+02  0.45594000000E+02  0.51100000000E-03 0. -1.
         11   -1    0    0    0    0 -0.00000000000E+00 -0.00000000000E+00 -0.45593999997E+02  0.45594000000E+02  0.51100000000E-03 0.  1.
    9900012    2    1    2    0    0  0.20883075491E+02 -0.20510995405E+02 -0.34239008016E+02  0.46142318249E+02  0.10000004449E+02 0.  0.
         12    1    1    2    0    0 -0.20883075491E+02  0.20510995405E+02  0.34239008016E+02  0.45045681751E+02  0.00000000000E+00 0. -1.
         11    1    3    3    0    0  0.81517609695E-01 -0.22020687645E+01 -0.62798155254E+01  0.66552111355E+01  0.51100000000E-03 0. -1.
        -11    1    3    3    0    0  0.45851272499E+01 -0.32691725365E+01 -0.73230685687E+01  0.92378685038E+01  0.51100000000E-03 0.  1.
         12    1    3    3    0    0  0.16216430631E+02 -0.15039754104E+02 -0.20636123922E+02  0.30249238610E+02  0.00000000000E+00 0. -1.
</event>
<event>
 7    1  0.1503436E-008  0.4614232E+02  0.7816164E-02  0.1320468E+00
        -11   -1    0    0    0    0  0.00000000000E+00  0.00000000000E+00  0.45593999997E+02  0.45594000000E+02  0.51100000000E-03 0.  1.
         11   -1    0    0    0    0 -0.00000000000E+00 -0.00000000000E+00 -0.45593999997E+02  0.45594000000E+02  0.51100000000E-03 0. -1.
    9900012    2    1    2    0    0 -0.29628929984E+02 -0.18232062708E+02  0.28615238750E+02  0.46142317728E+02  0.99999996996E+01 0.  0.
         12    1    1    2    0    0  0.29628929984E+02  0.18232062708E+02 -0.28615238750E+02  0.45045682272E+02  0.00000000000E+00 0. -1.
         11    1    3    3    0    0 -0.73058012292E+01 -0.90781743257E+01  0.11917367014E+02  0.16667681827E+02  0.51100000000E-03 0. -1.
        -11    1    3    3    0    0 -0.11237787330E+02 -0.57312991150E+01  0.98291620730E+01  0.15992125592E+02  0.51100000000E-03 0.  1.
         12    1    3    3    0    0 -0.11085341425E+02 -0.34225892672E+01  0.68687096637E+01  0.13482510310E+02  0.00000000000E+00 0. -1.
</event>
<event>
 7    1  0.1503436E-008  0.4614232E+02  0.7816164E-02  0.1320468E+00
        -11   -1    0    0    0    0  0.00000000000E+00  0.00000000000E+00  0.45593999997E+02  0.45594000000E+02  0.51100000000E-03 0.  1.
         11   -1    0    0    0    0 -0.00000000000E+00 -0.00000000000E+00 -0.45593999997E+02  0.45594000000E+02  0.51100000000E-03 0. -1.
    9900012    2    1    2    0    0 -0.12163915944E+02 -0.30154356609E+02  0.31174787712E+02  0.46142318049E+02  0.10000002621E+02 0.  0.
         12    1    1    2    0    0  0.12163915944E+02  0.30154356609E+02 -0.31174787712E+02  0.45045681951E+02  0.00000000000E+00 0. -1.
         11    1    3    3    0    0 -0.89766904230E+00  0.44042274298E+00  0.53992320650E+00  0.11363534803E+01  0.51100000000E-03 0. -1.
        -11    1    3    3    0    0 -0.73231953641E+01 -0.21809134863E+02  0.18545798117E+02  0.29550197662E+02  0.51100000000E-03 0.  1.
        -12    1    3    3    0    0 -0.39430515372E+01 -0.87856444894E+01  0.12089066389E+02  0.15455766907E+02  0.00000000000E+00 0.  1.
</event>
<event>
 7    1  0.1503436E-008  0.4614232E+02  0.7816164E-02  0.1320468E+00
        -11   -1    0    0    0    0  0.00000000000E+00  0.00000000000E+00  0.45593999997E+02  0.45594000000E+02  0.51100000000E-03 0.  1.
         11   -1    0    0    0    0 -0.00000000000E+00 -0.00000000000E+00 -0.45593999997E+02  0.45594000000E+02  0.51100000000E-03 0. -1.
    9900012    2    1    2    0    0  0.36262877637E+02  0.22619534176E+02 -0.14229328374E+02  0.46142318666E+02  0.10000008253E+02 0.  0.
         12    1    1    2    0    0 -0.36262877637E+02 -0.22619534176E+02  0.14229328374E+02  0.45045681334E+02  0.00000000000E+00 0. -1.
         11    1    3    3    0    0  0.14917740100E+02  0.67712592908E+01 -0.87666554165E+01  0.18580720372E+02  0.51100000000E-03 0. -1.
        -11    1    3    3    0    0  0.20136602429E+02  0.13131127084E+02 -0.49454351291E+01  0.24543157596E+02  0.51100000000E-03 0.  1.
        -12    1    3    3    0    0  0.12085351070E+01  0.27171478012E+01 -0.51723782879E+00  0.30184406985E+01  0.00000000000E+00 0.  1.
</event>
<event>
 7    1  0.1503436E-008  0.4614232E+02  0.7816164E-02  0.1320468E+00
        -11   -1    0    0    0    0  0.00000000000E+00  0.00000000000E+00  0.45593999997E+02  0.45594000000E+02  0.51100000000E-03 0. -1.
         11   -1    0    0    0    0 -0.00000000000E+00 -0.00000000000E+00 -0.45593999997E+02  0.45594000000E+02  0.51100000000E-03 0.  1.
    9900012    2    1    2    0    0 -0.40425676558E+02  0.15098285343E+02 -0.12919751980E+02  0.46142317224E+02  0.99999951044E+01 0.  0.
         12    1    1    2    0    0  0.40425676558E+02 -0.15098285343E+02  0.12919751980E+02  0.45045682776E+02  0.00000000000E+00 0. -1.
         11    1    3    3    0    0 -0.10003985435E+02  0.16613202912E+01 -0.12905720403E+01  0.10222782700E+02  0.51100000000E-03 0.  1.
        -11    1    3    3    0    0 -0.94094214880E+01  0.62879285931E+01 -0.11511648208E+01  0.11375431396E+02  0.51100000000E-03 0. -1.
        -12    1    3    3    0    0 -0.21012269636E+02  0.71490364590E+01 -0.10478015119E+02  0.24544103128E+02  0.00000000000E+00 0.  1.
</event>
<event>
 7    1  0.1503436E-008  0.4614232E+02  0.7816164E-02  0.1320468E+00
        -11   -1    0    0    0    0  0.00000000000E+00  0.00000000000E+00  0.45593999997E+02  0.45594000000E+02  0.51100000000E-03 0.  1.
         11   -1    0    0    0    0 -0.00000000000E+00 -0.00000000000E+00 -0.45593999997E+02  0.45594000000E+02  0.51100000000E-03 0. -1.
    9900012    2    1    2    0    0  0.11140723759E+01  0.11610634165E+02  0.43509372043E+02  0.46142318314E+02  0.10000005045E+02 0.  0.
         12    1    1    2    0    0 -0.11140723759E+01 -0.11610634165E+02 -0.43509372043E+02  0.45045681686E+02  0.00000000000E+00 0. -1.
         11    1    3    3    0    0  0.21108899528E+01  0.22636785301E+01  0.14062546095E+02  0.14399142329E+02  0.51100000000E-03 0. -1.
        -11    1    3    3    0    0  0.16710691859E+00  0.14427067966E+01  0.25095797708E+00  0.14738750933E+01  0.51100000000E-03 0.  1.
        -12    1    3    3    0    0 -0.11639244955E+01  0.79042488380E+01  0.29195867971E+02  0.30269300892E+02  0.00000000000E+00 0.  1.
</event>
<event>
 7    1  0.1503436E-008  0.4614232E+02  0.7816164E-02  0.1320468E+00
        -11   -1    0    0    0    0  0.00000000000E+00  0.00000000000E+00  0.45593999997E+02  0.45594000000E+02  0.51100000000E-03 0.  1.
         11   -1    0    0    0    0 -0.00000000000E+00 -0.00000000000E+00 -0.45593999997E+02  0.45594000000E+02  0.51100000000E-03 0. -1.
    9900012    2    1    2    0    0 -0.22005624757E+02  0.42340657399E+01  0.39076062326E+02  0.46142317848E+02  0.10000000795E+02 0.  0.
         12    1    1    2    0    0  0.22005624757E+02 -0.42340657399E+01 -0.39076062326E+02  0.45045682152E+02  0.00000000000E+00 0. -1.
         11    1    3    3    0    0 -0.14215976834E+02  0.20500939047E+01  0.25444900392E+02  0.29218826783E+02  0.51100000000E-03 0.  1.
        -11    1    3    3    0    0  0.13101141912E+00  0.17596869587E+01  0.44694288034E+01  0.48051489336E+01  0.51100000000E-03 0. -1.
         12    1    3    3    0    0 -0.79206593420E+01  0.42428487645E+00  0.91617331307E+01  0.12118342132E+02  0.00000000000E+00 0. -1.
</event>
<event>
 7    1  0.1503436E-008  0.4614232E+02  0.7816164E-02  0.1320468E+00
        -11   -1    0    0    0    0  0.00000000000E+00  0.00000000000E+00  0.45593999997E+02  0.45594000000E+02  0.51100000000E-03 0.  1.
         11   -1    0    0    0    0 -0.00000000000E+00 -0.00000000000E+00 -0.45593999997E+02  0.45594000000E+02  0.51100000000E-03 0. -1.
    9900012    2    1    2    0    0 -0.37443392784E+02 -0.18349059061E+02  0.17041653000E+02  0.46142316871E+02  0.99999918805E+01 0.  0.
         12    1    1    2    0    0  0.37443392784E+02  0.18349059061E+02 -0.17041653000E+02  0.45045683129E+02  0.00000000000E+00 0. -1.
         11    1    3    3    0    0 -0.11752301901E+02 -0.84590736464E+01  0.28043243305E+01  0.14749127504E+02  0.51100000000E-03 0. -1.
        -11    1    3    3    0    0 -0.18778329766E+01 -0.15158932918E+01  0.23302617006E-02  0.24133368707E+01  0.51100000000E-03 0.  1.
         12    1    3    3    0    0 -0.23813257907E+02 -0.83740921231E+01  0.14234998407E+02  0.28979852496E+02  0.00000000000E+00 0. -1.
</event>
<event>
 7    1  0.1503436E-008  0.4614232E+02  0.7816164E-02  0.1320468E+00
        -11   -1    0    0    0    0  0.00000000000E+00  0.00000000000E+00  0.45593999997E+02  0.45594000000E+02  0.51100000000E-03 0. -1.
         11   -1    0    0    0    0 -0.00000000000E+00 -0.00000000000E+00 -0.45593999997E+02  0.45594000000E+02  0.51100000000E-03 0.  1.
    9900012    2    1    2    0    0  0.31776460979E+02 -0.30380787971E+02 -0.98172183476E+01  0.46142317341E+02  0.99999961698E+01 0.  0.
         12    1    1    2    0    0 -0.31776460979E+02  0.30380787971E+02  0.98172183476E+01  0.45045682659E+02  0.00000000000E+00 0. -1.
         11    1    3    3    0    0  0.35419790772E+01 -0.80064945869E+01 -0.90547917681E-03  0.87549741538E+01  0.51100000000E-03 0. -1.
        -11    1    3    3    0    0  0.16144050364E+02 -0.11632415007E+02 -0.57025990668E+01  0.20699349686E+02  0.51100000000E-03 0.  1.
         12    1    3    3    0    0  0.12090431538E+02 -0.10741878378E+02 -0.41137138015E+01  0.16687993501E+02  0.00000000000E+00 0. -1.
</event>
<event>
 7    1  0.1503436E-008  0.4614232E+02  0.7816164E-02  0.1320468E+00
        -11   -1    0    0    0    0  0.00000000000E+00  0.00000000000E+00  0.45593999997E+02  0.45594000000E+02  0.51100000000E-03 0.  1.
         11   -1    0    0    0    0 -0.00000000000E+00 -0.00000000000E+00 -0.45593999997E+02  0.45594000000E+02  0.51100000000E-03 0. -1.
    9900012    2    1    2    0    0  0.12271011791E+02  0.10930813218E+01  0.43328292525E+02  0.46142317740E+02  0.99999998092E+01 0.  0.
         12    1    1    2    0    0 -0.12271011791E+02 -0.10930813218E+01 -0.43328292525E+02  0.45045682260E+02  0.00000000000E+00 0. -1.
         11    1    3    3    0    0  0.48352664521E+01  0.88641140900E+00  0.53669316819E+01  0.72780136567E+01  0.51100000000E-03 0. -1.
        -11    1    3    3    0    0  0.70131300397E+01  0.13053501084E+01  0.31630876955E+02  0.32425303531E+02  0.51100000000E-03 0.  1.
        -12    1    3    3    0    0  0.42261529895E+00 -0.10986801956E+01  0.63304838877E+01  0.64390005525E+01  0.00000000000E+00 0.  1.
</event>
<event>
 7    1  0.1503436E-008  0.4614232E+02  0.7816164E-02  0.1320468E+00
        -11   -1    0    0    0    0  0.00000000000E+00  0.00000000000E+00  0.45593999997E+02  0.45594000000E+02  0.51100000000E-03 0.  1.
         11   -1    0    0    0    0 -0.00000000000E+00 -0.00000000000E+00 -0.45593999997E+02  0.45594000000E+02  0.51100000000E-03 0. -1.
    9900012    2    1    2    0    0 -0.11127774529E+02  0.43578070169E+02 -0.24975658138E+01  0.46142318736E+02  0.10000008885E+02 0.  0.
         12    1    1    2    0    0  0.11127774529E+02 -0.43578070169E+02  0.24975658138E+01  0.45045681264E+02  0.00000000000E+00 0. -1.
         11    1    3    3    0    0 -0.70330684321E+01  0.21115033901E+02  0.18304452069E+01  0.22330679303E+02  0.51100000000E-03 0. -1.
        -11    1    3    3    0    0  0.63315644323E+00  0.51254078069E+01  0.54205095846E+00  0.51927364434E+01  0.51100000000E-03 0.  1.
        -12    1    3    3    0    0 -0.47278625402E+01  0.17337628461E+02 -0.48700619792E+01  0.18618902990E+02  0.00000000000E+00 0.  1.
</event>
<event>
 7    1  0.1503436E-008  0.4614231E+02  0.7816164E-02  0.1320468E+00
        -11   -1    0    0    0    0  0.00000000000E+00  0.00000000000E+00  0.45593999997E+02  0.45594000000E+02  0.51100000000E-03 0. -1.
         11   -1    0    0    0    0 -0.00000000000E+00 -0.00000000000E+00 -0.45593999997E+02  0.45594000000E+02  0.51100000000E-03 0.  1.
    9900012    2    1    2    0    0  0.17304238397E+02 -0.40854942532E+02  0.77814816403E+01  0.46142307061E+02  0.99999024311E+01 0.  0.
         12    1    1    2    0    0 -0.17304238397E+02  0.40854942532E+02 -0.77814816403E+01  0.45045692939E+02  0.00000000000E+00 0. -1.
         11    1    3    3    0    0  0.66611068014E+00 -0.94646429049E-01  0.36079545662E-01  0.67376804574E+00  0.51100000000E-03 0. -1.
        -11    1    3    3    0    0 -0.87195287064E-01 -0.57155098387E+01  0.26628480753E+01  0.63059825458E+01  0.51100000000E-03 0.  1.
        -12    1    3    3    0    0  0.16725323004E+02 -0.35044786264E+02  0.50825540193E+01  0.39162556470E+02  0.00000000000E+00 0.  1.
</event>
<event>
 7    1  0.1503436E-008  0.4614232E+02  0.7816164E-02  0.1320468E+00
        -11   -1    0    0    0    0  0.00000000000E+00  0.00000000000E+00  0.45593999997E+02  0.45594000000E+02  0.51100000000E-03 0.  1.
         11   -1    0    0    0    0 -0.00000000000E+00 -0.00000000000E+00 -0.45593999997E+02  0.45594000000E+02  0.51100000000E-03 0. -1.
    9900012    2    1    2    0    0  0.27230168619E+01  0.72974006718E+01  0.44367176174E+02  0.46142320973E+02  0.10000029286E+02 0.  0.
         12    1    1    2    0    0 -0.27230168619E+01 -0.72974006718E+01 -0.44367176174E+02  0.45045679027E+02  0.00000000000E+00 0. -1.
         11    1    3    3    0    0  0.52724459666E+01  0.50611195201E+00  0.15919545855E+02  0.16777567651E+02  0.51100000000E-03 0. -1.
        -11    1    3    3    0    0 -0.21100533158E+01  0.59550625406E+01  0.23975344154E+02  0.24793794030E+02  0.51100000000E-03 0.  1.
         12    1    3    3    0    0 -0.43937578889E+00  0.83622617921E+00  0.44722861650E+01  0.45709592919E+01  0.00000000000E+00 0. -1.
</event>
<event>
 7    1  0.1503436E-008  0.4614232E+02  0.7816164E-02  0.1320468E+00
        -11   -1    0    0    0    0  0.00000000000E+00  0.00000000000E+00  0.45593999997E+02  0.45594000000E+02  0.51100000000E-03 0. -1.
         11   -1    0    0    0    0 -0.00000000000E+00 -0.00000000000E+00 -0.45593999997E+02  0.45594000000E+02  0.51100000000E-03 0.  1.
    9900012    2    1    2    0    0  0.28646551943E+01  0.42129838877E+02 -0.15683874184E+02  0.46142317825E+02  0.10000000586E+02 0.  0.
         12    1    1    2    0    0 -0.28646551943E+01 -0.42129838877E+02  0.15683874184E+02  0.45045682175E+02  0.00000000000E+00 0. -1.
         11    1    3    3    0    0 -0.22572429607E+01  0.85912166087E+01 -0.57214348266E+01  0.10565934191E+02  0.51100000000E-03 0. -1.
        -11    1    3    3    0    0  0.54674277320E+01  0.25773543371E+02 -0.83455375330E+01  0.27637226722E+02  0.51100000000E-03 0.  1.
         12    1    3    3    0    0 -0.34552957700E+00  0.77650788969E+01 -0.16169018248E+01  0.79391569121E+01  0.00000000000E+00 0. -1.
</event>
<event>
 7    1  0.1503436E-008  0.4614232E+02  0.7816164E-02  0.1320468E+00
        -11   -1    0    0    0    0  0.00000000000E+00  0.00000000000E+00  0.45593999997E+02  0.45594000000E+02  0.51100000000E-03 0.  1.
         11   -1    0    0    0    0 -0.00000000000E+00 -0.00000000000E+00 -0.45593999997E+02  0.45594000000E+02  0.51100000000E-03 0. -1.
    9900012    2    1    2    0    0 -0.37211546884E+02 -0.32961076652E+00  0.25383175255E+02  0.46142318178E+02  0.10000003805E+02 0.  0.
         12    1    1    2    0    0  0.37211546884E+02  0.32961076652E+00 -0.25383175255E+02  0.45045681822E+02  0.00000000000E+00 0. -1.
         11    1    3    3    0    0 -0.16317514064E+02  0.16559434477E+01  0.64978690950E+01  0.17641590546E+02  0.51100000000E-03 0. -1.
        -11    1    3    3    0    0 -0.14522461064E+01  0.81169433609E+00  0.19744115762E+01  0.25818922871E+01  0.51100000000E-03 0.  1.
         12    1    3    3    0    0 -0.19441786713E+02 -0.27972485503E+01  0.16910894583E+02  0.25918835346E+02  0.00000000000E+00 0. -1.
</event>
<event>
 7    1  0.1503436E-008  0.4614232E+02  0.7816164E-02  0.1320468E+00
        -11   -1    0    0    0    0  0.00000000000E+00  0.00000000000E+00  0.45593999997E+02  0.45594000000E+02  0.51100000000E-03 0.  1.
         11   -1    0    0    0    0 -0.00000000000E+00 -0.00000000000E+00 -0.45593999997E+02  0.45594000000E+02  0.51100000000E-03 0. -1.
    9900012    2    1    2    0    0  0.19984491743E+02 -0.40184488132E+02  0.38652880811E+01  0.46142318202E+02  0.10000004022E+02 0.  0.
         12    1    1    2    0    0 -0.19984491743E+02  0.40184488132E+02 -0.38652880811E+01  0.45045681798E+02  0.00000000000E+00 0. -1.
         11    1    3    3    0    0  0.61207446195E+01 -0.18498391832E+02 -0.74146076949E-02  0.19484713760E+02  0.51100000000E-03 0. -1.
        -11    1    3    3    0    0  0.12829028613E+02 -0.17993883835E+02  0.50066274687E+01  0.22658997098E+02  0.51100000000E-03 0.  1.
        -12    1    3    3    0    0  0.10347185103E+01 -0.36922124650E+01 -0.11339247800E+01  0.39986073437E+01  0.00000000000E+00 0.  1.
</event>
<event>
 7    1  0.1503436E-008  0.4614232E+02  0.7816164E-02  0.1320468E+00
        -11   -1    0    0    0    0  0.00000000000E+00  0.00000000000E+00  0.45593999997E+02  0.45594000000E+02  0.51100000000E-03 0. -1.
         11   -1    0    0    0    0 -0.00000000000E+00 -0.00000000000E+00 -0.45593999997E+02  0.45594000000E+02  0.51100000000E-03 0.  1.
    9900012    2    1    2    0    0 -0.26539823244E+02 -0.21137428731E+01 -0.36335704435E+02  0.46142317148E+02  0.99999944125E+01 0.  0.
         12    1    1    2    0    0  0.26539823244E+02  0.21137428731E+01  0.36335704435E+02  0.45045682852E+02  0.00000000000E+00 0. -1.
         11    1    3    3    0    0 -0.92523495358E+01 -0.16906744542E+01 -0.18065230361E+02  0.20367054286E+02  0.51100000000E-03 0. -1.
        -11    1    3    3    0    0 -0.83731783819E+01 -0.16640963180E+01 -0.12309107232E+02  0.14979768152E+02  0.51100000000E-03 0.  1.
         12    1    3    3    0    0 -0.89142953263E+01  0.12410278991E+01 -0.59613668422E+01  0.10795494710E+02  0.00000000000E+00 0. -1.
</event>
<event>
 7    1  0.1503436E-008  0.4614232E+02  0.7816164E-02  0.1320468E+00
        -11   -1    0    0    0    0  0.00000000000E+00  0.00000000000E+00  0.45593999997E+02  0.45594000000E+02  0.51100000000E-03 0.  1.
         11   -1    0    0    0    0 -0.00000000000E+00 -0.00000000000E+00 -0.45593999997E+02  0.45594000000E+02  0.51100000000E-03 0. -1.
    9900012    2    1    2    0    0  0.15311875549E+01 -0.40745412917E+02 -0.19146282347E+02  0.46142319443E+02  0.10000015336E+02 0.  0.
         12    1    1    2    0    0 -0.15311875549E+01  0.40745412917E+02  0.19146282347E+02  0.45045680557E+02  0.00000000000E+00 0. -1.
         11    1    3    3    0    0  0.22539772510E-02 -0.23076148101E+01  0.20877100799E+00  0.23170405234E+01  0.51100000000E-03 0. -1.
        -11    1    3    3    0    0  0.48529576060E+01 -0.20126737038E+02 -0.98164815851E+01  0.22912879616E+02  0.51100000000E-03 0.  1.
        -12    1    3    3    0    0 -0.33240240283E+01 -0.18311061070E+02 -0.95385717698E+01  0.20912399304E+02  0.00000000000E+00 0.  1.
</event>
<event>
 7    1  0.1503436E-008  0.4614232E+02  0.7816164E-02  0.1320468E+00
        -11   -1    0    0    0    0  0.00000000000E+00  0.00000000000E+00  0.45593999997E+02  0.45594000000E+02  0.51100000000E-03 0.  1.
         11   -1    0    0    0    0 -0.00000000000E+00 -0.00000000000E+00 -0.45593999997E+02  0.45594000000E+02  0.51100000000E-03 0. -1.
    9900012    2    1    2    0    0  0.34806713065E+01 -0.27374697673E+02  0.35603712357E+02  0.46142317865E+02  0.10000000945E+02 0.  0.
         12    1    1    2    0    0 -0.34806713065E+01  0.27374697673E+02 -0.35603712357E+02  0.45045682135E+02  0.00000000000E+00 0. -1.
         11    1    3    3    0    0 -0.14779578470E+01 -0.77582043886E+01  0.64494036658E+01  0.10196514240E+02  0.51100000000E-03 0. -1.
        -11    1    3    3    0    0  0.26909917023E+01 -0.17658387744E+02  0.26406709358E+02  0.31880627243E+02  0.51100000000E-03 0.  1.
         12    1    3    3    0    0  0.22676374513E+01 -0.19581055407E+01  0.27475993331E+01  0.40651763817E+01  0.00000000000E+00 0. -1.
</event>
<event>
 7    1  0.1503436E-008  0.4614232E+02  0.7816164E-02  0.1320468E+00
        -11   -1    0    0    0    0  0.00000000000E+00  0.00000000000E+00  0.45593999997E+02  0.45594000000E+02  0.51100000000E-03 0.  1.
         11   -1    0    0    0    0 -0.00000000000E+00 -0.00000000000E+00 -0.45593999997E+02  0.45594000000E+02  0.51100000000E-03 0. -1.
    9900012    2    1    2    0    0  0.16161626846E+02 -0.34021312955E+02  0.24707601560E+02  0.46142317717E+02  0.99999995975E+01 0.  0.
         12    1    1    2    0    0 -0.16161626846E+02  0.34021312955E+02 -0.24707601560E+02  0.45045682283E+02  0.00000000000E+00 0. -1.
         11    1    3    3    0    0  0.58763608480E+01 -0.37870988286E+01  0.52196764615E+01  0.87246064082E+01  0.51100000000E-03 0. -1.
        -11    1    3    3    0    0  0.71169869957E+01 -0.20562301924E+02  0.13599260608E+02  0.25659299555E+02  0.51100000000E-03 0.  1.
         12    1    3    3    0    0  0.31682790027E+01 -0.96719122024E+01  0.58886644897E+01  0.11758411753E+02  0.00000000000E+00 0. -1.
</event>
<event>
 7    1  0.1503436E-008  0.4614232E+02  0.7816164E-02  0.1320468E+00
        -11   -1    0    0    0    0  0.00000000000E+00  0.00000000000E+00  0.45593999997E+02  0.45594000000E+02  0.51100000000E-03 0. -1.
         11   -1    0    0    0    0 -0.00000000000E+00 -0.00000000000E+00 -0.45593999997E+02  0.45594000000E+02  0.51100000000E-03 0.  1.
    9900012    2    1    2    0    0  0.30160655821E+02 -0.22562335299E+02  0.24706059984E+02  0.46142317259E+02  0.99999954203E+01 0.  0.
         12    1    1    2    0    0 -0.30160655821E+02  0.22562335299E+02 -0.24706059984E+02  0.45045682741E+02  0.00000000000E+00 0. -1.
         11    1    3    3    0    0  0.10479116992E+01 -0.30709102849E+01  0.66560049866E+00  0.33123455726E+01  0.51100000000E-03 0.  1.
        -11    1    3    3    0    0  0.13445953146E+02 -0.12073105308E+02  0.13305071160E+02  0.22440553616E+02  0.51100000000E-03 0. -1.
        -12    1    3    3    0    0  0.15666790976E+02 -0.74183197067E+01  0.10735388325E+02  0.20389418070E+02  0.00000000000E+00 0.  1.
</event>
<event>
 7    1  0.1503436E-008  0.4614231E+02  0.7816164E-02  0.1320468E+00
        -11   -1    0    0    0    0  0.00000000000E+00  0.00000000000E+00  0.45593999997E+02  0.45594000000E+02  0.51100000000E-03 0.  1.
         11   -1    0    0    0    0 -0.00000000000E+00 -0.00000000000E+00 -0.45593999997E+02  0.45594000000E+02  0.51100000000E-03 0. -1.
    9900012    2    1    2    0    0 -0.27985317167E+00 -0.26146525960E+02  0.36679624433E+02  0.46142312236E+02  0.99999496186E+01 0.  0.
         12    1    1    2    0    0  0.27985317167E+00  0.26146525960E+02 -0.36679624433E+02  0.45045687764E+02  0.00000000000E+00 0. -1.
         11    1    3    3    0    0 -0.15079908054E+01 -0.27574130403E+01  0.20851322558E+01  0.37716229569E+01  0.51100000000E-03 0. -1.
        -11    1    3    3    0    0  0.20970374498E+01 -0.13383359701E+02  0.14131033311E+02  0.19575443435E+02  0.51100000000E-03 0.  1.
        -12    1    3    3    0    0 -0.86889981605E+00 -0.10005753219E+02  0.20463458866E+02  0.22795245845E+02  0.00000000000E+00 0.  1.
</event>
<event>
 7    1  0.1503436E-008  0.4614232E+02  0.7816164E-02  0.1320468E+00
        -11   -1    0    0    0    0  0.00000000000E+00  0.00000000000E+00  0.45593999997E+02  0.45594000000E+02  0.51100000000E-03 0. -1.
         11   -1    0    0    0    0 -0.00000000000E+00 -0.00000000000E+00 -0.45593999997E+02  0.45594000000E+02  0.51100000000E-03 0.  1.
    9900012    2    1    2    0    0  0.30775548944E+02  0.31736274628E+02 -0.86479994033E+01  0.46142318368E+02  0.10000005532E+02 0.  0.
         12    1    1    2    0    0 -0.30775548944E+02 -0.31736274628E+02  0.86479994033E+01  0.45045681632E+02  0.00000000000E+00 0. -1.
         11    1    3    3    0    0  0.13963909247E+02  0.92430408803E+01 -0.49133084257E+01  0.17451795498E+02  0.51100000000E-03 0. -1.
        -11    1    3    3    0    0  0.10353286502E+02  0.12167021721E+02 -0.85476479495E-01  0.15976052875E+02  0.51100000000E-03 0.  1.
        -12    1    3    3    0    0  0.64583531950E+01  0.10326212026E+02 -0.36492144981E+01  0.12714469995E+02  0.00000000000E+00 0.  1.
</event>
<event>
 7    1  0.2339543E-008  0.4614232E+02  0.7816164E-02  0.1320468E+00
        -11   -1    0    0    0    0  0.00000000000E+00  0.00000000000E+00  0.45593999997E+02  0.45594000000E+02  0.51100000000E-03 0. -1.
         11   -1    0    0    0    0 -0.00000000000E+00 -0.00000000000E+00 -0.45593999997E+02  0.45594000000E+02  0.51100000000E-03 0.  1.
    9900012    2    1    2    0    0  0.26593485996E+02 -0.91127588385E+01 -0.35197412344E+02  0.46142315336E+02  0.99999778892E+01 0.  0.
         12    1    1    2    0    0 -0.26593485996E+02  0.91127588385E+01  0.35197412344E+02  0.45045684664E+02  0.00000000000E+00 0. -1.
         11    1    3    3    0    0  0.43044425429E+01 -0.50029340401E-01 -0.21598956473E+01  0.48162099216E+01  0.51100000000E-03 0. -1.
        -11    1    3    3    0    0  0.91480543304E+01 -0.69121361758E+01 -0.14047425764E+02  0.18132696860E+02  0.51100000000E-03 0.  1.
        -12    1    3    3    0    0  0.13140989123E+02 -0.21505933223E+01 -0.18990090933E+02  0.23193408555E+02  0.00000000000E+00 0.  1.
</event>
<event>
 7    1  0.1503436E-008  0.4614232E+02  0.7816164E-02  0.1320468E+00
        -11   -1    0    0    0    0  0.00000000000E+00  0.00000000000E+00  0.45593999997E+02  0.45594000000E+02  0.51100000000E-03 0. -1.
         11   -1    0    0    0    0 -0.00000000000E+00 -0.00000000000E+00 -0.45593999997E+02  0.45594000000E+02  0.51100000000E-03 0.  1.
    9900012    2    1    2    0    0 -0.32635853117E+02 -0.19457538364E+02 -0.24195428179E+02  0.46142318158E+02  0.10000003617E+02 0.  0.
         12    1    1    2    0    0  0.32635853117E+02  0.19457538364E+02  0.24195428179E+02  0.45045681842E+02  0.00000000000E+00 0. -1.
         11    1    3    3    0    0 -0.71357482207E+01 -0.55638855675E+01 -0.20217189584E+01  0.92716273159E+01  0.51100000000E-03 0. -1.
        -11    1    3    3    0    0 -0.18681800366E+02 -0.75659275306E+01 -0.15112163332E+02  0.25191871807E+02  0.51100000000E-03 0.  1.
         12    1    3    3    0    0 -0.68183045307E+01 -0.63277252663E+01 -0.70615458879E+01  0.11678819035E+02  0.00000000000E+00 0. -1.
</event>
<event>
 7    1  0.1503436E-008  0.4614232E+02  0.7816164E-02  0.1320468E+00
        -11   -1    0    0    0    0  0.00000000000E+00  0.00000000000E+00  0.45593999997E+02  0.45594000000E+02  0.51100000000E-03 0.  1.
         11   -1    0    0    0    0 -0.00000000000E+00 -0.00000000000E+00 -0.45593999997E+02  0.45594000000E+02  0.51100000000E-03 0. -1.
    9900012    2    1    2    0    0  0.22731720487E+02 -0.10052689628E+02  0.37567616902E+02  0.46142317357E+02  0.99999963132E+01 0.  0.
         12    1    1    2    0    0 -0.22731720487E+02  0.10052689628E+02 -0.37567616902E+02  0.45045682643E+02  0.00000000000E+00 0. -1.
         11    1    3    3    0    0  0.21669768885E+00 -0.18727660556E+01  0.19501493344E+01  0.27124330913E+01  0.51100000000E-03 0. -1.
        -11    1    3    3    0    0  0.20334988724E+02 -0.70663609040E+01  0.27341531091E+02  0.34799490592E+02  0.51100000000E-03 0.  1.
        -12    1    3    3    0    0  0.21800340745E+01 -0.11135626687E+01  0.82759364770E+01  0.86303936732E+01  0.00000000000E+00 0.  1.
</event>
<event>
 7    1  0.1503436E-008  0.4614232E+02  0.7816164E-02  0.1320468E+00
        -11   -1    0    0    0    0  0.00000000000E+00  0.00000000000E+00  0.45593999997E+02  0.45594000000E+02  0.51100000000E-03 0.  1.
         11   -1    0    0    0    0 -0.00000000000E+00 -0.00000000000E+00 -0.45593999997E+02  0.45594000000E+02  0.51100000000E-03 0. -1.
    9900012    2    1    2    0    0  0.38790316324E+02  0.22629016056E+02  0.35146048541E+01  0.46142318127E+02  0.10000003335E+02 0.  0.
         12    1    1    2    0    0 -0.38790316324E+02 -0.22629016056E+02 -0.35146048541E+01  0.45045681873E+02  0.00000000000E+00 0. -1.
         11    1    3    3    0    0  0.13096621098E+02  0.42116447022E+01  0.15008138331E+00  0.13757978048E+02  0.51100000000E-03 0. -1.
        -11    1    3    3    0    0  0.20013046386E+02  0.17146502116E+02  0.33281543817E+01  0.26563154413E+02  0.51100000000E-03 0.  1.
        -12    1    3    3    0    0  0.56806488390E+01  0.12708692370E+01  0.36369089105E-01  0.58211856662E+01  0.00000000000E+00 0.  1.
</event>
<event>
 7    1  0.1503436E-008  0.4614232E+02  0.7816164E-02  0.1320468E+00
        -11   -1    0    0    0    0  0.00000000000E+00  0.00000000000E+00  0.45593999997E+02  0.45594000000E+02  0.51100000000E-03 0. -1.
         11   -1    0    0    0    0 -0.00000000000E+00 -0.00000000000E+00 -0.45593999997E+02  0.45594000000E+02  0.51100000000E-03 0.  1.
    9900012    2    1    2    0    0 -0.41304530367E+02  0.17886215853E+02 -0.17699529123E+01  0.46142315637E+02  0.99999806350E+01 0.  0.
         12    1    1    2    0    0  0.41304530367E+02 -0.17886215853E+02  0.17699529123E+01  0.45045684363E+02  0.00000000000E+00 0. -1.
         11    1    3    3    0    0 -0.29596686466E+01  0.30946536305E+01 -0.38689662123E+00  0.42995591456E+01  0.51100000000E-03 0. -1.
        -11    1    3    3    0    0 -0.33500841772E+02  0.10019969700E+02 -0.37681644917E+00  0.34969246248E+02  0.51100000000E-03 0.  1.
        -12    1    3    3    0    0 -0.48440199484E+01  0.47715925222E+01 -0.10062398419E+01  0.68735102442E+01  0.00000000000E+00 0.  1.
</event>
<event>
 7    1  0.1503436E-008  0.4614232E+02  0.7816164E-02  0.1320468E+00
        -11   -1    0    0    0    0  0.00000000000E+00  0.00000000000E+00  0.45593999997E+02  0.45594000000E+02  0.51100000000E-03 0. -1.
         11   -1    0    0    0    0 -0.00000000000E+00 -0.00000000000E+00 -0.45593999997E+02  0.45594000000E+02  0.51100000000E-03 0.  1.
    9900012    2    1    2    0    0  0.24746824486E+02 -0.37532949046E+02  0.28259556107E+01  0.46142316396E+02  0.99999875477E+01 0.  0.
         12    1    1    2    0    0 -0.24746824486E+02  0.37532949046E+02 -0.28259556107E+01  0.45045683604E+02  0.00000000000E+00 0. -1.
         11    1    3    3    0    0 -0.14086860976E+00 -0.61075976943E+00  0.74218567561E+00  0.97144804255E+00  0.51100000000E-03 0. -1.
        -11    1    3    3    0    0  0.12636948488E+02 -0.12850043205E+02  0.22316798888E+01  0.18160299360E+02  0.51100000000E-03 0.  1.
        -12    1    3    3    0    0  0.12250744608E+02 -0.24072146072E+02 -0.14790995367E+00  0.27010568993E+02  0.00000000000E+00 0.  1.
</event>
<event>
 7    1  0.1503436E-008  0.4614232E+02  0.7816164E-02  0.1320468E+00
        -11   -1    0    0    0    0  0.00000000000E+00  0.00000000000E+00  0.45593999997E+02  0.45594000000E+02  0.51100000000E-03 0.  1.
         11   -1    0    0    0    0 -0.00000000000E+00 -0.00000000000E+00 -0.45593999997E+02  0.45594000000E+02  0.51100000000E-03 0. -1.
    9900012    2    1    2    0    0  0.40612710252E+02  0.18549056565E+02  0.59710743559E+01  0.46142318049E+02  0.10000002623E+02 0.  0.
         12    1    1    2    0    0 -0.40612710252E+02 -0.18549056565E+02 -0.59710743559E+01  0.45045681951E+02  0.00000000000E+00 0. -1.
         11    1    3    3    0    0  0.21593638775E+02  0.99118079299E+01  0.53267404991E+01  0.24349606498E+02  0.51100000000E-03 0. -1.
        -11    1    3    3    0    0  0.13179859054E+02  0.27522536763E+01  0.94169482371E+00  0.13497050581E+02  0.51100000000E-03 0.  1.
         12    1    3    3    0    0  0.58392124235E+01  0.58849949588E+01 -0.29736096690E+00  0.82956609704E+01  0.00000000000E+00 0. -1.
</event>
<event>
 7    1  0.1503436E-008  0.4614231E+02  0.7816164E-02  0.1320468E+00
        -11   -1    0    0    0    0  0.00000000000E+00  0.00000000000E+00  0.45593999997E+02  0.45594000000E+02  0.51100000000E-03 0.  1.
         11   -1    0    0    0    0 -0.00000000000E+00 -0.00000000000E+00 -0.45593999997E+02  0.45594000000E+02  0.51100000000E-03 0. -1.
    9900012    2    1    2    0    0 -0.42004369263E+02  0.84184906697E+01  0.13923928313E+02  0.46142314280E+02  0.99999682532E+01 0.  0.
         12    1    1    2    0    0  0.42004369263E+02 -0.84184906697E+01 -0.13923928313E+02  0.45045685720E+02  0.00000000000E+00 0. -1.
         11    1    3    3    0    0 -0.50506321908E+01  0.21719568193E+01  0.96607558184E+00  0.55820770545E+01  0.51100000000E-03 0. -1.
        -11    1    3    3    0    0 -0.36163827525E+02  0.73586288640E+01  0.11728032371E+02  0.38723617904E+02  0.51100000000E-03 0.  1.
        -12    1    3    3    0    0 -0.78990954753E+00 -0.11120950136E+01  0.12298203607E+01  0.18366193215E+01  0.00000000000E+00 0.  1.
</event>
<event>
 7    1  0.1503436E-008  0.4614232E+02  0.7816164E-02  0.1320468E+00
        -11   -1    0    0    0    0  0.00000000000E+00  0.00000000000E+00  0.45593999997E+02  0.45594000000E+02  0.51100000000E-03 0.  1.
         11   -1    0    0    0    0 -0.00000000000E+00 -0.00000000000E+00 -0.45593999997E+02  0.45594000000E+02  0.51100000000E-03 0. -1.
    9900012    2    1    2    0    0 -0.27888714950E+02 -0.32257714597E+01  0.35226795439E+02  0.46142321628E+02  0.10000035265E+02 0.  0.
         12    1    1    2    0    0  0.27888714950E+02  0.32257714597E+01 -0.35226795439E+02  0.45045678372E+02  0.00000000000E+00 0. -1.
         11    1    3    3    0    0 -0.44671507780E+01 -0.40626003569E+00  0.97959104563E+01  0.10774058902E+02  0.51100000000E-03 0. -1.
        -11    1    3    3    0    0 -0.96120940732E+01 -0.32571353238E+01  0.69792684383E+01  0.12317121059E+02  0.51100000000E-03 0.  1.
        -12    1    3    3    0    0 -0.13809470098E+02  0.43762389980E+00  0.18451616544E+02  0.23051141668E+02  0.00000000000E+00 0.  1.
</event>
<event>
 7    1  0.1503436E-008  0.4614232E+02  0.7816164E-02  0.1320468E+00
        -11   -1    0    0    0    0  0.00000000000E+00  0.00000000000E+00  0.45593999997E+02  0.45594000000E+02  0.51100000000E-03 0. -1.
         11   -1    0    0    0    0 -0.00000000000E+00 -0.00000000000E+00 -0.45593999997E+02  0.45594000000E+02  0.51100000000E-03 0.  1.
    9900012    2    1    2    0    0  0.31008650989E+02  0.32344895539E+02 -0.46243717163E+01  0.46142317439E+02  0.99999970647E+01 0.  0.
         12    1    1    2    0    0 -0.31008650989E+02 -0.32344895539E+02  0.46243717163E+01  0.45045682561E+02  0.00000000000E+00 0. -1.
         11    1    3    3    0    0  0.12598380177E+02  0.11932845723E+02  0.68099385495E+00  0.17365936284E+02  0.51100000000E-03 0. -1.
        -11    1    3    3    0    0  0.42214723099E+01  0.73607015625E+01 -0.41957530992E+01  0.94659970571E+01  0.51100000000E-03 0.  1.
        -12    1    3    3    0    0  0.14188798502E+02  0.13051348253E+02 -0.11096124721E+01  0.19310384098E+02  0.00000000000E+00 0.  1.
</event>
<event>
 7    1  0.1503436E-008  0.4614232E+02  0.7816164E-02  0.1320468E+00
        -11   -1    0    0    0    0  0.00000000000E+00  0.00000000000E+00  0.45593999997E+02  0.45594000000E+02  0.51100000000E-03 0. -1.
         11   -1    0    0    0    0 -0.00000000000E+00 -0.00000000000E+00 -0.45593999997E+02  0.45594000000E+02  0.51100000000E-03 0.  1.
    9900012    2    1    2    0    0  0.19979221812E+01 -0.24724852135E+02 -0.37600576433E+02  0.46142319250E+02  0.10000013577E+02 0.  0.
         12    1    1    2    0    0 -0.19979221812E+01  0.24724852135E+02  0.37600576433E+02  0.45045680750E+02  0.00000000000E+00 0. -1.
         11    1    3    3    0    0  0.36332314043E+01 -0.30975585447E+01 -0.56287476195E+01  0.73809240207E+01  0.51100000000E-03 0. -1.
        -11    1    3    3    0    0 -0.11772380921E+00 -0.17659547785E+02 -0.25391699675E+02  0.30929143207E+02  0.51100000000E-03 0.  1.
         12    1    3    3    0    0 -0.15175854138E+01 -0.39677458048E+01 -0.65801291386E+01  0.78322520223E+01  0.00000000000E+00 0. -1.
</event>
<event>
 7    1  0.1503436E-008  0.4614232E+02  0.7816164E-02  0.1320468E+00
        -11   -1    0    0    0    0  0.00000000000E+00  0.00000000000E+00  0.45593999997E+02  0.45594000000E+02  0.51100000000E-03 0. -1.
         11   -1    0    0    0    0 -0.00000000000E+00 -0.00000000000E+00 -0.45593999997E+02  0.45594000000E+02  0.51100000000E-03 0.  1.
    9900012    2    1    2    0    0 -0.10795671927E+02  0.28803553002E+02 -0.32907785110E+02  0.46142317424E+02  0.99999969253E+01 0.  0.
         12    1    1    2    0    0  0.10795671927E+02 -0.28803553002E+02  0.32907785110E+02  0.45045682576E+02  0.00000000000E+00 0. -1.
         11    1    3    3    0    0 -0.30650242698E+00 -0.12863734213E+00 -0.23301584667E+01  0.23537480844E+01  0.51100000000E-03 0. -1.
        -11    1    3    3    0    0 -0.70503073211E+01  0.10944894318E+02 -0.12114809047E+02  0.17783873129E+02  0.51100000000E-03 0.  1.
         12    1    3    3    0    0 -0.34388621788E+01  0.17987296026E+02 -0.18462817596E+02  0.26004696211E+02  0.00000000000E+00 0. -1.
</event>
<event>
 7    1  0.1503436E-008  0.4614232E+02  0.7816164E-02  0.1320468E+00
        -11   -1    0    0    0    0  0.00000000000E+00  0.00000000000E+00  0.45593999997E+02  0.45594000000E+02  0.51100000000E-03 0. -1.
         11   -1    0    0    0    0 -0.00000000000E+00 -0.00000000000E+00 -0.45593999997E+02  0.45594000000E+02  0.51100000000E-03 0.  1.
    9900012    2    1    2    0    0 -0.35439861308E+02 -0.18512565294E+02 -0.20746433875E+02  0.46142319165E+02  0.10000012806E+02 0.  0.
         12    1    1    2    0    0  0.35439861308E+02  0.18512565294E+02  0.20746433875E+02  0.45045680835E+02  0.00000000000E+00 0. -1.
         11    1    3    3    0    0 -0.85603139858E+01 -0.17677090882E+01 -0.39371591815E+01  0.95867092184E+01  0.51100000000E-03 0. -1.
        -11    1    3    3    0    0 -0.63630839781E+01 -0.37086032635E+01 -0.75409093396E+01  0.10540772733E+02  0.51100000000E-03 0.  1.
         12    1    3    3    0    0 -0.20516463344E+02 -0.13036252943E+02 -0.92683653536E+01  0.26014837214E+02  0.00000000000E+00 0. -1.
</event>
<event>
 7    1  0.1503436E-008  0.4614232E+02  0.7816164E-02  0.1320468E+00
        -11   -1    0    0    0    0  0.00000000000E+00  0.00000000000E+00  0.45593999997E+02  0.45594000000E+02  0.51100000000E-03 0. -1.
         11   -1    0    0    0    0 -0.00000000000E+00 -0.00000000000E+00 -0.45593999997E+02  0.45594000000E+02  0.51100000000E-03 0.  1.
    9900012    2    1    2    0    0 -0.17401300822E+02 -0.59586567970E+01 -0.41119370269E+02  0.46142317938E+02  0.10000001610E+02 0.  0.
         12    1    1    2    0    0  0.17401300822E+02  0.59586567970E+01  0.41119370269E+02  0.45045682062E+02  0.00000000000E+00 0. -1.
         11    1    3    3    0    0 -0.37130334031E+01  0.15944149273E+01 -0.14674260681E+02  0.15220469862E+02  0.51100000000E-03 0. -1.
        -11    1    3    3    0    0 -0.55890575931E+01 -0.37002275202E+01 -0.14591862211E+02  0.16057761099E+02  0.51100000000E-03 0.  1.
         12    1    3    3    0    0 -0.80992098257E+01 -0.38528442041E+01 -0.11853247377E+02  0.14864086976E+02  0.00000000000E+00 0. -1.
</event>
<event>
 7    1  0.1503436E-008  0.4614232E+02  0.7816164E-02  0.1320468E+00
        -11   -1    0    0    0    0  0.00000000000E+00  0.00000000000E+00  0.45593999997E+02  0.45594000000E+02  0.51100000000E-03 0.  1.
         11   -1    0    0    0    0 -0.00000000000E+00 -0.00000000000E+00 -0.45593999997E+02  0.45594000000E+02  0.51100000000E-03 0. -1.
    9900012    2    1    2    0    0 -0.15979427668E+02 -0.31812630420E+02  0.27599418072E+02  0.46142318290E+02  0.10000004825E+02 0.  0.
         12    1    1    2    0    0  0.15979427668E+02  0.31812630420E+02 -0.27599418072E+02  0.45045681710E+02  0.00000000000E+00 0. -1.
         11    1    3    3    0    0 -0.61902950894E+01 -0.69145036356E+01  0.60598846590E+01  0.11083876405E+02  0.51100000000E-03 0. -1.
        -11    1    3    3    0    0  0.28751768281E+00 -0.72488153763E+01  0.44981230796E+01  0.85358715008E+01  0.51100000000E-03 0.  1.
        -12    1    3    3    0    0 -0.10076650261E+02 -0.17649311408E+02  0.17041410333E+02  0.26522570384E+02  0.00000000000E+00 0.  1.
</event>
<event>
 7    1  0.1503436E-008  0.4614232E+02  0.7816164E-02  0.1320468E+00
        -11   -1    0    0    0    0  0.00000000000E+00  0.00000000000E+00  0.45593999997E+02  0.45594000000E+02  0.51100000000E-03 0.  1.
         11   -1    0    0    0    0 -0.00000000000E+00 -0.00000000000E+00 -0.45593999997E+02  0.45594000000E+02  0.51100000000E-03 0. -1.
    9900012    2    1    2    0    0  0.23643384207E+00  0.36138353185E+02  0.26890092177E+02  0.46142317308E+02  0.99999958723E+01 0.  0.
         12    1    1    2    0    0 -0.23643384207E+00 -0.36138353185E+02 -0.26890092177E+02  0.45045682692E+02  0.00000000000E+00 0. -1.
         11    1    3    3    0    0 -0.75930115999E+00  0.26172501080E+01  0.36101963109E+01  0.45232791252E+01  0.51100000000E-03 0. -1.
        -11    1    3    3    0    0 -0.29808862932E+01  0.19239653303E+02  0.15443220804E+02  0.24850412700E+02  0.51100000000E-03 0.  1.
        -12    1    3    3    0    0  0.39766212953E+01  0.14281449774E+02  0.78366750626E+01  0.16768625483E+02  0.00000000000E+00 0.  1.
</event>
<event>
 7    1  0.1503436E-008  0.4614232E+02  0.7816164E-02  0.1320468E+00
        -11   -1    0    0    0    0  0.00000000000E+00  0.00000000000E+00  0.45593999997E+02  0.45594000000E+02  0.51100000000E-03 0.  1.
         11   -1    0    0    0    0 -0.00000000000E+00 -0.00000000000E+00 -0.45593999997E+02  0.45594000000E+02  0.51100000000E-03 0. -1.
    9900012    2    1    2    0    0 -0.35644633755E+00  0.29312420999E+02  0.34201878302E+02  0.46142316986E+02  0.99999929306E+01 0.  0.
         12    1    1    2    0    0  0.35644633755E+00 -0.29312420999E+02 -0.34201878302E+02  0.45045683014E+02  0.00000000000E+00 0. -1.
         11    1    3    3    0    0  0.81587105034E+00  0.32421072036E+01  0.75409914642E+01  0.82488458110E+01  0.51100000000E-03 0.  1.
        -11    1    3    3    0    0  0.89922173964E+00  0.18642966401E+01  0.47358345603E+01  0.51683973283E+01  0.51100000000E-03 0. -1.
        -12    1    3    3    0    0 -0.20715391275E+01  0.24206017155E+02  0.21925052278E+02  0.32725073847E+02  0.00000000000E+00 0.  1.
</event>
<event>
 7    1  0.1503436E-008  0.4614232E+02  0.7816164E-02  0.1320468E+00
        -11   -1    0    0    0    0  0.00000000000E+00  0.00000000000E+00  0.45593999997E+02  0.45594000000E+02  0.51100000000E-03 0.  1.
         11   -1    0    0    0    0 -0.00000000000E+00 -0.00000000000E+00 -0.45593999997E+02  0.45594000000E+02  0.51100000000E-03 0. -1.
    9900012    2    1    2    0    0  0.21517437530E+02  0.31819601837E+02  0.23529266187E+02  0.46142317119E+02  0.99999941454E+01 0.  0.
         12    1    1    2    0    0 -0.21517437530E+02 -0.31819601837E+02 -0.23529266187E+02  0.45045682881E+02  0.00000000000E+00 0. -1.
         11    1    3    3    0    0  0.79287563783E+01  0.64665883737E+01  0.68881694061E+01  0.12334051278E+02  0.51100000000E-03 0.  1.
        -11    1    3    3    0    0  0.13681664815E+02  0.23441619646E+02  0.16744836285E+02  0.31891801866E+02  0.51100000000E-03 0. -1.
         12    1    3    3    0    0 -0.92983663571E-01  0.19113938167E+01 -0.10373950416E+00  0.19164639754E+01  0.00000000000E+00 0. -1.
</event>
<event>
 7    1  0.1503436E-008  0.4614232E+02  0.7816164E-02  0.1320468E+00
        -11   -1    0    0    0    0  0.00000000000E+00  0.00000000000E+00  0.45593999997E+02  0.45594000000E+02  0.51100000000E-03 0.  1.
         11   -1    0    0    0    0 -0.00000000000E+00 -0.00000000000E+00 -0.45593999997E+02  0.45594000000E+02  0.51100000000E-03 0. -1.
    9900012    2    1    2    0    0  0.29257380075E+02 -0.33993416198E+02 -0.41912819152E+01  0.46142317879E+02  0.10000001073E+02 0.  0.
         12    1    1    2    0    0 -0.29257380075E+02  0.33993416198E+02  0.41912819152E+01  0.45045682121E+02  0.00000000000E+00 0. -1.
         11    1    3    3    0    0  0.12968467173E+02 -0.13486576101E+02 -0.63150211001E+01  0.19747110358E+02  0.51100000000E-03 0. -1.
        -11    1    3    3    0    0  0.78925494715E+01 -0.83546223430E+01  0.17016496200E+01  0.11618419141E+02  0.51100000000E-03 0.  1.
         12    1    3    3    0    0  0.83963634310E+01 -0.12152217754E+02  0.42208956484E+00  0.14776788379E+02  0.00000000000E+00 0. -1.
</event>
<event>
 7    1  0.1503436E-008  0.4614232E+02  0.7816164E-02  0.1320468E+00
        -11   -1    0    0    0    0  0.00000000000E+00  0.00000000000E+00  0.45593999997E+02  0.45594000000E+02  0.51100000000E-03 0.  1.
         11   -1    0    0    0    0 -0.00000000000E+00 -0.00000000000E+00 -0.45593999997E+02  0.45594000000E+02  0.51100000000E-03 0. -1.
    9900012    2    1    2    0    0 -0.17624988952E+02  0.10426052623E+02  0.40121946998E+02  0.46142318301E+02  0.10000004920E+02 0.  0.
         12    1    1    2    0    0  0.17624988952E+02 -0.10426052623E+02 -0.40121946998E+02  0.45045681699E+02  0.00000000000E+00 0. -1.
         11    1    3    3    0    0 -0.25393719968E+01  0.64146185056E-01  0.26182841196E+01  0.36480045043E+01  0.51100000000E-03 0. -1.
        -11    1    3    3    0    0 -0.12647058232E+02  0.91485436505E+01  0.23388664105E+02  0.28118917862E+02  0.51100000000E-03 0.  1.
        -12    1    3    3    0    0 -0.24385587235E+01  0.12133627873E+01  0.14114998773E+02  0.14375395934E+02  0.00000000000E+00 0.  1.
</event>
<event>
 7    1  0.1503436E-008  0.4614232E+02  0.7816164E-02  0.1320468E+00
        -11   -1    0    0    0    0  0.00000000000E+00  0.00000000000E+00  0.45593999997E+02  0.45594000000E+02  0.51100000000E-03 0.  1.
         11   -1    0    0    0    0 -0.00000000000E+00 -0.00000000000E+00 -0.45593999997E+02  0.45594000000E+02  0.51100000000E-03 0. -1.
    9900012    2    1    2    0    0 -0.36495111111E+02 -0.26234735469E+02  0.29931602392E+01  0.46142317761E+02  0.10000000001E+02 0.  0.
         12    1    1    2    0    0  0.36495111111E+02  0.26234735469E+02 -0.29931602392E+01  0.45045682239E+02  0.00000000000E+00 0. -1.
         11    1    3    3    0    0 -0.99596594298E+01 -0.11080994163E+02  0.24371601304E+01  0.15097118843E+02  0.51100000000E-03 0. -1.
        -11    1    3    3    0    0 -0.25793039519E+02 -0.15599231855E+02  0.77083376473E+00  0.30153127649E+02  0.51100000000E-03 0.  1.
        -12    1    3    3    0    0 -0.74241216289E+00  0.44549054937E+00 -0.21483365594E+00  0.89207126896E+00  0.00000000000E+00 0.  1.
</event>
<event>
 7    1  0.1503436E-008  0.4614232E+02  0.7816164E-02  0.1320468E+00
        -11   -1    0    0    0    0  0.00000000000E+00  0.00000000000E+00  0.45593999997E+02  0.45594000000E+02  0.51100000000E-03 0. -1.
         11   -1    0    0    0    0 -0.00000000000E+00 -0.00000000000E+00 -0.45593999997E+02  0.45594000000E+02  0.51100000000E-03 0.  1.
    9900012    2    1    2    0    0  0.25765865504E+02  0.35414041583E+02  0.10539423477E+02  0.46142316371E+02  0.99999873230E+01 0.  0.
         12    1    1    2    0    0 -0.25765865504E+02 -0.35414041583E+02 -0.10539423477E+02  0.45045683629E+02  0.00000000000E+00 0. -1.
         11    1    3    3    0    0  0.97410716342E+01  0.98436549687E+01  0.37834575347E+01  0.14356203220E+02  0.51100000000E-03 0. -1.
        -11    1    3    3    0    0  0.12414818350E+02  0.13968750812E+02  0.22329666498E+01  0.18821260697E+02  0.51100000000E-03 0.  1.
         12    1    3    3    0    0  0.36099755194E+01  0.11601635802E+02  0.45229992923E+01  0.12964852453E+02  0.00000000000E+00 0. -1.
</event>
<event>
 7    1  0.1503436E-008  0.4614232E+02  0.7816164E-02  0.1320468E+00
        -11   -1    0    0    0    0  0.00000000000E+00  0.00000000000E+00  0.45593999997E+02  0.45594000000E+02  0.51100000000E-03 0. -1.
         11   -1    0    0    0    0 -0.00000000000E+00 -0.00000000000E+00 -0.45593999997E+02  0.45594000000E+02  0.51100000000E-03 0.  1.
    9900012    2    1    2    0    0 -0.43660652858E+02 -0.11083504148E+02  0.12843648570E+00  0.46142321316E+02  0.10000032418E+02 0.  0.
         12    1    1    2    0    0  0.43660652858E+02  0.11083504148E+02 -0.12843648570E+00  0.45045678684E+02  0.00000000000E+00 0. -1.
         11    1    3    3    0    0 -0.14676692127E+02 -0.44525543480E+01 -0.45729274449E+01  0.16004443061E+02  0.51100000000E-03 0. -1.
        -11    1    3    3    0    0 -0.20149767517E+02 -0.50619183523E+01  0.27672586939E+01  0.20959338475E+02  0.51100000000E-03 0.  1.
         12    1    3    3    0    0 -0.88341932139E+01 -0.15690314474E+01  0.19341052367E+01  0.91785397798E+01  0.00000000000E+00 0. -1.
</event>
<event>
 7    1  0.1503436E-008  0.4614232E+02  0.7816164E-02  0.1320468E+00
        -11   -1    0    0    0    0  0.00000000000E+00  0.00000000000E+00  0.45593999997E+02  0.45594000000E+02  0.51100000000E-03 0. -1.
         11   -1    0    0    0    0 -0.00000000000E+00 -0.00000000000E+00 -0.45593999997E+02  0.45594000000E+02  0.51100000000E-03 0.  1.
    9900012    2    1    2    0    0 -0.10579683112E+02  0.41328013491E+02 -0.14463025378E+02  0.46142317666E+02  0.99999991307E+01 0.  0.
         12    1    1    2    0    0  0.10579683112E+02 -0.41328013491E+02  0.14463025378E+02  0.45045682334E+02  0.00000000000E+00 0. -1.
         11    1    3    3    0    0  0.36744913313E+00  0.15582069865E+01  0.11003906746E+01  0.19426496792E+01  0.51100000000E-03 0. -1.
        -11    1    3    3    0    0 -0.72800736939E+01  0.21632318536E+02 -0.76272027219E+01  0.24065138684E+02  0.51100000000E-03 0.  1.
        -12    1    3    3    0    0 -0.36670585513E+01  0.18137487968E+02 -0.79362133309E+01  0.20134529303E+02  0.00000000000E+00 0.  1.
</event>
<event>
 7    1  0.1503436E-008  0.4614232E+02  0.7816164E-02  0.1320468E+00
        -11   -1    0    0    0    0  0.00000000000E+00  0.00000000000E+00  0.45593999997E+02  0.45594000000E+02  0.51100000000E-03 0.  1.
         11   -1    0    0    0    0 -0.00000000000E+00 -0.00000000000E+00 -0.45593999997E+02  0.45594000000E+02  0.51100000000E-03 0. -1.
    9900012    2    1    2    0    0 -0.39921243788E+02  0.12290995060E+02  0.16862356517E+02  0.46142319492E+02  0.10000015780E+02 0.  0.
         12    1    1    2    0    0  0.39921243788E+02 -0.12290995060E+02 -0.16862356517E+02  0.45045680508E+02  0.00000000000E+00 0. -1.
         11    1    3    3    0    0 -0.19794976074E+01  0.17907550361E+01  0.10816076525E+01  0.28801197461E+01  0.51100000000E-03 0. -1.
        -11    1    3    3    0    0 -0.12336768007E+02  0.67098470614E+01  0.83260371879E+01  0.16326076931E+02  0.51100000000E-03 0.  1.
        -12    1    3    3    0    0 -0.25604978174E+02  0.37903929621E+01  0.74547116771E+01  0.26936122815E+02  0.00000000000E+00 0.  1.
</event>
<event>
 7    1  0.1503436E-008  0.4614232E+02  0.7816164E-02  0.1320468E+00
        -11   -1    0    0    0    0  0.00000000000E+00  0.00000000000E+00  0.45593999997E+02  0.45594000000E+02  0.51100000000E-03 0. -1.
         11   -1    0    0    0    0 -0.00000000000E+00 -0.00000000000E+00 -0.45593999997E+02  0.45594000000E+02  0.51100000000E-03 0.  1.
    9900012    2    1    2    0    0  0.17331089739E+02 -0.19698161588E+02 -0.36615969198E+02  0.46142318278E+02  0.10000004711E+02 0.  0.
         12    1    1    2    0    0 -0.17331089739E+02  0.19698161588E+02  0.36615969198E+02  0.45045681722E+02  0.00000000000E+00 0. -1.
         11    1    3    3    0    0  0.11892519539E+01 -0.98146386733E+00  0.41505874913E+00  0.15968298466E+01  0.51100000000E-03 0. -1.
        -11    1    3    3    0    0  0.10263333895E+02 -0.12173287420E+02 -0.25051832157E+02  0.29683652806E+02  0.51100000000E-03 0.  1.
        -12    1    3    3    0    0  0.58785038905E+01 -0.65434103008E+01 -0.11979195791E+02  0.14861835625E+02  0.00000000000E+00 0.  1.
</event>
<event>
 7    1  0.1503436E-008  0.4614232E+02  0.7816164E-02  0.1320468E+00
        -11   -1    0    0    0    0  0.00000000000E+00  0.00000000000E+00  0.45593999997E+02  0.45594000000E+02  0.51100000000E-03 0.  1.
         11   -1    0    0    0    0 -0.00000000000E+00 -0.00000000000E+00 -0.45593999997E+02  0.45594000000E+02  0.51100000000E-03 0. -1.
    9900012    2    1    2    0    0 -0.39418330244E+02  0.21061476241E+02 -0.56323183200E+01  0.46142317074E+02  0.99999937335E+01 0.  0.
         12    1    1    2    0    0  0.39418330244E+02 -0.21061476241E+02  0.56323183200E+01  0.45045682926E+02  0.00000000000E+00 0. -1.
         11    1    3    3    0    0 -0.24692159292E+02  0.16741474298E+02 -0.44499870956E+01  0.30162594013E+02  0.51100000000E-03 0. -1.
        -11    1    3    3    0    0 -0.66200147176E+01  0.37918124867E+01  0.63546863302E+00  0.76554723851E+01  0.51100000000E-03 0.  1.
         12    1    3    3    0    0 -0.81061562340E+01  0.52818945560E+00 -0.18177998574E+01  0.83242506758E+01  0.00000000000E+00 0. -1.
</event>
<event>
 7    1  0.1503436E-008  0.4614232E+02  0.7816164E-02  0.1320468E+00
        -11   -1    0    0    0    0  0.00000000000E+00  0.00000000000E+00  0.45593999997E+02  0.45594000000E+02  0.51100000000E-03 0.  1.
         11   -1    0    0    0    0 -0.00000000000E+00 -0.00000000000E+00 -0.45593999997E+02  0.45594000000E+02  0.51100000000E-03 0. -1.
    9900012    2    1    2    0    0  0.42986712703E+02  0.11395166196E+02  0.71698030981E+01  0.46142319207E+02  0.10000013181E+02 0.  0.
         12    1    1    2    0    0 -0.42986712703E+02 -0.11395166196E+02 -0.71698030981E+01  0.45045680793E+02  0.00000000000E+00 0. -1.
         11    1    3    3    0    0  0.11465043939E+02  0.94072719999E+00  0.10773730987E+01  0.11553914196E+02  0.51100000000E-03 0. -1.
        -11    1    3    3    0    0  0.19386213034E+02  0.79083481732E+01  0.71969611180E+01  0.22139635865E+02  0.51100000000E-03 0.  1.
        -12    1    3    3    0    0  0.12135455730E+02  0.25460908227E+01 -0.11045311186E+01  0.12448769146E+02  0.00000000000E+00 0.  1.
</event>
<event>
 7    1  0.1503436E-008  0.4614232E+02  0.7816164E-02  0.1320468E+00
        -11   -1    0    0    0    0  0.00000000000E+00  0.00000000000E+00  0.45593999997E+02  0.45594000000E+02  0.51100000000E-03 0.  1.
         11   -1    0    0    0    0 -0.00000000000E+00 -0.00000000000E+00 -0.45593999997E+02  0.45594000000E+02  0.51100000000E-03 0. -1.
    9900012    2    1    2    0    0 -0.33420802094E+02 -0.66152323469E+01  0.29468665049E+02  0.46142317283E+02  0.99999956443E+01 0.  0.
         12    1    1    2    0    0  0.33420802094E+02  0.66152323469E+01 -0.29468665049E+02  0.45045682717E+02  0.00000000000E+00 0. -1.
         11    1    3    3    0    0 -0.69946823684E+01 -0.42006268532E+00  0.10733518379E+02  0.12818363825E+02  0.51100000000E-03 0. -1.
        -11    1    3    3    0    0 -0.16891868190E+02 -0.56234683947E+01  0.10221217081E+02  0.20528806263E+02  0.51100000000E-03 0.  1.
        -12    1    3    3    0    0 -0.95342515356E+01 -0.57170126689E+00  0.85139295894E+01  0.12795147195E+02  0.00000000000E+00 0.  1.
</event>
<event>
 7    1  0.1503436E-008  0.4614232E+02  0.7816164E-02  0.1320468E+00
        -11   -1    0    0    0    0  0.00000000000E+00  0.00000000000E+00  0.45593999997E+02  0.45594000000E+02  0.51100000000E-03 0.  1.
         11   -1    0    0    0    0 -0.00000000000E+00 -0.00000000000E+00 -0.45593999997E+02  0.45594000000E+02  0.51100000000E-03 0. -1.
    9900012    2    1    2    0    0  0.39846282582E+02 -0.20016248557E+02  0.63825616340E+01  0.46142317245E+02  0.99999952914E+01 0.  0.
         12    1    1    2    0    0 -0.39846282582E+02  0.20016248557E+02 -0.63825616340E+01  0.45045682755E+02  0.00000000000E+00 0. -1.
         11    1    3    3    0    0  0.13925942269E+02 -0.82937473485E+01  0.50271092931E+01  0.16970266388E+02  0.51100000000E-03 0. -1.
        -11    1    3    3    0    0  0.23974556762E+02 -0.11866476040E+02  0.25701173101E+01  0.26873744227E+02  0.51100000000E-03 0.  1.
         12    1    3    3    0    0  0.19457835503E+01  0.14397483130E+00 -0.12146649692E+01  0.22983066296E+01  0.00000000000E+00 0. -1.
</event>
<event>
 7    1  0.1503436E-008  0.4614232E+02  0.7816164E-02  0.1320468E+00
        -11   -1    0    0    0    0  0.00000000000E+00  0.00000000000E+00  0.45593999997E+02  0.45594000000E+02  0.51100000000E-03 0. -1.
         11   -1    0    0    0    0 -0.00000000000E+00 -0.00000000000E+00 -0.45593999997E+02  0.45594000000E+02  0.51100000000E-03 0.  1.
    9900012    2    1    2    0    0  0.66907808588E+01 -0.36698532885E+02 -0.25250041425E+02  0.46142318117E+02  0.10000003241E+02 0.  0.
         12    1    1    2    0    0 -0.66907808588E+01  0.36698532885E+02  0.25250041425E+02  0.45045681883E+02  0.00000000000E+00 0. -1.
         11    1    3    3    0    0  0.10501306888E+01 -0.40317099273E+00 -0.93452837511E+00  0.14624174705E+01  0.51100000000E-03 0. -1.
        -11    1    3    3    0    0  0.29486614515E+01 -0.15117034058E+02 -0.59250321000E+01  0.16502282531E+02  0.51100000000E-03 0.  1.
        -12    1    3    3    0    0  0.26919887184E+01 -0.21178327834E+02 -0.18390480950E+02  0.28177618115E+02  0.00000000000E+00 0.  1.
</event>
<event>
 7    1  0.1503436E-008  0.4614232E+02  0.7816164E-02  0.1320468E+00
        -11   -1    0    0    0    0  0.00000000000E+00  0.00000000000E+00  0.45593999997E+02  0.45594000000E+02  0.51100000000E-03 0. -1.
         11   -1    0    0    0    0 -0.00000000000E+00 -0.00000000000E+00 -0.45593999997E+02  0.45594000000E+02  0.51100000000E-03 0.  1.
    9900012    2    1    2    0    0  0.20850307829E+02  0.38880047535E+02 -0.90950590926E+01  0.46142317268E+02  0.99999955053E+01 0.  0.
         12    1    1    2    0    0 -0.20850307829E+02 -0.38880047535E+02  0.90950590926E+01  0.45045682732E+02  0.00000000000E+00 0. -1.
         11    1    3    3    0    0  0.15077913650E+02  0.24860415911E+02 -0.82743147781E+01  0.30229919693E+02  0.51100000000E-03 0. -1.
        -11    1    3    3    0    0  0.43461597315E+01  0.13629076351E+02 -0.12840224846E+01  0.14362783178E+02  0.51100000000E-03 0.  1.
         12    1    3    3    0    0  0.14262344471E+01  0.39055527210E+00  0.46327817011E+00  0.15496143977E+01  0.00000000000E+00 0. -1.
</event>
<event>
 7    1  0.1503436E-008  0.4614232E+02  0.7816164E-02  0.1320468E+00
        -11   -1    0    0    0    0  0.00000000000E+00  0.00000000000E+00  0.45593999997E+02  0.45594000000E+02  0.51100000000E-03 0.  1.
         11   -1    0    0    0    0 -0.00000000000E+00 -0.00000000000E+00 -0.45593999997E+02  0.45594000000E+02  0.51100000000E-03 0. -1.
    9900012    2    1    2    0    0 -0.21766047161E+02  0.68696393365E+01  0.38835036900E+02  0.46142324906E+02  0.10000065154E+02 0.  0.
         12    1    1    2    0    0  0.21766047161E+02 -0.68696393365E+01 -0.38835036900E+02  0.45045675094E+02  0.00000000000E+00 0. -1.
         11    1    3    3    0    0 -0.13656445340E+01 -0.66078923045E+00  0.17398980592E+01  0.23084351665E+01  0.51100000000E-03 0. -1.
        -11    1    3    3    0    0  0.66543824872E+00  0.11452710870E+01  0.17502973531E+01  0.21949931687E+01  0.51100000000E-03 0.  1.
        -12    1    3    3    0    0 -0.21065840876E+02  0.63851574799E+01  0.35344841488E+02  0.41638896571E+02  0.00000000000E+00 0.  1.
</event>
<event>
 7    1  0.1503436E-008  0.4614232E+02  0.7816164E-02  0.1320468E+00
        -11   -1    0    0    0    0  0.00000000000E+00  0.00000000000E+00  0.45593999997E+02  0.45594000000E+02  0.51100000000E-03 0. -1.
         11   -1    0    0    0    0 -0.00000000000E+00 -0.00000000000E+00 -0.45593999997E+02  0.45594000000E+02  0.51100000000E-03 0.  1.
    9900012    2    1    2    0    0 -0.28941040524E+02  0.29507046200E+02 -0.17912672937E+02  0.46142318144E+02  0.10000003495E+02 0.  0.
         12    1    1    2    0    0  0.28941040524E+02 -0.29507046200E+02  0.17912672937E+02  0.45045681856E+02  0.00000000000E+00 0. -1.
         11    1    3    3    0    0 -0.34164950019E+01  0.42432984956E+01 -0.10923684641E+00  0.54488487931E+01  0.51100000000E-03 0. -1.
        -11    1    3    3    0    0 -0.11010100453E+02  0.15056106782E+02 -0.11221434687E+02  0.21767619533E+02  0.51100000000E-03 0.  1.
        -12    1    3    3    0    0 -0.14514445070E+02  0.10207640922E+02 -0.65820014037E+01  0.18925849819E+02  0.00000000000E+00 0.  1.
</event>
<event>
 7    1  0.1503436E-008  0.4614232E+02  0.7816164E-02  0.1320468E+00
        -11   -1    0    0    0    0  0.00000000000E+00  0.00000000000E+00  0.45593999997E+02  0.45594000000E+02  0.51100000000E-03 0.  1.
         11   -1    0    0    0    0 -0.00000000000E+00 -0.00000000000E+00 -0.45593999997E+02  0.45594000000E+02  0.51100000000E-03 0. -1.
    9900012    2    1    2    0    0 -0.40506050733E+02  0.12710530745E+02  0.15060405188E+02  0.46142317163E+02  0.99999945461E+01 0.  0.
         12    1    1    2    0    0  0.40506050733E+02 -0.12710530745E+02 -0.15060405188E+02  0.45045682837E+02  0.00000000000E+00 0. -1.
         11    1    3    3    0    0 -0.16623909089E+01  0.25509355690E+01  0.44136750422E+00  0.30766249928E+01  0.51100000000E-03 0. -1.
        -11    1    3    3    0    0 -0.29674852351E+02  0.60998998315E+01  0.91663129390E+01  0.31651649770E+02  0.51100000000E-03 0.  1.
         12    1    3    3    0    0 -0.91688074734E+01  0.40596953446E+01  0.54527247445E+01  0.11414042400E+02  0.00000000000E+00 0. -1.
</event>
<event>
 7    1  0.1503436E-008  0.4614232E+02  0.7816164E-02  0.1320468E+00
        -11   -1    0    0    0    0  0.00000000000E+00  0.00000000000E+00  0.45593999997E+02  0.45594000000E+02  0.51100000000E-03 0.  1.
         11   -1    0    0    0    0 -0.00000000000E+00 -0.00000000000E+00 -0.45593999997E+02  0.45594000000E+02  0.51100000000E-03 0. -1.
    9900012    2    1    2    0    0  0.13940731498E+02  0.36640033456E+02 -0.22187328719E+02  0.46142316500E+02  0.99999884963E+01 0.  0.
         12    1    1    2    0    0 -0.13940731498E+02 -0.36640033456E+02  0.22187328719E+02  0.45045683500E+02  0.00000000000E+00 0. -1.
         11    1    3    3    0    0  0.21477321570E+01  0.60113322573E+01 -0.71717396000E+01  0.96011831603E+01  0.51100000000E-03 0. -1.
        -11    1    3    3    0    0  0.45857503555E+01  0.83859578477E+01 -0.69123096925E+01  0.11795483072E+02  0.51100000000E-03 0.  1.
         12    1    3    3    0    0  0.72072489855E+01  0.22242743351E+02 -0.81032794262E+01  0.24745650268E+02  0.00000000000E+00 0. -1.
</event>
<event>
 7    1  0.1503436E-008  0.4614232E+02  0.7816164E-02  0.1320468E+00
        -11   -1    0    0    0    0  0.00000000000E+00  0.00000000000E+00  0.45593999997E+02  0.45594000000E+02  0.51100000000E-03 0.  1.
         11   -1    0    0    0    0 -0.00000000000E+00 -0.00000000000E+00 -0.45593999997E+02  0.45594000000E+02  0.51100000000E-03 0. -1.
    9900012    2    1    2    0    0  0.18641380022E+02  0.33695015521E+02  0.23372169837E+02  0.46142318265E+02  0.10000004593E+02 0.  0.
         12    1    1    2    0    0 -0.18641380022E+02 -0.33695015521E+02 -0.23372169837E+02  0.45045681735E+02  0.00000000000E+00 0. -1.
         11    1    3    3    0    0 -0.34664950980E+00  0.10382750763E+01  0.38165164719E+00  0.11592408109E+01  0.51100000000E-03 0. -1.
        -11    1    3    3    0    0  0.88434336102E+01  0.99049921867E+01  0.11430391780E+02  0.17520532091E+02  0.51100000000E-03 0.  1.
        -12    1    3    3    0    0  0.10144595921E+02  0.22751748258E+02  0.11560126410E+02  0.27462545363E+02  0.00000000000E+00 0.  1.
</event>
<event>
 7    1  0.1503436E-008  0.4614232E+02  0.7816164E-02  0.1320468E+00
        -11   -1    0    0    0    0  0.00000000000E+00  0.00000000000E+00  0.45593999997E+02  0.45594000000E+02  0.51100000000E-03 0.  1.
         11   -1    0    0    0    0 -0.00000000000E+00 -0.00000000000E+00 -0.45593999997E+02  0.45594000000E+02  0.51100000000E-03 0. -1.
    9900012    2    1    2    0    0 -0.23331614578E+02 -0.29157300126E+02  0.25191288724E+02  0.46142318553E+02  0.10000007222E+02 0.  0.
         12    1    1    2    0    0  0.23331614578E+02  0.29157300126E+02 -0.25191288724E+02  0.45045681447E+02  0.00000000000E+00 0. -1.
         11    1    3    3    0    0 -0.12865317572E+02 -0.11758497901E+02  0.14392037955E+02  0.22603305641E+02  0.51100000000E-03 0. -1.
        -11    1    3    3    0    0 -0.10567101215E+02 -0.15356263075E+02  0.10695827386E+02  0.21491374257E+02  0.51100000000E-03 0.  1.
         12    1    3    3    0    0  0.10080420877E+00 -0.20425391501E+01  0.10342338187E+00  0.20476386556E+01  0.00000000000E+00 0. -1.
</event>
<event>
 7    1  0.1503436E-008  0.4614232E+02  0.7816164E-02  0.1320468E+00
        -11   -1    0    0    0    0  0.00000000000E+00  0.00000000000E+00  0.45593999997E+02  0.45594000000E+02  0.51100000000E-03 0.  1.
         11   -1    0    0    0    0 -0.00000000000E+00 -0.00000000000E+00 -0.45593999997E+02  0.45594000000E+02  0.51100000000E-03 0. -1.
    9900012    2    1    2    0    0 -0.18818513320E+02 -0.19220658376E+02  0.36132303515E+02  0.46142317529E+02  0.99999978850E+01 0.  0.
         12    1    1    2    0    0  0.18818513320E+02  0.19220658376E+02 -0.36132303515E+02  0.45045682471E+02  0.00000000000E+00 0. -1.
         11    1    3    3    0    0 -0.51302821457E+01 -0.38946649483E+00  0.78738682103E+01  0.94058109645E+01  0.51100000000E-03 0. -1.
        -11    1    3    3    0    0 -0.84620741658E+01 -0.93141155768E+01  0.14205272444E+02  0.18977597678E+02  0.51100000000E-03 0.  1.
         12    1    3    3    0    0 -0.52261570090E+01 -0.95170763040E+01  0.14053162860E+02  0.17758908886E+02  0.00000000000E+00 0. -1.
</event>
<event>
 7    1  0.1503436E-008  0.4614232E+02  0.7816164E-02  0.1320468E+00
        -11   -1    0    0    0    0  0.00000000000E+00  0.00000000000E+00  0.45593999997E+02  0.45594000000E+02  0.51100000000E-03 0.  1.
         11   -1    0    0    0    0 -0.00000000000E+00 -0.00000000000E+00 -0.45593999997E+02  0.45594000000E+02  0.51100000000E-03 0. -1.
    9900012    2    1    2    0    0 -0.26051212905E+02 -0.32960633227E+02  0.16249445882E+02  0.46142317321E+02  0.99999959848E+01 0.  0.
         12    1    1    2    0    0  0.26051212905E+02  0.32960633227E+02 -0.16249445882E+02  0.45045682679E+02  0.00000000000E+00 0. -1.
         11    1    3    3    0    0 -0.16461693461E+02 -0.13180221699E+02  0.75596910723E+01  0.22402109834E+02  0.51100000000E-03 0. -1.
        -11    1    3    3    0    0 -0.58007174046E+01 -0.13905169975E+02  0.53078677916E+01  0.15974214697E+02  0.51100000000E-03 0.  1.
         12    1    3    3    0    0 -0.37888020390E+01 -0.58752415539E+01  0.33818870182E+01  0.77659927898E+01  0.00000000000E+00 0. -1.
</event>
<event>
 7    1  0.1503436E-008  0.4614232E+02  0.7816164E-02  0.1320468E+00
        -11   -1    0    0    0    0  0.00000000000E+00  0.00000000000E+00  0.45593999997E+02  0.45594000000E+02  0.51100000000E-03 0. -1.
         11   -1    0    0    0    0 -0.00000000000E+00 -0.00000000000E+00 -0.45593999997E+02  0.45594000000E+02  0.51100000000E-03 0.  1.
    9900012    2    1    2    0    0 -0.43393315510E+02 -0.11170173299E+02 -0.46217929900E+01  0.46142316823E+02  0.99999914443E+01 0.  0.
         12    1    1    2    0    0  0.43393315510E+02  0.11170173299E+02  0.46217929900E+01  0.45045683177E+02  0.00000000000E+00 0. -1.
         11    1    3    3    0    0 -0.15627186317E+01  0.25334510493E+00 -0.15016428894E+01  0.21820185362E+01  0.51100000000E-03 0. -1.
        -11    1    3    3    0    0 -0.20566120416E+02 -0.63590926408E+01 -0.47352938469E+01  0.22041469467E+02  0.51100000000E-03 0.  1.
        -12    1    3    3    0    0 -0.21264476462E+02 -0.50644257628E+01  0.16151437462E+01  0.21918828819E+02  0.00000000000E+00 0.  1.
</event>
<event>
 7    1  0.1503436E-008  0.4614232E+02  0.7816164E-02  0.1320468E+00
        -11   -1    0    0    0    0  0.00000000000E+00  0.00000000000E+00  0.45593999997E+02  0.45594000000E+02  0.51100000000E-03 0.  1.
         11   -1    0    0    0    0 -0.00000000000E+00 -0.00000000000E+00 -0.45593999997E+02  0.45594000000E+02  0.51100000000E-03 0. -1.
    9900012    2    1    2    0    0  0.39815916444E+02 -0.20612338504E+02 -0.43517280402E+01  0.46142320542E+02  0.10000025359E+02 0.  0.
         12    1    1    2    0    0 -0.39815916444E+02  0.20612338504E+02  0.43517280402E+01  0.45045679458E+02  0.00000000000E+00 0. -1.
         11    1    3    3    0    0  0.75137052254E+00  0.69732677141E+00 -0.97103704205E+00  0.14119969853E+01  0.51100000000E-03 0. -1.
        -11    1    3    3    0    0  0.38116633430E+02 -0.20702427884E+02 -0.37694031052E+01  0.43539369132E+02  0.51100000000E-03 0.  1.
        -12    1    3    3    0    0  0.94791249126E+00 -0.60723739165E+00  0.38871210708E+00  0.11909544253E+01  0.00000000000E+00 0.  1.
</event>
<event>
 7    1  0.1503436E-008  0.4614231E+02  0.7816164E-02  0.1320468E+00
        -11   -1    0    0    0    0  0.00000000000E+00  0.00000000000E+00  0.45593999997E+02  0.45594000000E+02  0.51100000000E-03 0. -1.
         11   -1    0    0    0    0 -0.00000000000E+00 -0.00000000000E+00 -0.45593999997E+02  0.45594000000E+02  0.51100000000E-03 0.  1.
    9900012    2    1    2    0    0  0.11421874317E+02  0.41760949088E+02  0.12436964153E+02  0.46142310317E+02  0.99999321219E+01 0.  0.
         12    1    1    2    0    0 -0.11421874317E+02 -0.41760949088E+02 -0.12436964153E+02  0.45045689683E+02  0.00000000000E+00 0. -1.
         11    1    3    3    0    0  0.48026052895E+00  0.17736642756E+02  0.59431436572E+01  0.18712030975E+02  0.51100000000E-03 0. -1.
        -11    1    3    3    0    0  0.59430360052E+01  0.95917941219E+01  0.38956163279E+01  0.11937253381E+02  0.51100000000E-03 0.  1.
        -12    1    3    3    0    0  0.49985777832E+01  0.14432512210E+02  0.25982041674E+01  0.15493025962E+02  0.00000000000E+00 0.  1.
</event>
<event>
 7    1  0.1503436E-008  0.4614232E+02  0.7816164E-02  0.1320468E+00
        -11   -1    0    0    0    0  0.00000000000E+00  0.00000000000E+00  0.45593999997E+02  0.45594000000E+02  0.51100000000E-03 0.  1.
         11   -1    0    0    0    0 -0.00000000000E+00 -0.00000000000E+00 -0.45593999997E+02  0.45594000000E+02  0.51100000000E-03 0. -1.
    9900012    2    1    2    0    0  0.68743109162E-01  0.38973335657E+02  0.22587336943E+02  0.46142318653E+02  0.10000008134E+02 0.  0.
         12    1    1    2    0    0 -0.68743109162E-01 -0.38973335657E+02 -0.22587336943E+02  0.45045681347E+02  0.00000000000E+00 0. -1.
         11    1    3    3    0    0  0.25326575196E+00  0.23095554525E+02  0.12300456922E+02  0.26168110805E+02  0.51100000000E-03 0. -1.
        -11    1    3    3    0    0 -0.11539205160E+01  0.15986785869E+02  0.90772610723E+01  0.18420247659E+02  0.51100000000E-03 0.  1.
         12    1    3    3    0    0  0.96939787323E+00 -0.10900473705E+00  0.12096189483E+01  0.15539601891E+01  0.00000000000E+00 0. -1.
</event>
<event>
 7    1  0.1503436E-008  0.4614232E+02  0.7816164E-02  0.1320468E+00
        -11   -1    0    0    0    0  0.00000000000E+00  0.00000000000E+00  0.45593999997E+02  0.45594000000E+02  0.51100000000E-03 0.  1.
         11   -1    0    0    0    0 -0.00000000000E+00 -0.00000000000E+00 -0.45593999997E+02  0.45594000000E+02  0.51100000000E-03 0. -1.
    9900012    2    1    2    0    0  0.19508341145E+02 -0.94093715985E+00  0.40591288876E+02  0.46142317970E+02  0.10000001905E+02 0.  0.
         12    1    1    2    0    0 -0.19508341145E+02  0.94093715985E+00 -0.40591288876E+02  0.45045682030E+02  0.00000000000E+00 0. -1.
         11    1    3    3    0    0  0.12654831307E+02 -0.24951165692E+01  0.17842232807E+02  0.22016258399E+02  0.51100000000E-03 0. -1.
        -11    1    3    3    0    0  0.72594926457E+01  0.13090946433E+01  0.19612508171E+02  0.20953864542E+02  0.51100000000E-03 0.  1.
         12    1    3    3    0    0 -0.40598280733E+00  0.24508476612E+00  0.31365478984E+01  0.31721950289E+01  0.00000000000E+00 0. -1.
</event>
<event>
 7    1  0.1503436E-008  0.4614232E+02  0.7816164E-02  0.1320468E+00
        -11   -1    0    0    0    0  0.00000000000E+00  0.00000000000E+00  0.45593999997E+02  0.45594000000E+02  0.51100000000E-03 0.  1.
         11   -1    0    0    0    0 -0.00000000000E+00 -0.00000000000E+00 -0.45593999997E+02  0.45594000000E+02  0.51100000000E-03 0. -1.
    9900012    2    1    2    0    0  0.12600821382E+02  0.58928037457E+01  0.42843991980E+02  0.46142317806E+02  0.10000000414E+02 0.  0.
         12    1    1    2    0    0 -0.12600821382E+02 -0.58928037457E+01 -0.42843991980E+02  0.45045682194E+02  0.00000000000E+00 0. -1.
         11    1    3    3    0    0 -0.25264765734E-01 -0.16829803313E+01  0.47888456991E+01  0.50760323576E+01  0.51100000000E-03 0. -1.
        -11    1    3    3    0    0  0.98551226685E+01  0.60646442593E+01  0.34077158763E+02  0.35988277291E+02  0.51100000000E-03 0.  1.
         12    1    3    3    0    0  0.27709634792E+01  0.15111398177E+01  0.39779875183E+01  0.50780081575E+01  0.00000000000E+00 0. -1.
</event>
<event>
 7    1  0.1503436E-008  0.4614232E+02  0.7816164E-02  0.1320468E+00
        -11   -1    0    0    0    0  0.00000000000E+00  0.00000000000E+00  0.45593999997E+02  0.45594000000E+02  0.51100000000E-03 0. -1.
         11   -1    0    0    0    0 -0.00000000000E+00 -0.00000000000E+00 -0.45593999997E+02  0.45594000000E+02  0.51100000000E-03 0.  1.
    9900012    2    1    2    0    0  0.30355962097E+02  0.32788883452E+02  0.57024864912E+01  0.46142315800E+02  0.99999821140E+01 0.  0.
         12    1    1    2    0    0 -0.30355962097E+02 -0.32788883452E+02 -0.57024864912E+01  0.45045684200E+02  0.00000000000E+00 0. -1.
         11    1    3    3    0    0  0.27324976966E+01  0.52515127673E+01 -0.68777812909E+00  0.59596953801E+01  0.51100000000E-03 0. -1.
        -11    1    3    3    0    0  0.23053534433E+02  0.26223571806E+02  0.56155935248E+01  0.35364898686E+02  0.51100000000E-03 0.  1.
         12    1    3    3    0    0  0.45699299673E+01  0.13137988786E+01  0.77467109551E+00  0.48177217340E+01  0.00000000000E+00 0. -1.
</event>
<event>
 7    1  0.1503436E-008  0.4614232E+02  0.7816164E-02  0.1320468E+00
        -11   -1    0    0    0    0  0.00000000000E+00  0.00000000000E+00  0.45593999997E+02  0.45594000000E+02  0.51100000000E-03 0.  1.
         11   -1    0    0    0    0 -0.00000000000E+00 -0.00000000000E+00 -0.45593999997E+02  0.45594000000E+02  0.51100000000E-03 0. -1.
    9900012    2    1    2    0    0  0.93931020710E+01 -0.43482696412E+02 -0.70808322834E+01  0.46142318302E+02  0.10000004935E+02 0.  0.
         12    1    1    2    0    0 -0.93931020710E+01  0.43482696412E+02  0.70808322834E+01  0.45045681698E+02  0.00000000000E+00 0. -1.
         11    1    3    3    0    0  0.99223286486E+01 -0.37856731195E+02 -0.66757193276E+01  0.39700754797E+02  0.51100000000E-03 0.  1.
        -11    1    3    3    0    0 -0.13196342920E+00 -0.17740953547E+00  0.81457020892E+00  0.84404583780E+00  0.51100000000E-03 0. -1.
         12    1    3    3    0    0 -0.39726314844E+00 -0.54485556812E+01 -0.12196831648E+01  0.55975176679E+01  0.00000000000E+00 0. -1.
</event>
<event>
 7    1  0.1759074E-008  0.4614232E+02  0.7816164E-02  0.1320468E+00
        -11   -1    0    0    0    0  0.00000000000E+00  0.00000000000E+00  0.45593999997E+02  0.45594000000E+02  0.51100000000E-03 0.  1.
         11   -1    0    0    0    0 -0.00000000000E+00 -0.00000000000E+00 -0.45593999997E+02  0.45594000000E+02  0.51100000000E-03 0. -1.
    9900012    2    1    2    0    0  0.42899208157E+02  0.54010728705E+01  0.12633276994E+02  0.46142319450E+02  0.10000015400E+02 0.  0.
         12    1    1    2    0    0 -0.42899208157E+02 -0.54010728705E+01 -0.12633276994E+02  0.45045680550E+02  0.00000000000E+00 0. -1.
         11    1    3    3    0    0  0.79641560378E+01  0.41381591214E+01  0.23374067577E+01  0.92744602496E+01  0.51100000000E-03 0. -1.
        -11    1    3    3    0    0  0.28881882856E+02 -0.84830387039E+00  0.73610686125E+01  0.29817245147E+02  0.51100000000E-03 0.  1.
        -12    1    3    3    0    0  0.60531692624E+01  0.21112176195E+01  0.29348016240E+01  0.70506140533E+01  0.00000000000E+00 0.  1.
</event>
<event>
 7    1  0.1503436E-008  0.4614232E+02  0.7816164E-02  0.1320468E+00
        -11   -1    0    0    0    0  0.00000000000E+00  0.00000000000E+00  0.45593999997E+02  0.45594000000E+02  0.51100000000E-03 0. -1.
         11   -1    0    0    0    0 -0.00000000000E+00 -0.00000000000E+00 -0.45593999997E+02  0.45594000000E+02  0.51100000000E-03 0.  1.
    9900012    2    1    2    0    0 -0.31370799028E+02  0.34583731541E+01 -0.32140723763E+02  0.46142317626E+02  0.99999987689E+01 0.  0.
         12    1    1    2    0    0  0.31370799028E+02 -0.34583731541E+01  0.32140723763E+02  0.45045682374E+02  0.00000000000E+00 0. -1.
         11    1    3    3    0    0 -0.24026132687E+02  0.42853566341E+01 -0.25644002067E+02  0.35401047663E+02  0.51100000000E-03 0. -1.
        -11    1    3    3    0    0 -0.87916329240E+00 -0.17944200330E+01 -0.12322133895E+01  0.23475990816E+01  0.51100000000E-03 0.  1.
         12    1    3    3    0    0 -0.64655030494E+01  0.96743655297E+00 -0.52645083064E+01  0.83936708819E+01  0.00000000000E+00 0. -1.
</event>
<event>
 7    1  0.1503436E-008  0.4614232E+02  0.7816164E-02  0.1320468E+00
        -11   -1    0    0    0    0  0.00000000000E+00  0.00000000000E+00  0.45593999997E+02  0.45594000000E+02  0.51100000000E-03 0.  1.
         11   -1    0    0    0    0 -0.00000000000E+00 -0.00000000000E+00 -0.45593999997E+02  0.45594000000E+02  0.51100000000E-03 0. -1.
    9900012    2    1    2    0    0  0.26092338428E+02  0.36697539638E+02  0.12625200414E+01  0.46142317665E+02  0.99999991268E+01 0.  0.
         12    1    1    2    0    0 -0.26092338428E+02 -0.36697539638E+02 -0.12625200414E+01  0.45045682335E+02  0.00000000000E+00 0. -1.
         11    1    3    3    0    0  0.68019551886E+01  0.57658885635E+01 -0.15448091875E+01  0.90497790582E+01  0.51100000000E-03 0. -1.
        -11    1    3    3    0    0  0.19256764414E+02  0.31052002543E+02  0.32021833212E+01  0.36678383497E+02  0.51100000000E-03 0.  1.
        -12    1    3    3    0    0  0.33618825582E-01 -0.12035146866E+00 -0.39485409225E+00  0.41415511057E+00  0.00000000000E+00 0.  1.
</event>
<event>
 7    1  0.1503436E-008  0.4614232E+02  0.7816164E-02  0.1320468E+00
        -11   -1    0    0    0    0  0.00000000000E+00  0.00000000000E+00  0.45593999997E+02  0.45594000000E+02  0.51100000000E-03 0. -1.
         11   -1    0    0    0    0 -0.00000000000E+00 -0.00000000000E+00 -0.45593999997E+02  0.45594000000E+02  0.51100000000E-03 0.  1.
    9900012    2    1    2    0    0 -0.43894947746E+01 -0.36959147385E+02 -0.25374539300E+02  0.46142317805E+02  0.10000000397E+02 0.  0.
         12    1    1    2    0    0  0.43894947746E+01  0.36959147385E+02  0.25374539300E+02  0.45045682195E+02  0.00000000000E+00 0. -1.
         11    1    3    3    0    0 -0.66433416850E+01 -0.23969331775E+02 -0.19040359458E+02  0.31324082477E+02  0.51100000000E-03 0. -1.
        -11    1    3    3    0    0  0.19070080644E+01 -0.77765241927E+01 -0.49488943223E+01  0.94128934740E+01  0.51100000000E-03 0.  1.
         12    1    3    3    0    0  0.34683884598E+00 -0.52132914173E+01 -0.13852855193E+01  0.54053418538E+01  0.00000000000E+00 0. -1.
</event>
<event>
 7    1  0.1503436E-008  0.4614231E+02  0.7816164E-02  0.1320468E+00
        -11   -1    0    0    0    0  0.00000000000E+00  0.00000000000E+00  0.45593999997E+02  0.45594000000E+02  0.51100000000E-03 0. -1.
         11   -1    0    0    0    0 -0.00000000000E+00 -0.00000000000E+00 -0.45593999997E+02  0.45594000000E+02  0.51100000000E-03 0.  1.
    9900012    2    1    2    0    0 -0.26581161707E+02 -0.36366017060E+02 -0.26314616344E+00  0.46142305418E+02  0.99998874416E+01 0.  0.
         12    1    1    2    0    0  0.26581161707E+02  0.36366017060E+02  0.26314616344E+00  0.45045694582E+02  0.00000000000E+00 0. -1.
         11    1    3    3    0    0 -0.98464991464E+01 -0.14095426994E+02  0.14581240253E+01  0.17255744943E+02  0.51100000000E-03 0. -1.
        -11    1    3    3    0    0  0.14933649212E-01 -0.17015493099E+00 -0.11371973744E+01  0.11499538442E+01  0.51100000000E-03 0.  1.
        -12    1    3    3    0    0 -0.16749596209E+02 -0.22100435135E+02 -0.58407281442E+00  0.27736606631E+02  0.00000000000E+00 0.  1.
</event>
<event>
 7    1  0.1503436E-008  0.4614232E+02  0.7816164E-02  0.1320468E+00
        -11   -1    0    0    0    0  0.00000000000E+00  0.00000000000E+00  0.45593999997E+02  0.45594000000E+02  0.51100000000E-03 0.  1.
         11   -1    0    0    0    0 -0.00000000000E+00 -0.00000000000E+00 -0.45593999997E+02  0.45594000000E+02  0.51100000000E-03 0. -1.
    9900012    2    1    2    0    0 -0.26322417953E+02 -0.33533460899E+01  0.36400533494E+02  0.46142318125E+02  0.10000003318E+02 0.  0.
         12    1    1    2    0    0  0.26322417953E+02  0.33533460899E+01 -0.36400533494E+02  0.45045681875E+02  0.00000000000E+00 0. -1.
         11    1    3    3    0    0 -0.40291956600E+00  0.39227974086E-01  0.21292371486E+01  0.21673795484E+01  0.51100000000E-03 0. -1.
        -11    1    3    3    0    0 -0.15830086944E+02 -0.47563447006E+00  0.26641957993E+02  0.30993738186E+02  0.51100000000E-03 0.  1.
        -12    1    3    3    0    0 -0.10089411444E+02 -0.29169395939E+01  0.76293383525E+01  0.12981200390E+02  0.00000000000E+00 0.  1.
</event>
<event>
 7    1  0.1503436E-008  0.4614232E+02  0.7816164E-02  0.1320468E+00
        -11   -1    0    0    0    0  0.00000000000E+00  0.00000000000E+00  0.45593999997E+02  0.45594000000E+02  0.51100000000E-03 0.  1.
         11   -1    0    0    0    0 -0.00000000000E+00 -0.00000000000E+00 -0.45593999997E+02  0.45594000000E+02  0.51100000000E-03 0. -1.
    9900012    2    1    2    0    0 -0.21457337661E+02  0.37228860273E+02  0.13516953496E+02  0.46142318647E+02  0.10000008079E+02 0.  0.
         12    1    1    2    0    0  0.21457337661E+02 -0.37228860273E+02 -0.13516953496E+02  0.45045681353E+02  0.00000000000E+00 0. -1.
         11    1    3    3    0    0 -0.39517482630E+01  0.12838256590E+02  0.36389014156E+01  0.13916851310E+02  0.51100000000E-03 0. -1.
        -11    1    3    3    0    0 -0.16847312101E+02  0.21497505762E+02  0.10375768097E+02  0.29216968407E+02  0.51100000000E-03 0.  1.
        -12    1    3    3    0    0 -0.65827729720E+00  0.28930979210E+01 -0.49771601705E+00  0.30084989304E+01  0.00000000000E+00 0.  1.
</event>
<event>
 7    1  0.1503436E-008  0.4614231E+02  0.7816164E-02  0.1320468E+00
        -11   -1    0    0    0    0  0.00000000000E+00  0.00000000000E+00  0.45593999997E+02  0.45594000000E+02  0.51100000000E-03 0.  1.
         11   -1    0    0    0    0 -0.00000000000E+00 -0.00000000000E+00 -0.45593999997E+02  0.45594000000E+02  0.51100000000E-03 0. -1.
    9900012    2    1    2    0    0 -0.48872394674E+01 -0.37621168786E+02  0.24287379839E+02  0.46142309086E+02  0.99999208955E+01 0.  0.
         12    1    1    2    0    0  0.48872394674E+01  0.37621168786E+02 -0.24287379839E+02  0.45045690914E+02  0.00000000000E+00 0. -1.
         11    1    3    3    0    0 -0.14526710052E+01 -0.42565261916E+01  0.30062337856E+01  0.54097791178E+01  0.51100000000E-03 0. -1.
        -11    1    3    3    0    0 -0.98499458563E+00 -0.27595134690E+02  0.13486241577E+02  0.30730121786E+02  0.51100000000E-03 0.  1.
        -12    1    3    3    0    0 -0.24495738765E+01 -0.57695079050E+01  0.77949044766E+01  0.10002408182E+02  0.00000000000E+00 0.  1.
</event>
<event>
 7    1  0.1503436E-008  0.4614232E+02  0.7816164E-02  0.1320468E+00
        -11   -1    0    0    0    0  0.00000000000E+00  0.00000000000E+00  0.45593999997E+02  0.45594000000E+02  0.51100000000E-03 0.  1.
         11   -1    0    0    0    0 -0.00000000000E+00 -0.00000000000E+00 -0.45593999997E+02  0.45594000000E+02  0.51100000000E-03 0. -1.
    9900012    2    1    2    0    0 -0.39487433086E+02  0.22045081181E+01  0.21563770370E+02  0.46142318516E+02  0.10000006886E+02 0.  0.
         12    1    1    2    0    0  0.39487433086E+02 -0.22045081181E+01 -0.21563770370E+02  0.45045681484E+02  0.00000000000E+00 0. -1.
         11    1    3    3    0    0 -0.14466850659E+02  0.45892534110E+01  0.65191351493E+01  0.16518175995E+02  0.51100000000E-03 0. -1.
        -11    1    3    3    0    0 -0.21645847133E+02 -0.34046346694E+01  0.12101172374E+02  0.25031432408E+02  0.51100000000E-03 0.  1.
        -12    1    3    3    0    0 -0.33747352949E+01  0.10198893766E+01  0.29434628471E+01  0.45927101131E+01  0.00000000000E+00 0.  1.
</event>
<event>
 7    1  0.1503436E-008  0.4614232E+02  0.7816164E-02  0.1320468E+00
        -11   -1    0    0    0    0  0.00000000000E+00  0.00000000000E+00  0.45593999997E+02  0.45594000000E+02  0.51100000000E-03 0. -1.
         11   -1    0    0    0    0 -0.00000000000E+00 -0.00000000000E+00 -0.45593999997E+02  0.45594000000E+02  0.51100000000E-03 0.  1.
    9900012    2    1    2    0    0  0.22985085980E+02  0.21188268787E+02 -0.32432338768E+02  0.46142317525E+02  0.99999978475E+01 0.  0.
         12    1    1    2    0    0 -0.22985085980E+02 -0.21188268787E+02  0.32432338768E+02  0.45045682475E+02  0.00000000000E+00 0. -1.
         11    1    3    3    0    0  0.92026094773E+01  0.51856579470E+01 -0.14857917170E+02  0.18230106210E+02  0.51100000000E-03 0. -1.
        -11    1    3    3    0    0  0.25507852695E+01  0.32443096566E+01 -0.11701996176E+01  0.42896874064E+01  0.51100000000E-03 0.  1.
         12    1    3    3    0    0  0.11231691233E+02  0.12758301183E+02 -0.16404221980E+02  0.23622523908E+02  0.00000000000E+00 0. -1.
</event>
<event>
 7    1  0.1503436E-008  0.4614232E+02  0.7816164E-02  0.1320468E+00
        -11   -1    0    0    0    0  0.00000000000E+00  0.00000000000E+00  0.45593999997E+02  0.45594000000E+02  0.51100000000E-03 0. -1.
         11   -1    0    0    0    0 -0.00000000000E+00 -0.00000000000E+00 -0.45593999997E+02  0.45594000000E+02  0.51100000000E-03 0.  1.
    9900012    2    1    2    0    0  0.28786326006E+02  0.27255051136E+02 -0.21392123935E+02  0.46142319366E+02  0.10000014638E+02 0.  0.
         12    1    1    2    0    0 -0.28786326006E+02 -0.27255051136E+02  0.21392123935E+02  0.45045680634E+02  0.00000000000E+00 0. -1.
         11    1    3    3    0    0  0.81616444767E+01  0.12847175222E+02 -0.89177884090E+01  0.17640558441E+02  0.51100000000E-03 0. -1.
        -11    1    3    3    0    0  0.70507421377E+01  0.33341186546E+01 -0.59440939762E+01  0.98062003525E+01  0.51100000000E-03 0.  1.
         12    1    3    3    0    0  0.13573939391E+02  0.11073757259E+02 -0.65302415497E+01  0.18695560573E+02  0.00000000000E+00 0. -1.
</event>
<event>
 7    1  0.1503436E-008  0.4614232E+02  0.7816164E-02  0.1320468E+00
        -11   -1    0    0    0    0  0.00000000000E+00  0.00000000000E+00  0.45593999997E+02  0.45594000000E+02  0.51100000000E-03 0.  1.
         11   -1    0    0    0    0 -0.00000000000E+00 -0.00000000000E+00 -0.45593999997E+02  0.45594000000E+02  0.51100000000E-03 0. -1.
    9900012    2    1    2    0    0  0.82671123636E+01  0.44261711172E+02  0.12920131166E+01  0.46142317403E+02  0.99999967357E+01 0.  0.
         12    1    1    2    0    0 -0.82671123636E+01 -0.44261711172E+02 -0.12920131166E+01  0.45045682597E+02  0.00000000000E+00 0. -1.
         11    1    3    3    0    0 -0.79587130609E+00  0.99564361113E+01 -0.95028597439E+00  0.10033298305E+02  0.51100000000E-03 0. -1.
        -11    1    3    3    0    0  0.79887750842E+01  0.33643753719E+02  0.14304295364E+01  0.34608796867E+02  0.51100000000E-03 0.  1.
        -12    1    3    3    0    0  0.10742085855E+01  0.66152134203E+00  0.81186955468E+00  0.15002222318E+01  0.00000000000E+00 0.  1.
</event>
<event>
 7    1  0.1503436E-008  0.4614232E+02  0.7816164E-02  0.1320468E+00
        -11   -1    0    0    0    0  0.00000000000E+00  0.00000000000E+00  0.45593999997E+02  0.45594000000E+02  0.51100000000E-03 0.  1.
         11   -1    0    0    0    0 -0.00000000000E+00 -0.00000000000E+00 -0.45593999997E+02  0.45594000000E+02  0.51100000000E-03 0. -1.
    9900012    2    1    2    0    0 -0.18615691544E+02  0.23618596669E+02  0.33537014351E+02  0.46142318610E+02  0.10000007743E+02 0.  0.
         12    1    1    2    0    0  0.18615691544E+02 -0.23618596669E+02 -0.33537014351E+02  0.45045681390E+02  0.00000000000E+00 0. -1.
         11    1    3    3    0    0 -0.48944846671E+01  0.95683880627E+01  0.13932068979E+02  0.17595811336E+02  0.51100000000E-03 0. -1.
        -11    1    3    3    0    0 -0.30709302686E+01  0.46352049353E+01  0.98341702153E+01  0.11297196183E+02  0.51100000000E-03 0.  1.
         12    1    3    3    0    0 -0.10650276609E+02  0.94150036710E+01  0.97707751565E+01  0.17249311091E+02  0.00000000000E+00 0. -1.
</event>
<event>
 7    1  0.1503436E-008  0.4614232E+02  0.7816164E-02  0.1320468E+00
        -11   -1    0    0    0    0  0.00000000000E+00  0.00000000000E+00  0.45593999997E+02  0.45594000000E+02  0.51100000000E-03 0.  1.
         11   -1    0    0    0    0 -0.00000000000E+00 -0.00000000000E+00 -0.45593999997E+02  0.45594000000E+02  0.51100000000E-03 0. -1.
    9900012    2    1    2    0    0 -0.16093627278E+02 -0.14033591970E+02  0.39663168599E+02  0.46142317789E+02  0.10000000256E+02 0.  0.
         12    1    1    2    0    0  0.16093627278E+02  0.14033591970E+02 -0.39663168599E+02  0.45045682211E+02  0.00000000000E+00 0. -1.
         11    1    3    3    0    0 -0.11793888836E+02 -0.10387911650E+02  0.25403282823E+02  0.29871914917E+02  0.51100000000E-03 0.  1.
        -11    1    3    3    0    0  0.28864881477E+00  0.11274591586E+01  0.15373832651E+01  0.19282193489E+01  0.51100000000E-03 0. -1.
         12    1    3    3    0    0 -0.45883872567E+01 -0.47731394791E+01  0.12722502510E+02  0.14342183524E+02  0.00000000000E+00 0. -1.
</event>
<event>
 7    1  0.1503436E-008  0.4614232E+02  0.7816164E-02  0.1320468E+00
        -11   -1    0    0    0    0  0.00000000000E+00  0.00000000000E+00  0.45593999997E+02  0.45594000000E+02  0.51100000000E-03 0.  1.
         11   -1    0    0    0    0 -0.00000000000E+00 -0.00000000000E+00 -0.45593999997E+02  0.45594000000E+02  0.51100000000E-03 0. -1.
    9900012    2    1    2    0    0  0.79502580562E+01  0.39519270626E+02  0.20103088527E+02  0.46142317384E+02  0.99999965642E+01 0.  0.
         12    1    1    2    0    0 -0.79502580562E+01 -0.39519270626E+02 -0.20103088527E+02  0.45045682616E+02  0.00000000000E+00 0. -1.
         11    1    3    3    0    0  0.45230904759E+01  0.11086429402E+02  0.23958390807E+01  0.12210950393E+02  0.51100000000E-03 0. -1.
        -11    1    3    3    0    0  0.25473969741E+01  0.94905433675E+01  0.77400792767E+01  0.12508735836E+02  0.51100000000E-03 0.  1.
        -12    1    3    3    0    0  0.87977060621E+00  0.18942297857E+02  0.99671701697E+01  0.21422631155E+02  0.00000000000E+00 0.  1.
</event>
<event>
 7    1  0.1503436E-008  0.4614232E+02  0.7816164E-02  0.1320468E+00
        -11   -1    0    0    0    0  0.00000000000E+00  0.00000000000E+00  0.45593999997E+02  0.45594000000E+02  0.51100000000E-03 0.  1.
         11   -1    0    0    0    0 -0.00000000000E+00 -0.00000000000E+00 -0.45593999997E+02  0.45594000000E+02  0.51100000000E-03 0. -1.
    9900012    2    1    2    0    0  0.25137408003E+02 -0.29566811998E+02  0.22869800608E+02  0.46142318379E+02  0.10000005638E+02 0.  0.
         12    1    1    2    0    0 -0.25137408003E+02  0.29566811998E+02 -0.22869800608E+02  0.45045681621E+02  0.00000000000E+00 0. -1.
         11    1    3    3    0    0  0.81918338067E+01 -0.11192754962E+02  0.32432245188E+01  0.14244381710E+02  0.51100000000E-03 0. -1.
        -11    1    3    3    0    0  0.12809744279E+02 -0.12051750393E+02  0.13531228936E+02  0.22190727632E+02  0.51100000000E-03 0.  1.
        -12    1    3    3    0    0  0.41358299165E+01 -0.63223066436E+01  0.60953471528E+01  0.97072090379E+01  0.00000000000E+00 0.  1.
</event>
<event>
 7    1  0.1503436E-008  0.4614232E+02  0.7816164E-02  0.1320468E+00
        -11   -1    0    0    0    0  0.00000000000E+00  0.00000000000E+00  0.45593999997E+02  0.45594000000E+02  0.51100000000E-03 0.  1.
         11   -1    0    0    0    0 -0.00000000000E+00 -0.00000000000E+00 -0.45593999997E+02  0.45594000000E+02  0.51100000000E-03 0. -1.
    9900012    2    1    2    0    0 -0.37090439721E+02 -0.13183678305E+02  0.21899847991E+02  0.46142318361E+02  0.10000005468E+02 0.  0.
         12    1    1    2    0    0  0.37090439721E+02  0.13183678305E+02 -0.21899847991E+02  0.45045681639E+02  0.00000000000E+00 0. -1.
         11    1    3    3    0    0 -0.18248319461E+02 -0.26478786974E+01  0.65761566348E+01  0.19576982941E+02  0.51100000000E-03 0. -1.
        -11    1    3    3    0    0 -0.56369510215E+01 -0.30774024203E+01  0.58247113928E+01  0.86702298439E+01  0.51100000000E-03 0.  1.
        -12    1    3    3    0    0 -0.13205169239E+02 -0.74583971870E+01  0.94989799629E+01  0.17895105576E+02  0.00000000000E+00 0.  1.
</event>
<event>
 7    1  0.1503436E-008  0.4614232E+02  0.7816164E-02  0.1320468E+00
        -11   -1    0    0    0    0  0.00000000000E+00  0.00000000000E+00  0.45593999997E+02  0.45594000000E+02  0.51100000000E-03 0.  1.
         11   -1    0    0    0    0 -0.00000000000E+00 -0.00000000000E+00 -0.45593999997E+02  0.45594000000E+02  0.51100000000E-03 0. -1.
    9900012    2    1    2    0    0 -0.31434355302E+02  0.11112746271E+02  0.30290288827E+02  0.46142318518E+02  0.10000006902E+02 0.  0.
         12    1    1    2    0    0  0.31434355302E+02 -0.11112746271E+02 -0.30290288827E+02  0.45045681482E+02  0.00000000000E+00 0. -1.
         11    1    3    3    0    0 -0.15618465307E+02  0.10652613604E+02  0.16065476805E+02  0.24809558246E+02  0.51100000000E-03 0. -1.
        -11    1    3    3    0    0 -0.70396799664E+01  0.94386463340E+00  0.60755849454E+01  0.93466949863E+01  0.51100000000E-03 0.  1.
         12    1    3    3    0    0 -0.87762100288E+01 -0.48373196595E+00  0.81492270769E+01  0.11986065286E+02  0.00000000000E+00 0. -1.
</event>
<event>
 7    1  0.1503436E-008  0.4614232E+02  0.7816164E-02  0.1320468E+00
        -11   -1    0    0    0    0  0.00000000000E+00  0.00000000000E+00  0.45593999997E+02  0.45594000000E+02  0.51100000000E-03 0.  1.
         11   -1    0    0    0    0 -0.00000000000E+00 -0.00000000000E+00 -0.45593999997E+02  0.45594000000E+02  0.51100000000E-03 0. -1.
    9900012    2    1    2    0    0 -0.42625871248E+02 -0.14327033937E+02  0.26238561460E+01  0.46142318496E+02  0.10000006701E+02 0.  0.
         12    1    1    2    0    0  0.42625871248E+02  0.14327033937E+02 -0.26238561460E+01  0.45045681504E+02  0.00000000000E+00 0. -1.
         11    1    3    3    0    0 -0.95594475547E+01 -0.59208588795E+01 -0.60680112348E+00  0.11260897623E+02  0.51100000000E-03 0. -1.
        -11    1    3    3    0    0 -0.30907802529E+01 -0.25896102799E+01  0.14843034812E+01  0.42967616944E+01  0.51100000000E-03 0.  1.
         12    1    3    3    0    0 -0.29975643440E+02 -0.58165647777E+01  0.17463537883E+01  0.30584659178E+02  0.00000000000E+00 0. -1.
</event>
<event>
 7    1  0.1503436E-008  0.4614232E+02  0.7816164E-02  0.1320468E+00
        -11   -1    0    0    0    0  0.00000000000E+00  0.00000000000E+00  0.45593999997E+02  0.45594000000E+02  0.51100000000E-03 0. -1.
         11   -1    0    0    0    0 -0.00000000000E+00 -0.00000000000E+00 -0.45593999997E+02  0.45594000000E+02  0.51100000000E-03 0.  1.
    9900012    2    1    2    0    0  0.38397648530E+02 -0.21576048612E+02 -0.94450055544E+01  0.46142318561E+02  0.10000007294E+02 0.  0.
         12    1    1    2    0    0 -0.38397648530E+02  0.21576048612E+02  0.94450055544E+01  0.45045681439E+02  0.00000000000E+00 0. -1.
         11    1    3    3    0    0  0.20868318042E+02 -0.15668169848E+02 -0.56222551643E+01  0.26694343927E+02  0.51100000000E-03 0. -1.
        -11    1    3    3    0    0  0.76044179725E+01 -0.37962366468E+01  0.27735712292E+00  0.85038528100E+01  0.51100000000E-03 0.  1.
         12    1    3    3    0    0  0.99249125159E+01 -0.21116421170E+01 -0.41001075131E+01  0.10944121824E+02  0.00000000000E+00 0. -1.
</event>
<event>
 7    1  0.1503436E-008  0.4614232E+02  0.7816164E-02  0.1320468E+00
        -11   -1    0    0    0    0  0.00000000000E+00  0.00000000000E+00  0.45593999997E+02  0.45594000000E+02  0.51100000000E-03 0.  1.
         11   -1    0    0    0    0 -0.00000000000E+00 -0.00000000000E+00 -0.45593999997E+02  0.45594000000E+02  0.51100000000E-03 0. -1.
    9900012    2    1    2    0    0  0.33524816326E+02  0.30083655885E+02  0.41662949581E+00  0.46142320504E+02  0.10000025015E+02 0.  0.
         12    1    1    2    0    0 -0.33524816326E+02 -0.30083655885E+02 -0.41662949581E+00  0.45045679496E+02  0.00000000000E+00 0. -1.
         11    1    3    3    0    0  0.59230406378E+01  0.31067708804E+01 -0.10415772525E+01  0.67689969076E+01  0.51100000000E-03 0. -1.
        -11    1    3    3    0    0  0.14875523236E+02  0.17647612175E+02 -0.21686437625E+01  0.23182373111E+02  0.51100000000E-03 0.  1.
         12    1    3    3    0    0  0.12726252452E+02  0.93292728290E+01  0.36268505109E+01  0.16190950486E+02  0.00000000000E+00 0. -1.
</event>
<event>
 7    1  0.1503436E-008  0.4614232E+02  0.7816164E-02  0.1320468E+00
        -11   -1    0    0    0    0  0.00000000000E+00  0.00000000000E+00  0.45593999997E+02  0.45594000000E+02  0.51100000000E-03 0. -1.
         11   -1    0    0    0    0 -0.00000000000E+00 -0.00000000000E+00 -0.45593999997E+02  0.45594000000E+02  0.51100000000E-03 0.  1.
    9900012    2    1    2    0    0  0.44659707319E+02 -0.37666347522E+01  0.45206767569E+01  0.46142317482E+02  0.99999974504E+01 0.  0.
         12    1    1    2    0    0 -0.44659707319E+02  0.37666347522E+01 -0.45206767569E+01  0.45045682518E+02  0.00000000000E+00 0. -1.
         11    1    3    3    0    0  0.17285409745E+01 -0.11680881680E+01 -0.59031204263E+00  0.21681218687E+01  0.51100000000E-03 0.  1.
        -11    1    3    3    0    0  0.20500413637E+02 -0.24588429140E+01  0.60743580284E+01  0.21522330113E+02  0.51100000000E-03 0. -1.
         12    1    3    3    0    0  0.22430752708E+02 -0.13970367020E+00 -0.96336922884E+00  0.22451865500E+02  0.00000000000E+00 0. -1.
</event>
<event>
 7    1  0.1503436E-008  0.4614232E+02  0.7816164E-02  0.1320468E+00
        -11   -1    0    0    0    0  0.00000000000E+00  0.00000000000E+00  0.45593999997E+02  0.45594000000E+02  0.51100000000E-03 0.  1.
         11   -1    0    0    0    0 -0.00000000000E+00 -0.00000000000E+00 -0.45593999997E+02  0.45594000000E+02  0.51100000000E-03 0. -1.
    9900012    2    1    2    0    0 -0.89975129693E+01 -0.13695825684E+01  0.44116691188E+02  0.46142318326E+02  0.10000005153E+02 0.  0.
         12    1    1    2    0    0  0.89975129693E+01  0.13695825684E+01 -0.44116691188E+02  0.45045681674E+02  0.00000000000E+00 0. -1.
         11    1    3    3    0    0 -0.17527088054E+01 -0.20106834037E+01  0.62603926162E+01  0.68049505418E+01  0.51100000000E-03 0. -1.
        -11    1    3    3    0    0 -0.80574056623E+01 -0.75207862880E+00  0.35905694319E+02  0.36806334958E+02  0.51100000000E-03 0.  1.
         12    1    3    3    0    0  0.81260149832E+00  0.13931794641E+01  0.19506042535E+01  0.25310328263E+01  0.00000000000E+00 0. -1.
</event>
<event>
 7    1  0.1503436E-008  0.4614232E+02  0.7816164E-02  0.1320468E+00
        -11   -1    0    0    0    0  0.00000000000E+00  0.00000000000E+00  0.45593999997E+02  0.45594000000E+02  0.51100000000E-03 0.  1.
         11   -1    0    0    0    0 -0.00000000000E+00 -0.00000000000E+00 -0.45593999997E+02  0.45594000000E+02  0.51100000000E-03 0. -1.
    9900012    2    1    2    0    0 -0.25764734888E+02  0.27397220054E+02  0.24792826655E+02  0.46142317809E+02  0.10000000433E+02 0.  0.
         12    1    1    2    0    0  0.25764734888E+02 -0.27397220054E+02 -0.24792826655E+02  0.45045682191E+02  0.00000000000E+00 0. -1.
         11    1    3    3    0    0 -0.89209541807E+01  0.11978988303E+02  0.59915636867E+01  0.16092806465E+02  0.51100000000E-03 0. -1.
        -11    1    3    3    0    0 -0.63736122267E+01  0.74770478268E+01  0.11077239243E+02  0.14806566331E+02  0.51100000000E-03 0.  1.
        -12    1    3    3    0    0 -0.10470168480E+02  0.79411839247E+01  0.77240237260E+01  0.15242945012E+02  0.00000000000E+00 0.  1.
</event>
<event>
 7    1  0.1503436E-008  0.4614232E+02  0.7816164E-02  0.1320468E+00
        -11   -1    0    0    0    0  0.00000000000E+00  0.00000000000E+00  0.45593999997E+02  0.45594000000E+02  0.51100000000E-03 0.  1.
         11   -1    0    0    0    0 -0.00000000000E+00 -0.00000000000E+00 -0.45593999997E+02  0.45594000000E+02  0.51100000000E-03 0. -1.
    9900012    2    1    2    0    0 -0.26306695879E+02  0.11314792700E+02  0.34771349024E+02  0.46142317689E+02  0.99999993402E+01 0.  0.
         12    1    1    2    0    0  0.26306695879E+02 -0.11314792700E+02 -0.34771349024E+02  0.45045682311E+02  0.00000000000E+00 0. -1.
         11    1    3    3    0    0 -0.14355943063E+02  0.10222878892E+01  0.14224843021E+02  0.20235719236E+02  0.51100000000E-03 0. -1.
        -11    1    3    3    0    0 -0.58507635095E+01  0.53217904199E+01  0.10110402665E+02  0.12836398608E+02  0.51100000000E-03 0.  1.
         12    1    3    3    0    0 -0.60999893065E+01  0.49707143907E+01  0.10436103338E+02  0.13070199845E+02  0.00000000000E+00 0. -1.
</event>
<event>
 7    1  0.1503436E-008  0.4614232E+02  0.7816164E-02  0.1320468E+00
        -11   -1    0    0    0    0  0.00000000000E+00  0.00000000000E+00  0.45593999997E+02  0.45594000000E+02  0.51100000000E-03 0. -1.
         11   -1    0    0    0    0 -0.00000000000E+00 -0.00000000000E+00 -0.45593999997E+02  0.45594000000E+02  0.51100000000E-03 0.  1.
    9900012    2    1    2    0    0 -0.23855623091E+02 -0.19710898874E+00 -0.38209735253E+02  0.46142317930E+02  0.10000001542E+02 0.  0.
         12    1    1    2    0    0  0.23855623091E+02  0.19710898874E+00  0.38209735253E+02  0.45045682070E+02  0.00000000000E+00 0. -1.
         11    1    3    3    0    0 -0.12595744901E+02  0.22471757498E+01 -0.20512152596E+02  0.24175421255E+02  0.51100000000E-03 0. -1.
        -11    1    3    3    0    0 -0.99075426572E+01 -0.13587417252E-01 -0.15611656628E+02  0.18490089482E+02  0.51100000000E-03 0.  1.
         12    1    3    3    0    0 -0.13523355332E+01 -0.24306973213E+01 -0.20859260288E+01  0.34768071933E+01  0.00000000000E+00 0. -1.
</event>
<event>
 7    1  0.1503436E-008  0.4614232E+02  0.7816164E-02  0.1320468E+00
        -11   -1    0    0    0    0  0.00000000000E+00  0.00000000000E+00  0.45593999997E+02  0.45594000000E+02  0.51100000000E-03 0. -1.
         11   -1    0    0    0    0 -0.00000000000E+00 -0.00000000000E+00 -0.45593999997E+02  0.45594000000E+02  0.51100000000E-03 0.  1.
    9900012    2    1    2    0    0  0.90461288753E+01  0.37271628560E+02 -0.23624282346E+02  0.46142318081E+02  0.10000002920E+02 0.  0.
         12    1    1    2    0    0 -0.90461288753E+01 -0.37271628560E+02  0.23624282346E+02  0.45045681919E+02  0.00000000000E+00 0. -1.
         11    1    3    3    0    0  0.11049878425E+01  0.18583232368E+01  0.15709388699E+00  0.21677274125E+01  0.51100000000E-03 0. -1.
        -11    1    3    3    0    0 -0.12470729106E+01  0.46124726715E+01 -0.40148027276E+01  0.62408922593E+01  0.51100000000E-03 0.  1.
        -12    1    3    3    0    0  0.91882139434E+01  0.30800832652E+02 -0.19766573505E+02  0.37733698410E+02  0.00000000000E+00 0.  1.
</event>
<event>
 7    1  0.1503436E-008  0.4614232E+02  0.7816164E-02  0.1320468E+00
        -11   -1    0    0    0    0  0.00000000000E+00  0.00000000000E+00  0.45593999997E+02  0.45594000000E+02  0.51100000000E-03 0. -1.
         11   -1    0    0    0    0 -0.00000000000E+00 -0.00000000000E+00 -0.45593999997E+02  0.45594000000E+02  0.51100000000E-03 0.  1.
    9900012    2    1    2    0    0 -0.89808259653E+00 -0.37625193197E+02 -0.24751801574E+02  0.46142318779E+02  0.10000009285E+02 0.  0.
         12    1    1    2    0    0  0.89808259653E+00  0.37625193197E+02  0.24751801574E+02  0.45045681221E+02  0.00000000000E+00 0. -1.
         11    1    3    3    0    0 -0.23620272582E+01 -0.16358847675E+02 -0.14288628736E+02  0.21848477783E+02  0.51100000000E-03 0. -1.
        -11    1    3    3    0    0  0.10583051617E+01 -0.17292324164E+02 -0.10575793942E+02  0.20297583663E+02  0.51100000000E-03 0.  1.
         12    1    3    3    0    0  0.40563949995E+00 -0.39740213576E+01  0.11262110392E+00  0.39962573325E+01  0.00000000000E+00 0. -1.
</event>
<event>
 7    1  0.1503436E-008  0.4614232E+02  0.7816164E-02  0.1320468E+00
        -11   -1    0    0    0    0  0.00000000000E+00  0.00000000000E+00  0.45593999997E+02  0.45594000000E+02  0.51100000000E-03 0.  1.
         11   -1    0    0    0    0 -0.00000000000E+00 -0.00000000000E+00 -0.45593999997E+02  0.45594000000E+02  0.51100000000E-03 0. -1.
    9900012    2    1    2    0    0  0.34984515843E+02 -0.27586136352E+02 -0.66484759770E+01  0.46142317628E+02  0.99999987831E+01 0.  0.
         12    1    1    2    0    0 -0.34984515843E+02  0.27586136352E+02  0.66484759770E+01  0.45045682372E+02  0.00000000000E+00 0. -1.
         11    1    3    3    0    0  0.17529342806E+02 -0.16188757902E+02 -0.51206905062E+01  0.24404409707E+02  0.51100000000E-03 0. -1.
        -11    1    3    3    0    0  0.17669066147E+02 -0.11071686131E+02 -0.21936580154E+01  0.20966408086E+02  0.51100000000E-03 0.  1.
         12    1    3    3    0    0 -0.21389311005E+00 -0.32569231877E+00  0.66587254463E+00  0.77149983456E+00  0.00000000000E+00 0. -1.
</event>
<event>
 7    1  0.1503436E-008  0.4614232E+02  0.7816164E-02  0.1320468E+00
        -11   -1    0    0    0    0  0.00000000000E+00  0.00000000000E+00  0.45593999997E+02  0.45594000000E+02  0.51100000000E-03 0.  1.
         11   -1    0    0    0    0 -0.00000000000E+00 -0.00000000000E+00 -0.45593999997E+02  0.45594000000E+02  0.51100000000E-03 0. -1.
    9900012    2    1    2    0    0  0.12107621648E+02 -0.79873118936E+01  0.42646474499E+02  0.46142318292E+02  0.10000004845E+02 0.  0.
         12    1    1    2    0    0 -0.12107621648E+02  0.79873118936E+01 -0.42646474499E+02  0.45045681708E+02  0.00000000000E+00 0. -1.
         11    1    3    3    0    0  0.39565681044E+01 -0.13108078936E+01  0.33116728096E+01  0.53235162776E+01  0.51100000000E-03 0. -1.
        -11    1    3    3    0    0  0.70814550785E+01 -0.42613812293E+01  0.29909937017E+02  0.31030802578E+02  0.51100000000E-03 0.  1.
         12    1    3    3    0    0  0.10695984653E+01 -0.24151227706E+01  0.94248646724E+01  0.97879994365E+01  0.00000000000E+00 0. -1.
</event>
<event>
 7    1  0.1503436E-008  0.4614232E+02  0.7816164E-02  0.1320468E+00
        -11   -1    0    0    0    0  0.00000000000E+00  0.00000000000E+00  0.45593999997E+02  0.45594000000E+02  0.51100000000E-03 0.  1.
         11   -1    0    0    0    0 -0.00000000000E+00 -0.00000000000E+00 -0.45593999997E+02  0.45594000000E+02  0.51100000000E-03 0. -1.
    9900012    2    1    2    0    0 -0.19205797678E+02 -0.40043017938E+02  0.75370500022E+01  0.46142322374E+02  0.10000042067E+02 0.  0.
         12    1    1    2    0    0  0.19205797678E+02  0.40043017938E+02 -0.75370500022E+01  0.45045677626E+02  0.00000000000E+00 0. -1.
         11    1    3    3    0    0 -0.36248719090E+00 -0.16268076335E+01  0.21250067187E+01  0.27006580412E+01  0.51100000000E-03 0. -1.
        -11    1    3    3    0    0 -0.66219708746E+01 -0.10990680730E+02 -0.49417703159E+00  0.12840941258E+02  0.51100000000E-03 0.  1.
        -12    1    3    3    0    0 -0.12221339612E+02 -0.27425529574E+02  0.59062203151E+01  0.30600723075E+02  0.00000000000E+00 0.  1.
</event>
<event>
 7    1  0.1503436E-008  0.4614232E+02  0.7816164E-02  0.1320468E+00
        -11   -1    0    0    0    0  0.00000000000E+00  0.00000000000E+00  0.45593999997E+02  0.45594000000E+02  0.51100000000E-03 0. -1.
         11   -1    0    0    0    0 -0.00000000000E+00 -0.00000000000E+00 -0.45593999997E+02  0.45594000000E+02  0.51100000000E-03 0.  1.
    9900012    2    1    2    0    0  0.37896694453E+02  0.24235556822E+02 -0.23647063058E+01  0.46142317622E+02  0.99999987358E+01 0.  0.
         12    1    1    2    0    0 -0.37896694453E+02 -0.24235556822E+02  0.23647063058E+01  0.45045682378E+02  0.00000000000E+00 0. -1.
         11    1    3    3    0    0  0.32353976911E+01  0.31524419717E+01  0.22950893019E+01  0.50668652804E+01  0.51100000000E-03 0. -1.
        -11    1    3    3    0    0  0.12281679873E+02  0.69295152733E+01 -0.36972272901E+01  0.14578317198E+02  0.51100000000E-03 0.  1.
        -12    1    3    3    0    0  0.22379616889E+02  0.14153599577E+02 -0.96256831757E+00  0.26497135144E+02  0.00000000000E+00 0.  1.
</event>
<event>
 7    1  0.1503436E-008  0.4614232E+02  0.7816164E-02  0.1320468E+00
        -11   -1    0    0    0    0  0.00000000000E+00  0.00000000000E+00  0.45593999997E+02  0.45594000000E+02  0.51100000000E-03 0.  1.
         11   -1    0    0    0    0 -0.00000000000E+00 -0.00000000000E+00 -0.45593999997E+02  0.45594000000E+02  0.51100000000E-03 0. -1.
    9900012    2    1    2    0    0  0.42840574972E+00 -0.28925841739E+02  0.34528620354E+02  0.46142317906E+02  0.10000001317E+02 0.  0.
         12    1    1    2    0    0 -0.42840574972E+00  0.28925841739E+02 -0.34528620354E+02  0.45045682094E+02  0.00000000000E+00 0. -1.
         11    1    3    3    0    0  0.26771583989E+01 -0.43788084957E+01  0.27043856717E+01  0.58012794328E+01  0.51100000000E-03 0. -1.
        -11    1    3    3    0    0 -0.21532481260E+01 -0.18454245882E+02  0.22185994666E+02  0.28938106852E+02  0.51100000000E-03 0.  1.
        -12    1    3    3    0    0 -0.95504523222E-01 -0.60927873604E+01  0.96382400162E+01  0.11402931621E+02  0.00000000000E+00 0.  1.
</event>
<event>
 7    1  0.1503436E-008  0.4614232E+02  0.7816164E-02  0.1320468E+00
        -11   -1    0    0    0    0  0.00000000000E+00  0.00000000000E+00  0.45593999997E+02  0.45594000000E+02  0.51100000000E-03 0. -1.
         11   -1    0    0    0    0 -0.00000000000E+00 -0.00000000000E+00 -0.45593999997E+02  0.45594000000E+02  0.51100000000E-03 0.  1.
    9900012    2    1    2    0    0  0.26031705829E+02 -0.10892940935E+02 -0.35111360404E+02  0.46142317632E+02  0.99999988243E+01 0.  0.
         12    1    1    2    0    0 -0.26031705829E+02  0.10892940935E+02  0.35111360404E+02  0.45045682368E+02  0.00000000000E+00 0. -1.
         11    1    3    3    0    0  0.10478412416E+02 -0.26880154999E+01 -0.10734762942E+02  0.15240002945E+02  0.51100000000E-03 0.  1.
        -11    1    3    3    0    0  0.11086760884E+02 -0.91997117928E+01 -0.18931133190E+02  0.23789467587E+02  0.51100000000E-03 0. -1.
        -12    1    3    3    0    0  0.44665325286E+01  0.99478635726E+00 -0.54454642724E+01  0.71128471000E+01  0.00000000000E+00 0.  1.
</event>
<event>
 7    1  0.1503436E-008  0.4614231E+02  0.7816164E-02  0.1320468E+00
        -11   -1    0    0    0    0  0.00000000000E+00  0.00000000000E+00  0.45593999997E+02  0.45594000000E+02  0.51100000000E-03 0.  1.
         11   -1    0    0    0    0 -0.00000000000E+00 -0.00000000000E+00 -0.45593999997E+02  0.45594000000E+02  0.51100000000E-03 0. -1.
    9900012    2    1    2    0    0  0.45037689745E+02 -0.38026411868E+00 -0.75876302510E+00  0.46142314084E+02  0.99999664662E+01 0.  0.
         12    1    1    2    0    0 -0.45037689745E+02  0.38026411868E+00  0.75876302510E+00  0.45045685916E+02  0.00000000000E+00 0. -1.
         11    1    3    3    0    0  0.88447976319E+01 -0.38155773489E+01 -0.91984548088E+00  0.96765278703E+01  0.51100000000E-03 0. -1.
        -11    1    3    3    0    0  0.19073968292E+02  0.24665592992E+01  0.13369472716E+01  0.19279201474E+02  0.51100000000E-03 0.  1.
        -12    1    3    3    0    0  0.17118923821E+02  0.96875393106E+00 -0.11758648158E+01  0.17186584740E+02  0.00000000000E+00 0.  1.
</event>
<event>
 7    1  0.1503436E-008  0.4614232E+02  0.7816164E-02  0.1320468E+00
        -11   -1    0    0    0    0  0.00000000000E+00  0.00000000000E+00  0.45593999997E+02  0.45594000000E+02  0.51100000000E-03 0.  1.
         11   -1    0    0    0    0 -0.00000000000E+00 -0.00000000000E+00 -0.45593999997E+02  0.45594000000E+02  0.51100000000E-03 0. -1.
    9900012    2    1    2    0    0 -0.36905964542E+02 -0.52818544749E+01  0.25281718789E+02  0.46142317517E+02  0.99999977722E+01 0.  0.
         12    1    1    2    0    0  0.36905964542E+02  0.52818544749E+01 -0.25281718789E+02  0.45045682483E+02  0.00000000000E+00 0. -1.
         11    1    3    3    0    0 -0.20826262703E+01  0.12196803038E+01  0.18787995691E+00  0.24207956057E+01  0.51100000000E-03 0. -1.
        -11    1    3    3    0    0 -0.33522836337E+02 -0.71981303760E+01  0.23613882286E+02  0.41631827654E+02  0.51100000000E-03 0.  1.
        -12    1    3    3    0    0 -0.13005019347E+01  0.69659559724E+00  0.14799565460E+01  0.20896942567E+01  0.00000000000E+00 0.  1.
</event>
<event>
 7    1  0.1503436E-008  0.4614232E+02  0.7816164E-02  0.1320468E+00
        -11   -1    0    0    0    0  0.00000000000E+00  0.00000000000E+00  0.45593999997E+02  0.45594000000E+02  0.51100000000E-03 0.  1.
         11   -1    0    0    0    0 -0.00000000000E+00 -0.00000000000E+00 -0.45593999997E+02  0.45594000000E+02  0.51100000000E-03 0. -1.
    9900012    2    1    2    0    0  0.20971208357E+02 -0.29145827011E+02  0.27200048683E+02  0.46142318071E+02  0.10000002825E+02 0.  0.
         12    1    1    2    0    0 -0.20971208357E+02  0.29145827011E+02 -0.27200048683E+02  0.45045681929E+02  0.00000000000E+00 0. -1.
         11    1    3    3    0    0  0.25438871832E+01 -0.77489324068E+01  0.34287905590E+01  0.88472549644E+01  0.51100000000E-03 0. -1.
        -11    1    3    3    0    0  0.13422615204E+02 -0.16441860134E+02  0.14734538949E+02  0.25838111422E+02  0.51100000000E-03 0.  1.
        -12    1    3    3    0    0  0.50047059698E+01 -0.49550344702E+01  0.90367191749E+01  0.11456951684E+02  0.00000000000E+00 0.  1.
</event>
<event>
 7    1  0.1503436E-008  0.4614232E+02  0.7816164E-02  0.1320468E+00
        -11   -1    0    0    0    0  0.00000000000E+00  0.00000000000E+00  0.45593999997E+02  0.45594000000E+02  0.51100000000E-03 0. -1.
         11   -1    0    0    0    0 -0.00000000000E+00 -0.00000000000E+00 -0.45593999997E+02  0.45594000000E+02  0.51100000000E-03 0.  1.
    9900012    2    1    2    0    0 -0.12867877025E+02  0.42386751296E+02  0.81789115550E+01  0.46142317202E+02  0.99999948984E+01 0.  0.
         12    1    1    2    0    0  0.12867877025E+02 -0.42386751296E+02 -0.81789115550E+01  0.45045682798E+02  0.00000000000E+00 0. -1.
         11    1    3    3    0    0 -0.17713231027E+01  0.72316817839E+00  0.12669713494E+01  0.22947275241E+01  0.51100000000E-03 0. -1.
        -11    1    3    3    0    0 -0.98063790303E+01  0.35540187704E+02  0.72751522611E+01  0.37579221019E+02  0.51100000000E-03 0.  1.
        -12    1    3    3    0    0 -0.12901748923E+01  0.61233954132E+01 -0.36321205546E+00  0.62683686583E+01  0.00000000000E+00 0.  1.
</event>
<event>
 7    1  0.1503436E-008  0.4614232E+02  0.7816164E-02  0.1320468E+00
        -11   -1    0    0    0    0  0.00000000000E+00  0.00000000000E+00  0.45593999997E+02  0.45594000000E+02  0.51100000000E-03 0.  1.
         11   -1    0    0    0    0 -0.00000000000E+00 -0.00000000000E+00 -0.45593999997E+02  0.45594000000E+02  0.51100000000E-03 0. -1.
    9900012    2    1    2    0    0  0.15141517959E+02 -0.29835648035E+02  0.30160933496E+02  0.46142319084E+02  0.10000012067E+02 0.  0.
         12    1    1    2    0    0 -0.15141517959E+02  0.29835648035E+02 -0.30160933496E+02  0.45045680916E+02  0.00000000000E+00 0. -1.
         11    1    3    3    0    0  0.11768444503E+02 -0.20972697977E+02  0.25889453028E+02  0.35335734389E+02  0.51100000000E-03 0. -1.
        -11    1    3    3    0    0  0.11414309966E+01 -0.42410956402E+01  0.35010029932E+01  0.56166519537E+01  0.51100000000E-03 0.  1.
         12    1    3    3    0    0  0.22316424596E+01 -0.46218544175E+01  0.77047747529E+00  0.51899327417E+01  0.00000000000E+00 0. -1.
</event>
<event>
 7    1  0.1503436E-008  0.4614232E+02  0.7816164E-02  0.1320468E+00
        -11   -1    0    0    0    0  0.00000000000E+00  0.00000000000E+00  0.45593999997E+02  0.45594000000E+02  0.51100000000E-03 0.  1.
         11   -1    0    0    0    0 -0.00000000000E+00 -0.00000000000E+00 -0.45593999997E+02  0.45594000000E+02  0.51100000000E-03 0. -1.
    9900012    2    1    2    0    0 -0.17258751454E+02  0.20862625828E+02  0.35999997496E+02  0.46142317877E+02  0.10000001060E+02 0.  0.
         12    1    1    2    0    0  0.17258751454E+02 -0.20862625828E+02 -0.35999997496E+02  0.45045682123E+02  0.00000000000E+00 0. -1.
         11    1    3    3    0    0 -0.26359898490E+01 -0.51490814124E+00  0.23025006178E+01  0.35376662130E+01  0.51100000000E-03 0. -1.
        -11    1    3    3    0    0 -0.10842756798E+02  0.16068635351E+02  0.23011521719E+02  0.30088146322E+02  0.51100000000E-03 0.  1.
        -12    1    3    3    0    0 -0.37800048077E+01  0.53088986182E+01  0.10685975159E+02  0.12516505342E+02  0.00000000000E+00 0.  1.
</event>
<event>
 7    1  0.1503436E-008  0.4614232E+02  0.7816164E-02  0.1320468E+00
        -11   -1    0    0    0    0  0.00000000000E+00  0.00000000000E+00  0.45593999997E+02  0.45594000000E+02  0.51100000000E-03 0.  1.
         11   -1    0    0    0    0 -0.00000000000E+00 -0.00000000000E+00 -0.45593999997E+02  0.45594000000E+02  0.51100000000E-03 0. -1.
    9900012    2    1    2    0    0  0.28209727127E+02  0.23105884258E+02  0.26446982523E+02  0.46142317893E+02  0.10000001201E+02 0.  0.
         12    1    1    2    0    0 -0.28209727127E+02 -0.23105884258E+02 -0.26446982523E+02  0.45045682107E+02  0.00000000000E+00 0. -1.
         11    1    3    3    0    0  0.57617235225E+01  0.81106128581E+01  0.10953633474E+02  0.14797350622E+02  0.51100000000E-03 0. -1.
        -11    1    3    3    0    0  0.18704552991E+02  0.11071398779E+02  0.13385533206E+02  0.25526626745E+02  0.51100000000E-03 0.  1.
         12    1    3    3    0    0  0.37434506134E+01  0.39238726218E+01  0.21078158425E+01  0.58183405257E+01  0.00000000000E+00 0. -1.
</event>
<event>
 7    1  0.1503436E-008  0.4614232E+02  0.7816164E-02  0.1320468E+00
        -11   -1    0    0    0    0  0.00000000000E+00  0.00000000000E+00  0.45593999997E+02  0.45594000000E+02  0.51100000000E-03 0. -1.
         11   -1    0    0    0    0 -0.00000000000E+00 -0.00000000000E+00 -0.45593999997E+02  0.45594000000E+02  0.51100000000E-03 0.  1.
    9900012    2    1    2    0    0  0.31078506246E+02 -0.28714039579E+00 -0.32606093900E+02  0.46142319192E+02  0.10000013045E+02 0.  0.
         12    1    1    2    0    0 -0.31078506246E+02  0.28714039579E+00  0.32606093900E+02  0.45045680808E+02  0.00000000000E+00 0. -1.
         11    1    3    3    0    0  0.62270606100E+01  0.34263920311E+01 -0.61085696957E+01  0.93718232047E+01  0.51100000000E-03 0. -1.
        -11    1    3    3    0    0  0.18933297400E+00 -0.23116171381E+00 -0.13262158309E+01  0.13594599679E+01  0.51100000000E-03 0.  1.
         12    1    3    3    0    0  0.24662112662E+02 -0.34823707131E+01 -0.25171308373E+02  0.35411036019E+02  0.00000000000E+00 0. -1.
</event>
<event>
 7    1  0.1503436E-008  0.4614232E+02  0.7816164E-02  0.1320468E+00
        -11   -1    0    0    0    0  0.00000000000E+00  0.00000000000E+00  0.45593999997E+02  0.45594000000E+02  0.51100000000E-03 0.  1.
         11   -1    0    0    0    0 -0.00000000000E+00 -0.00000000000E+00 -0.45593999997E+02  0.45594000000E+02  0.51100000000E-03 0. -1.
    9900012    2    1    2    0    0 -0.20401439336E+02 -0.25636378612E+01  0.40078954297E+02  0.46142317148E+02  0.99999944093E+01 0.  0.
         12    1    1    2    0    0  0.20401439336E+02  0.25636378612E+01 -0.40078954297E+02  0.45045682852E+02  0.00000000000E+00 0. -1.
         11    1    3    3    0    0  0.34034208606E+00  0.16671682923E+00 -0.31075771983E+00  0.49009984518E+00  0.51100000000E-03 0. -1.
        -11    1    3    3    0    0 -0.13314756356E+02 -0.25636789012E+01  0.29534713572E+02  0.32498530619E+02  0.51100000000E-03 0.  1.
        -12    1    3    3    0    0 -0.74270250659E+01 -0.16667578918E+00  0.10854998445E+02  0.13153686684E+02  0.00000000000E+00 0.  1.
</event>
<event>
 7    1  0.1503436E-008  0.4614232E+02  0.7816164E-02  0.1320468E+00
        -11   -1    0    0    0    0  0.00000000000E+00  0.00000000000E+00  0.45593999997E+02  0.45594000000E+02  0.51100000000E-03 0. -1.
         11   -1    0    0    0    0 -0.00000000000E+00 -0.00000000000E+00 -0.45593999997E+02  0.45594000000E+02  0.51100000000E-03 0.  1.
    9900012    2    1    2    0    0 -0.33121915014E+02 -0.26977144447E+02 -0.14292863296E+02  0.46142317433E+02  0.99999970115E+01 0.  0.
         12    1    1    2    0    0  0.33121915014E+02  0.26977144447E+02  0.14292863296E+02  0.45045682567E+02  0.00000000000E+00 0. -1.
         11    1    3    3    0    0 -0.15295670658E+01 -0.43973908929E+01 -0.10753449553E+01  0.47783877101E+01  0.51100000000E-03 0. -1.
        -11    1    3    3    0    0 -0.29993009212E+02 -0.22554921420E+02 -0.12167901175E+02  0.39450765533E+02  0.51100000000E-03 0.  1.
         12    1    3    3    0    0 -0.15993387360E+01 -0.24832134651E-01 -0.10496171651E+01  0.19131641907E+01  0.00000000000E+00 0. -1.
</event>
<event>
 7    1  0.1503436E-008  0.4614232E+02  0.7816164E-02  0.1320468E+00
        -11   -1    0    0    0    0  0.00000000000E+00  0.00000000000E+00  0.45593999997E+02  0.45594000000E+02  0.51100000000E-03 0. -1.
         11   -1    0    0    0    0 -0.00000000000E+00 -0.00000000000E+00 -0.45593999997E+02  0.45594000000E+02  0.51100000000E-03 0.  1.
    9900012    2    1    2    0    0 -0.36890873618E+02  0.15098658466E+02  0.20981120418E+02  0.46142318101E+02  0.10000003095E+02 0.  0.
         12    1    1    2    0    0  0.36890873618E+02 -0.15098658466E+02 -0.20981120418E+02  0.45045681899E+02  0.00000000000E+00 0. -1.
         11    1    3    3    0    0 -0.41224891432E+01 -0.58050080003E-02  0.39116026164E+01  0.56829205277E+01  0.51100000000E-03 0. -1.
        -11    1    3    3    0    0 -0.21660904632E+02  0.12771514499E+02  0.98389431382E+01  0.27002058708E+02  0.51100000000E-03 0.  1.
        -12    1    3    3    0    0 -0.11107479843E+02  0.23329489743E+01  0.72305746635E+01  0.13457338865E+02  0.00000000000E+00 0.  1.
</event>
<event>
 7    1  0.1503436E-008  0.4614232E+02  0.7816164E-02  0.1320468E+00
        -11   -1    0    0    0    0  0.00000000000E+00  0.00000000000E+00  0.45593999997E+02  0.45594000000E+02  0.51100000000E-03 0.  1.
         11   -1    0    0    0    0 -0.00000000000E+00 -0.00000000000E+00 -0.45593999997E+02  0.45594000000E+02  0.51100000000E-03 0. -1.
    9900012    2    1    2    0    0  0.41216918868E+02 -0.13740470170E+02  0.11894453757E+02  0.46142323719E+02  0.10000054330E+02 0.  0.
         12    1    1    2    0    0 -0.41216918868E+02  0.13740470170E+02 -0.11894453757E+02  0.45045676281E+02  0.00000000000E+00 0. -1.
         11    1    3    3    0    0  0.12813976325E+02 -0.35667957515E+01  0.81504385281E+01  0.15599668895E+02  0.51100000000E-03 0. -1.
        -11    1    3    3    0    0  0.49051660696E+01 -0.29737241641E+01  0.69060133119E+00  0.57775963890E+01  0.51100000000E-03 0.  1.
        -12    1    3    3    0    0  0.23497776473E+02 -0.71999502540E+01  0.30534138981E+01  0.24765058435E+02  0.00000000000E+00 0.  1.
</event>
<event>
 7    1  0.1503436E-008  0.4614232E+02  0.7816164E-02  0.1320468E+00
        -11   -1    0    0    0    0  0.00000000000E+00  0.00000000000E+00  0.45593999997E+02  0.45594000000E+02  0.51100000000E-03 0.  1.
         11   -1    0    0    0    0 -0.00000000000E+00 -0.00000000000E+00 -0.45593999997E+02  0.45594000000E+02  0.51100000000E-03 0. -1.
    9900012    2    1    2    0    0  0.38962034089E+01  0.42438568400E+02  0.14591129706E+02  0.46142317022E+02  0.99999932601E+01 0.  0.
         12    1    1    2    0    0 -0.38962034089E+01 -0.42438568400E+02 -0.14591129706E+02  0.45045682978E+02  0.00000000000E+00 0. -1.
         11    1    3    3    0    0  0.37033317012E+01  0.50739008801E+01  0.31889196106E+01  0.70447387726E+01  0.51100000000E-03 0. -1.
        -11    1    3    3    0    0  0.57423759543E+00  0.32567591472E+02  0.10278647081E+02  0.34155941638E+02  0.51100000000E-03 0.  1.
         12    1    3    3    0    0 -0.38136588771E+00  0.47970760479E+01  0.11235630138E+01  0.49416366111E+01  0.00000000000E+00 0. -1.
</event>
<event>
 7    1  0.1503436E-008  0.4614232E+02  0.7816164E-02  0.1320468E+00
        -11   -1    0    0    0    0  0.00000000000E+00  0.00000000000E+00  0.45593999997E+02  0.45594000000E+02  0.51100000000E-03 0. -1.
         11   -1    0    0    0    0 -0.00000000000E+00 -0.00000000000E+00 -0.45593999997E+02  0.45594000000E+02  0.51100000000E-03 0.  1.
    9900012    2    1    2    0    0 -0.17948476751E+02  0.81030876292E+01 -0.40513030696E+02  0.46142317598E+02  0.99999985157E+01 0.  0.
         12    1    1    2    0    0  0.17948476751E+02 -0.81030876292E+01  0.40513030696E+02  0.45045682402E+02  0.00000000000E+00 0. -1.
         11    1    3    3    0    0 -0.80841836780E+01  0.37011570612E+01 -0.10629537073E+02  0.13857837060E+02  0.51100000000E-03 0. -1.
        -11    1    3    3    0    0 -0.69057588830E+01  0.36390645265E+01 -0.26916824420E+02  0.28025840461E+02  0.51100000000E-03 0.  1.
        -12    1    3    3    0    0 -0.29585341904E+01  0.76286604155E+00 -0.29666692028E+01  0.42586400777E+01  0.00000000000E+00 0.  1.
</event>
<event>
 7    1  0.1503436E-008  0.4614232E+02  0.7816164E-02  0.1320468E+00
        -11   -1    0    0    0    0  0.00000000000E+00  0.00000000000E+00  0.45593999997E+02  0.45594000000E+02  0.51100000000E-03 0.  1.
         11   -1    0    0    0    0 -0.00000000000E+00 -0.00000000000E+00 -0.45593999997E+02  0.45594000000E+02  0.51100000000E-03 0. -1.
    9900012    2    1    2    0    0 -0.12211192256E+02  0.30728653781E+02  0.30590030229E+02  0.46142319531E+02  0.10000016141E+02 0.  0.
         12    1    1    2    0    0  0.12211192256E+02 -0.30728653781E+02 -0.30590030229E+02  0.45045680469E+02  0.00000000000E+00 0. -1.
         11    1    3    3    0    0  0.10658509121E+00  0.11402179024E+02  0.85507023844E+01  0.14252563222E+02  0.51100000000E-03 0. -1.
        -11    1    3    3    0    0 -0.62779786831E+01  0.11953599990E+02  0.13492504245E+02  0.19087934412E+02  0.51100000000E-03 0.  1.
         12    1    3    3    0    0 -0.60397986641E+01  0.73728747669E+01  0.85468235997E+01  0.12801821897E+02  0.00000000000E+00 0. -1.
</event>
<event>
 7    1  0.1503436E-008  0.4614232E+02  0.7816164E-02  0.1320468E+00
        -11   -1    0    0    0    0  0.00000000000E+00  0.00000000000E+00  0.45593999997E+02  0.45594000000E+02  0.51100000000E-03 0.  1.
         11   -1    0    0    0    0 -0.00000000000E+00 -0.00000000000E+00 -0.45593999997E+02  0.45594000000E+02  0.51100000000E-03 0. -1.
    9900012    2    1    2    0    0 -0.15322040898E+02 -0.23060658731E+02  0.35532445977E+02  0.46142316128E+02  0.99999851080E+01 0.  0.
         12    1    1    2    0    0  0.15322040898E+02  0.23060658731E+02 -0.35532445977E+02  0.45045683872E+02  0.00000000000E+00 0. -1.
         11    1    3    3    0    0 -0.13185994869E+02 -0.13654108424E+02  0.26599808867E+02  0.32678050271E+02  0.51100000000E-03 0. -1.
        -11    1    3    3    0    0 -0.79241970159E+00 -0.82890358203E+01  0.73823239755E+01  0.11128106369E+02  0.51100000000E-03 0.  1.
         12    1    3    3    0    0 -0.13436263282E+01 -0.11175144864E+01  0.15503131350E+01  0.23361594881E+01  0.00000000000E+00 0. -1.
</event>
<event>
 7    1  0.1503436E-008  0.4614232E+02  0.7816164E-02  0.1320468E+00
        -11   -1    0    0    0    0  0.00000000000E+00  0.00000000000E+00  0.45593999997E+02  0.45594000000E+02  0.51100000000E-03 0.  1.
         11   -1    0    0    0    0 -0.00000000000E+00 -0.00000000000E+00 -0.45593999997E+02  0.45594000000E+02  0.51100000000E-03 0. -1.
    9900012    2    1    2    0    0 -0.21725260740E+02  0.39418064943E+02  0.18282790102E+01  0.46142318717E+02  0.10000008721E+02 0.  0.
         12    1    1    2    0    0  0.21725260740E+02 -0.39418064943E+02 -0.18282790102E+01  0.45045681283E+02  0.00000000000E+00 0. -1.
         11    1    3    3    0    0 -0.82015087226E+01  0.82392242909E+01  0.29437637909E+01  0.11992302021E+02  0.51100000000E-03 0. -1.
        -11    1    3    3    0    0 -0.11853059931E+02  0.29134217490E+02 -0.59454817103E+00  0.31458721307E+02  0.51100000000E-03 0.  1.
        -12    1    3    3    0    0 -0.16706920863E+01  0.20446231616E+01 -0.52093660966E+00  0.26912953891E+01  0.00000000000E+00 0.  1.
</event>
<event>
 7    1  0.1503436E-008  0.4614232E+02  0.7816164E-02  0.1320468E+00
        -11   -1    0    0    0    0  0.00000000000E+00  0.00000000000E+00  0.45593999997E+02  0.45594000000E+02  0.51100000000E-03 0.  1.
         11   -1    0    0    0    0 -0.00000000000E+00 -0.00000000000E+00 -0.45593999997E+02  0.45594000000E+02  0.51100000000E-03 0. -1.
    9900012    2    1    2    0    0  0.56335735364E+00  0.11015507284E+02  0.43674417002E+02  0.46142317935E+02  0.10000001582E+02 0.  0.
         12    1    1    2    0    0 -0.56335735364E+00 -0.11015507284E+02 -0.43674417002E+02  0.45045682065E+02  0.00000000000E+00 0. -1.
         11    1    3    3    0    0  0.12124251792E+00  0.40404315363E-01 -0.27195337642E+00  0.30048486970E+00  0.51100000000E-03 0. -1.
        -11    1    3    3    0    0  0.82198206915E+00  0.10249816787E+02  0.27252160867E+02  0.29127558615E+02  0.51100000000E-03 0.  1.
        -12    1    3    3    0    0 -0.37986723343E+00  0.72528618180E+00  0.16694209512E+02  0.16714274450E+02  0.00000000000E+00 0.  1.
</event>
<event>
 7    1  0.1503436E-008  0.4614232E+02  0.7816164E-02  0.1320468E+00
        -11   -1    0    0    0    0  0.00000000000E+00  0.00000000000E+00  0.45593999997E+02  0.45594000000E+02  0.51100000000E-03 0.  1.
         11   -1    0    0    0    0 -0.00000000000E+00 -0.00000000000E+00 -0.45593999997E+02  0.45594000000E+02  0.51100000000E-03 0. -1.
    9900012    2    1    2    0    0  0.19533966653E+02 -0.40570815980E+02 -0.12435517543E+01  0.46142318926E+02  0.10000010620E+02 0.  0.
         12    1    1    2    0    0 -0.19533966653E+02  0.40570815980E+02  0.12435517543E+01  0.45045681074E+02  0.00000000000E+00 0. -1.
         11    1    3    3    0    0  0.90925461209E+01 -0.10752036963E+02 -0.20640939387E+01  0.14231696240E+02  0.51100000000E-03 0. -1.
        -11    1    3    3    0    0  0.24219381727E+01 -0.11444192876E+02  0.18148092291E+01  0.11837603977E+02  0.51100000000E-03 0.  1.
         12    1    3    3    0    0  0.80194823593E+01 -0.18374586141E+02 -0.99426704466E+00  0.20073018709E+02  0.00000000000E+00 0. -1.
</event>
<event>
 7    1  0.1503436E-008  0.4614232E+02  0.7816164E-02  0.1320468E+00
        -11   -1    0    0    0    0  0.00000000000E+00  0.00000000000E+00  0.45593999997E+02  0.45594000000E+02  0.51100000000E-03 0.  1.
         11   -1    0    0    0    0 -0.00000000000E+00 -0.00000000000E+00 -0.45593999997E+02  0.45594000000E+02  0.51100000000E-03 0. -1.
    9900012    2    1    2    0    0 -0.26442375706E+02 -0.36247717236E+02 -0.40021717837E+01  0.46142316336E+02  0.99999870003E+01 0.  0.
         12    1    1    2    0    0  0.26442375706E+02  0.36247717236E+02  0.40021717837E+01  0.45045683664E+02  0.00000000000E+00 0. -1.
         11    1    3    3    0    0 -0.28823465704E+01 -0.20813916263E+01  0.13641267098E+01  0.38080119216E+01  0.51100000000E-03 0. -1.
        -11    1    3    3    0    0 -0.16746799016E+02 -0.19682656715E+02 -0.16089835973E+01  0.25893070137E+02  0.51100000000E-03 0.  1.
         12    1    3    3    0    0 -0.68132301200E+01 -0.14483668895E+02 -0.37573148963E+01  0.16441234277E+02  0.00000000000E+00 0. -1.
</event>
<event>
 7    1  0.1503436E-008  0.4614232E+02  0.7816164E-02  0.1320468E+00
        -11   -1    0    0    0    0  0.00000000000E+00  0.00000000000E+00  0.45593999997E+02  0.45594000000E+02  0.51100000000E-03 0.  1.
         11   -1    0    0    0    0 -0.00000000000E+00 -0.00000000000E+00 -0.45593999997E+02  0.45594000000E+02  0.51100000000E-03 0. -1.
    9900012    2    1    2    0    0 -0.28964865958E+02 -0.32619678560E+02  0.11229718205E+02  0.46142318073E+02  0.10000002844E+02 0.  0.
         12    1    1    2    0    0  0.28964865958E+02  0.32619678560E+02 -0.11229718205E+02  0.45045681927E+02  0.00000000000E+00 0. -1.
         11    1    3    3    0    0 -0.17380585411E+02 -0.19499722191E+02  0.53322383016E+01  0.26660020261E+02  0.51100000000E-03 0. -1.
        -11    1    3    3    0    0 -0.94534710546E+01 -0.96656424756E+01  0.16715573685E+01  0.13623026967E+02  0.51100000000E-03 0.  1.
         12    1    3    3    0    0 -0.21308094920E+01 -0.34543138937E+01  0.42259225345E+01  0.58592708450E+01  0.00000000000E+00 0. -1.
</event>
<event>
 7    1  0.1503436E-008  0.4614232E+02  0.7816164E-02  0.1320468E+00
        -11   -1    0    0    0    0  0.00000000000E+00  0.00000000000E+00  0.45593999997E+02  0.45594000000E+02  0.51100000000E-03 0.  1.
         11   -1    0    0    0    0 -0.00000000000E+00 -0.00000000000E+00 -0.45593999997E+02  0.45594000000E+02  0.51100000000E-03 0. -1.
    9900012    2    1    2    0    0 -0.14118968504E+02 -0.30815166907E+02  0.29668058590E+02  0.46142317814E+02  0.10000000481E+02 0.  0.
         12    1    1    2    0    0  0.14118968504E+02  0.30815166907E+02 -0.29668058590E+02  0.45045682186E+02  0.00000000000E+00 0. -1.
         11    1    3    3    0    0 -0.40112554622E+01 -0.80644558047E+01  0.32397089130E+01  0.95719032544E+01  0.51100000000E-03 0. -1.
        -11    1    3    3    0    0 -0.82598627026E+01 -0.20713013376E+02  0.24892525648E+02  0.33419935493E+02  0.51100000000E-03 0.  1.
        -12    1    3    3    0    0 -0.18478503388E+01 -0.20376977271E+01  0.15358240289E+01  0.31504790667E+01  0.00000000000E+00 0.  1.
</event>
<event>
 7    1  0.1503436E-008  0.4614232E+02  0.7816164E-02  0.1320468E+00
        -11   -1    0    0    0    0  0.00000000000E+00  0.00000000000E+00  0.45593999997E+02  0.45594000000E+02  0.51100000000E-03 0. -1.
         11   -1    0    0    0    0 -0.00000000000E+00 -0.00000000000E+00 -0.45593999997E+02  0.45594000000E+02  0.51100000000E-03 0.  1.
    9900012    2    1    2    0    0 -0.34676214809E+02  0.21563018506E+02 -0.19018671510E+02  0.46142317559E+02  0.99999981556E+01 0.  0.
         12    1    1    2    0    0  0.34676214809E+02 -0.21563018506E+02  0.19018671510E+02  0.45045682441E+02  0.00000000000E+00 0. -1.
         11    1    3    3    0    0 -0.18597393111E+02  0.92435328243E+01 -0.10919506477E+02  0.23463621877E+02  0.51100000000E-03 0. -1.
        -11    1    3    3    0    0 -0.47639001990E+01  0.48057485384E+01  0.18476968319E+00  0.67693503542E+01  0.51100000000E-03 0.  1.
        -12    1    3    3    0    0 -0.11314921499E+02  0.75137371436E+01 -0.82839347153E+01  0.15909345328E+02  0.00000000000E+00 0.  1.
</event>
<event>
 7    1  0.1870430E-008  0.4614232E+02  0.7816164E-02  0.1320468E+00
        -11   -1    0    0    0    0  0.00000000000E+00  0.00000000000E+00  0.45593999997E+02  0.45594000000E+02  0.51100000000E-03 0.  1.
         11   -1    0    0    0    0 -0.00000000000E+00 -0.00000000000E+00 -0.45593999997E+02  0.45594000000E+02  0.51100000000E-03 0. -1.
    9900012    2    1    2    0    0  0.35644296246E+02  0.68373723954E+01  0.26680482401E+02  0.46142315886E+02  0.99999829011E+01 0.  0.
         12    1    1    2    0    0 -0.35644296246E+02 -0.68373723954E+01 -0.26680482401E+02  0.45045684114E+02  0.00000000000E+00 0. -1.
         11    1    3    3    0    0  0.96834089909E+01 -0.12976618226E+01  0.62144321320E+01  0.11578924945E+02  0.51100000000E-03 0. -1.
        -11    1    3    3    0    0  0.26013524280E+02  0.85856844884E+01  0.20044443523E+02  0.33944029519E+02  0.51100000000E-03 0.  1.
        -12    1    3    3    0    0 -0.52637024920E-01 -0.45065027033E+00  0.42160674692E+00  0.61936142242E+00  0.00000000000E+00 0.  1.
</event>
<event>
 7    1  0.1503436E-008  0.4614232E+02  0.7816164E-02  0.1320468E+00
        -11   -1    0    0    0    0  0.00000000000E+00  0.00000000000E+00  0.45593999997E+02  0.45594000000E+02  0.51100000000E-03 0. -1.
         11   -1    0    0    0    0 -0.00000000000E+00 -0.00000000000E+00 -0.45593999997E+02  0.45594000000E+02  0.51100000000E-03 0.  1.
    9900012    2    1    2    0    0  0.14007889315E+02  0.42748385421E+02 -0.23383823104E+01  0.46142318176E+02  0.10000003786E+02 0.  0.
         12    1    1    2    0    0 -0.14007889315E+02 -0.42748385421E+02  0.23383823104E+01  0.45045681824E+02  0.00000000000E+00 0. -1.
         11    1    3    3    0    0  0.10737074471E+01  0.48213804833E+01  0.24413874853E+01  0.55098938793E+01  0.51100000000E-03 0. -1.
        -11    1    3    3    0    0  0.67498388960E+01  0.13013207973E+02 -0.23658735901E+01  0.14849284999E+02  0.51100000000E-03 0.  1.
        -12    1    3    3    0    0  0.61843429722E+01  0.24913796964E+02 -0.24138962056E+01  0.25783139298E+02  0.00000000000E+00 0.  1.
</event>
<event>
 7    1  0.1503436E-008  0.4614232E+02  0.7816164E-02  0.1320468E+00
        -11   -1    0    0    0    0  0.00000000000E+00  0.00000000000E+00  0.45593999997E+02  0.45594000000E+02  0.51100000000E-03 0.  1.
         11   -1    0    0    0    0 -0.00000000000E+00 -0.00000000000E+00 -0.45593999997E+02  0.45594000000E+02  0.51100000000E-03 0. -1.
    9900012    2    1    2    0    0 -0.35090617168E+02  0.18522833434E+02  0.21322906260E+02  0.46142322039E+02  0.10000039007E+02 0.  0.
         12    1    1    2    0    0  0.35090617168E+02 -0.18522833434E+02 -0.21322906260E+02  0.45045677961E+02  0.00000000000E+00 0. -1.
         11    1    3    3    0    0 -0.56202450172E+01  0.50433059735E+01  0.42925102748E+00  0.75634876811E+01  0.51100000000E-03 0. -1.
        -11    1    3    3    0    0 -0.12824552217E+02  0.56153532408E+01  0.97168179940E+01  0.17041651439E+02  0.51100000000E-03 0.  1.
         12    1    3    3    0    0 -0.16645819933E+02  0.78641742199E+01  0.11176837238E+02  0.21537182918E+02  0.00000000000E+00 0. -1.
</event>
<event>
 7    1  0.1503436E-008  0.4614232E+02  0.7816164E-02  0.1320468E+00
        -11   -1    0    0    0    0  0.00000000000E+00  0.00000000000E+00  0.45593999997E+02  0.45594000000E+02  0.51100000000E-03 0.  1.
         11   -1    0    0    0    0 -0.00000000000E+00 -0.00000000000E+00 -0.45593999997E+02  0.45594000000E+02  0.51100000000E-03 0. -1.
    9900012    2    1    2    0    0  0.20730266401E+02  0.27595677615E+02  0.28945606284E+02  0.46142317729E+02  0.99999997085E+01 0.  0.
         12    1    1    2    0    0 -0.20730266401E+02 -0.27595677615E+02 -0.28945606284E+02  0.45045682271E+02  0.00000000000E+00 0. -1.
         11    1    3    3    0    0  0.17198443364E-01  0.32568295135E+01  0.28911969657E+01  0.43550263400E+01  0.51100000000E-03 0. -1.
        -11    1    3    3    0    0  0.59358273442E+01  0.38960272891E+01  0.33550375190E+01  0.78529836313E+01  0.51100000000E-03 0.  1.
        -12    1    3    3    0    0  0.14777240613E+02  0.20442820812E+02  0.22699371800E+02  0.33934307758E+02  0.00000000000E+00 0.  1.
</event>
<event>
 7    1  0.1503436E-008  0.4614232E+02  0.7816164E-02  0.1320468E+00
        -11   -1    0    0    0    0  0.00000000000E+00  0.00000000000E+00  0.45593999997E+02  0.45594000000E+02  0.51100000000E-03 0. -1.
         11   -1    0    0    0    0 -0.00000000000E+00 -0.00000000000E+00 -0.45593999997E+02  0.45594000000E+02  0.51100000000E-03 0.  1.
    9900012    2    1    2    0    0 -0.22064398155E+02 -0.20968124354E+02 -0.33205626226E+02  0.46142317433E+02  0.99999970052E+01 0.  0.
         12    1    1    2    0    0  0.22064398155E+02  0.20968124354E+02  0.33205626226E+02  0.45045682567E+02  0.00000000000E+00 0. -1.
         11    1    3    3    0    0 -0.86035754403E+00  0.59746779667E+00  0.11348596174E+00  0.10535948919E+01  0.51100000000E-03 0. -1.
        -11    1    3    3    0    0 -0.21154075462E+02 -0.21103244005E+02 -0.32513015699E+02  0.44158102385E+02  0.51100000000E-03 0.  1.
        -12    1    3    3    0    0 -0.49965149304E-01 -0.46234814616E+00 -0.80609648865E+00  0.93062015528E+00  0.00000000000E+00 0.  1.
</event>
<event>
 7    1  0.1503436E-008  0.4614232E+02  0.7816164E-02  0.1320468E+00
        -11   -1    0    0    0    0  0.00000000000E+00  0.00000000000E+00  0.45593999997E+02  0.45594000000E+02  0.51100000000E-03 0.  1.
         11   -1    0    0    0    0 -0.00000000000E+00 -0.00000000000E+00 -0.45593999997E+02  0.45594000000E+02  0.51100000000E-03 0. -1.
    9900012    2    1    2    0    0  0.44062876266E+01  0.44092557144E+02  0.80959637396E+01  0.46142316577E+02  0.99999892065E+01 0.  0.
         12    1    1    2    0    0 -0.44062876266E+01 -0.44092557144E+02 -0.80959637396E+01  0.45045683423E+02  0.00000000000E+00 0. -1.
         11    1    3    3    0    0  0.64850516733E+01  0.19258308455E+02  0.40184934078E+01  0.20714406322E+02  0.51100000000E-03 0. -1.
        -11    1    3    3    0    0 -0.24948126852E+01  0.20391160994E+02  0.41802234303E+01  0.20964202947E+02  0.51100000000E-03 0.  1.
         12    1    3    3    0    0  0.41604863847E+00  0.44430876949E+01 -0.10275309850E+00  0.44637073082E+01  0.00000000000E+00 0. -1.
</event>
<event>
 7    1  0.1503436E-008  0.4614232E+02  0.7816164E-02  0.1320468E+00
        -11   -1    0    0    0    0  0.00000000000E+00  0.00000000000E+00  0.45593999997E+02  0.45594000000E+02  0.51100000000E-03 0.  1.
         11   -1    0    0    0    0 -0.00000000000E+00 -0.00000000000E+00 -0.45593999997E+02  0.45594000000E+02  0.51100000000E-03 0. -1.
    9900012    2    1    2    0    0  0.39666220454E+02 -0.97128605565E+01  0.19009597700E+02  0.46142317521E+02  0.99999978093E+01 0.  0.
         12    1    1    2    0    0 -0.39666220454E+02  0.97128605565E+01 -0.19009597700E+02  0.45045682479E+02  0.00000000000E+00 0. -1.
         11    1    3    3    0    0  0.69862079792E+01 -0.11178301609E+01 -0.26850301308E+00  0.70801652754E+01  0.51100000000E-03 0. -1.
        -11    1    3    3    0    0  0.21917742154E+02 -0.45651282480E+01  0.14093359610E+02  0.26454689611E+02  0.51100000000E-03 0.  1.
        -12    1    3    3    0    0  0.10762270321E+02 -0.40299021476E+01  0.51847411026E+01  0.12607462635E+02  0.00000000000E+00 0.  1.
</event>
<event>
 7    1  0.1503436E-008  0.4614232E+02  0.7816164E-02  0.1320468E+00
        -11   -1    0    0    0    0  0.00000000000E+00  0.00000000000E+00  0.45593999997E+02  0.45594000000E+02  0.51100000000E-03 0. -1.
         11   -1    0    0    0    0 -0.00000000000E+00 -0.00000000000E+00 -0.45593999997E+02  0.45594000000E+02  0.51100000000E-03 0.  1.
    9900012    2    1    2    0    0  0.12185179720E+02  0.15595126661E+01 -0.43338236184E+02  0.46142318740E+02  0.10000008930E+02 0.  0.
         12    1    1    2    0    0 -0.12185179720E+02 -0.15595126661E+01  0.43338236184E+02  0.45045681260E+02  0.00000000000E+00 0. -1.
         11    1    3    3    0    0  0.64916493477E+01 -0.50491621977E+00 -0.21544059626E+02  0.22506509216E+02  0.51100000000E-03 0. -1.
        -11    1    3    3    0    0  0.11576021954E+01  0.54360971768E+00 -0.16302302652E+02  0.16352389011E+02  0.51100000000E-03 0.  1.
         12    1    3    3    0    0  0.45359281771E+01  0.15208191682E+01 -0.54918739064E+01  0.72834205133E+01  0.00000000000E+00 0. -1.
</event>
<event>
 7    1  0.1503436E-008  0.4614232E+02  0.7816164E-02  0.1320468E+00
        -11   -1    0    0    0    0  0.00000000000E+00  0.00000000000E+00  0.45593999997E+02  0.45594000000E+02  0.51100000000E-03 0.  1.
         11   -1    0    0    0    0 -0.00000000000E+00 -0.00000000000E+00 -0.45593999997E+02  0.45594000000E+02  0.51100000000E-03 0. -1.
    9900012    2    1    2    0    0 -0.36538610359E+02  0.14521719986E+02 -0.21980969589E+02  0.46142318494E+02  0.10000006680E+02 0.  0.
         12    1    1    2    0    0  0.36538610359E+02 -0.14521719986E+02  0.21980969589E+02  0.45045681506E+02  0.00000000000E+00 0. -1.
         11    1    3    3    0    0 -0.18940691247E+01  0.33301350479E+00  0.81763592552E+00  0.20897187876E+01  0.51100000000E-03 0. -1.
        -11    1    3    3    0    0 -0.14852477482E+02  0.39751671826E+01 -0.82353392080E+01  0.17441870703E+02  0.51100000000E-03 0.  1.
        -12    1    3    3    0    0 -0.19792063752E+02  0.10213539298E+02 -0.14563266307E+02  0.26610729003E+02  0.00000000000E+00 0.  1.
</event>
<event>
 7    1  0.1503436E-008  0.4614232E+02  0.7816164E-02  0.1320468E+00
        -11   -1    0    0    0    0  0.00000000000E+00  0.00000000000E+00  0.45593999997E+02  0.45594000000E+02  0.51100000000E-03 0.  1.
         11   -1    0    0    0    0 -0.00000000000E+00 -0.00000000000E+00 -0.45593999997E+02  0.45594000000E+02  0.51100000000E-03 0. -1.
    9900012    2    1    2    0    0 -0.22619742614E+01 -0.34152570218E+02  0.29284789424E+02  0.46142317946E+02  0.10000001690E+02 0.  0.
         12    1    1    2    0    0  0.22619742614E+01  0.34152570218E+02 -0.29284789424E+02  0.45045682054E+02  0.00000000000E+00 0. -1.
         11    1    3    3    0    0  0.20216454103E+00 -0.66009097750E+01  0.74250143841E+01  0.99369874320E+01  0.51100000000E-03 0. -1.
        -11    1    3    3    0    0  0.13802681606E+01 -0.12622233875E+02  0.14001671046E+02  0.18901659201E+02  0.51100000000E-03 0.  1.
         12    1    3    3    0    0 -0.38444069631E+01 -0.14929426569E+02  0.78581039931E+01  0.17303671314E+02  0.00000000000E+00 0. -1.
</event>
<event>
 7    1  0.1503436E-008  0.4614232E+02  0.7816164E-02  0.1320468E+00
        -11   -1    0    0    0    0  0.00000000000E+00  0.00000000000E+00  0.45593999997E+02  0.45594000000E+02  0.51100000000E-03 0.  1.
         11   -1    0    0    0    0 -0.00000000000E+00 -0.00000000000E+00 -0.45593999997E+02  0.45594000000E+02  0.51100000000E-03 0. -1.
    9900012    2    1    2    0    0  0.23423236962E+02  0.67509987982E+00  0.38470895066E+02  0.46142317002E+02  0.99999930735E+01 0.  0.
         12    1    1    2    0    0 -0.23423236962E+02 -0.67509987982E+00 -0.38470895066E+02  0.45045682998E+02  0.00000000000E+00 0. -1.
         11    1    3    3    0    0  0.30860833855E+00 -0.30544425078E+00 -0.20359663625E+00  0.47956975339E+00  0.51100000000E-03 0. -1.
        -11    1    3    3    0    0  0.10333124432E+02 -0.85881075447E+00  0.23827467700E+02  0.25985750590E+02  0.51100000000E-03 0.  1.
        -12    1    3    3    0    0  0.12781504191E+02  0.18393548851E+01  0.14847024002E+02  0.19676996659E+02  0.00000000000E+00 0.  1.
</event>
<event>
 7    1  0.1503436E-008  0.4614232E+02  0.7816164E-02  0.1320468E+00
        -11   -1    0    0    0    0  0.00000000000E+00  0.00000000000E+00  0.45593999997E+02  0.45594000000E+02  0.51100000000E-03 0.  1.
         11   -1    0    0    0    0 -0.00000000000E+00 -0.00000000000E+00 -0.45593999997E+02  0.45594000000E+02  0.51100000000E-03 0. -1.
    9900012    2    1    2    0    0  0.10011122127E+02 -0.43095452048E+02  0.84659843749E+01  0.46142318243E+02  0.10000004398E+02 0.  0.
         12    1    1    2    0    0 -0.10011122127E+02  0.43095452048E+02 -0.84659843749E+01  0.45045681757E+02  0.00000000000E+00 0. -1.
         11    1    3    3    0    0  0.61164205815E+01 -0.21835160286E+02 -0.61874734264E+00  0.22684084156E+02  0.51100000000E-03 0. -1.
        -11    1    3    3    0    0  0.33101676688E+01 -0.17457693560E+02  0.77594800687E+01  0.19389115649E+02  0.51100000000E-03 0.  1.
         12    1    3    3    0    0  0.58453387678E+00 -0.38025982021E+01  0.13252516488E+01  0.40691184392E+01  0.00000000000E+00 0. -1.
</event>
<event>
 7    1  0.1503436E-008  0.4614232E+02  0.7816164E-02  0.1320468E+00
        -11   -1    0    0    0    0  0.00000000000E+00  0.00000000000E+00  0.45593999997E+02  0.45594000000E+02  0.51100000000E-03 0.  1.
         11   -1    0    0    0    0 -0.00000000000E+00 -0.00000000000E+00 -0.45593999997E+02  0.45594000000E+02  0.51100000000E-03 0. -1.
    9900012    2    1    2    0    0  0.44812946260E+01  0.22871930060E+02  0.38547455726E+02  0.46142317309E+02  0.99999958735E+01 0.  0.
         12    1    1    2    0    0 -0.44812946260E+01 -0.22871930060E+02 -0.38547455726E+02  0.45045682691E+02  0.00000000000E+00 0. -1.
         11    1    3    3    0    0  0.50247573325E+00  0.34640391997E+01  0.14793892666E+01  0.38000845126E+01  0.51100000000E-03 0. -1.
        -11    1    3    3    0    0  0.29453828191E+01  0.18263467954E+02  0.35972797915E+02  0.40450855760E+02  0.51100000000E-03 0.  1.
        -12    1    3    3    0    0  0.10334360737E+01  0.11444229064E+01  0.10952685447E+01  0.18913770359E+01  0.00000000000E+00 0.  1.
</event>
<event>
 7    1  0.1503436E-008  0.4614232E+02  0.7816164E-02  0.1320468E+00
        -11   -1    0    0    0    0  0.00000000000E+00  0.00000000000E+00  0.45593999997E+02  0.45594000000E+02  0.51100000000E-03 0.  1.
         11   -1    0    0    0    0 -0.00000000000E+00 -0.00000000000E+00 -0.45593999997E+02  0.45594000000E+02  0.51100000000E-03 0. -1.
    9900012    2    1    2    0    0 -0.16423729718E+02  0.75219902316E+01  0.41264927533E+02  0.46142317863E+02  0.10000000927E+02 0.  0.
         12    1    1    2    0    0  0.16423729718E+02 -0.75219902316E+01 -0.41264927533E+02  0.45045682137E+02  0.00000000000E+00 0. -1.
         11    1    3    3    0    0  0.38413289893E+00 -0.77268261727E-01  0.25248910564E+00  0.46613246819E+00  0.51100000000E-03 0. -1.
        -11    1    3    3    0    0 -0.10960691072E+02  0.15897373033E+01  0.28856928927E+02  0.30909324820E+02  0.51100000000E-03 0.  1.
        -12    1    3    3    0    0 -0.58471715450E+01  0.60095211901E+01  0.12155509500E+02  0.14766860574E+02  0.00000000000E+00 0.  1.
</event>
<event>
 7    1  0.1503436E-008  0.4614232E+02  0.7816164E-02  0.1320468E+00
        -11   -1    0    0    0    0  0.00000000000E+00  0.00000000000E+00  0.45593999997E+02  0.45594000000E+02  0.51100000000E-03 0.  1.
         11   -1    0    0    0    0 -0.00000000000E+00 -0.00000000000E+00 -0.45593999997E+02  0.45594000000E+02  0.51100000000E-03 0. -1.
    9900012    2    1    2    0    0  0.42236491012E+02 -0.14708278965E+01  0.15589391166E+02  0.46142316248E+02  0.99999862053E+01 0.  0.
         12    1    1    2    0    0 -0.42236491012E+02  0.14708278965E+01 -0.15589391166E+02  0.45045683752E+02  0.00000000000E+00 0. -1.
         11    1    3    3    0    0  0.19072691845E+02 -0.10282976534E+01  0.51460246698E+01  0.19781469622E+02  0.51100000000E-03 0. -1.
        -11    1    3    3    0    0  0.16265684030E+02  0.13807855720E+01  0.41416486401E+01  0.16841386507E+02  0.51100000000E-03 0.  1.
        -12    1    3    3    0    0  0.68981151374E+01 -0.18233158150E+01  0.63017178562E+01  0.95194601186E+01  0.00000000000E+00 0.  1.
</event>
<event>
 7    1  0.1503436E-008  0.4614232E+02  0.7816164E-02  0.1320468E+00
        -11   -1    0    0    0    0  0.00000000000E+00  0.00000000000E+00  0.45593999997E+02  0.45594000000E+02  0.51100000000E-03 0.  1.
         11   -1    0    0    0    0 -0.00000000000E+00 -0.00000000000E+00 -0.45593999997E+02  0.45594000000E+02  0.51100000000E-03 0. -1.
    9900012    2    1    2    0    0  0.32415509187E+02  0.19142056610E+02  0.24737222329E+02  0.46142315016E+02  0.99999749709E+01 0.  0.
         12    1    1    2    0    0 -0.32415509187E+02 -0.19142056610E+02 -0.24737222329E+02  0.45045684984E+02  0.00000000000E+00 0. -1.
         11    1    3    3    0    0  0.95002047100E+01  0.10251889264E+02  0.69875810860E+01  0.15626305152E+02  0.51100000000E-03 0. -1.
        -11    1    3    3    0    0  0.90467192972E+01  0.50060038574E+01  0.62099202867E+01  0.12060941708E+02  0.51100000000E-03 0.  1.
         12    1    3    3    0    0  0.13868585179E+02  0.38841634884E+01  0.11539720957E+02  0.18455068156E+02  0.00000000000E+00 0. -1.
</event>
<event>
 7    1  0.1503436E-008  0.4614232E+02  0.7816164E-02  0.1320468E+00
        -11   -1    0    0    0    0  0.00000000000E+00  0.00000000000E+00  0.45593999997E+02  0.45594000000E+02  0.51100000000E-03 0.  1.
         11   -1    0    0    0    0 -0.00000000000E+00 -0.00000000000E+00 -0.45593999997E+02  0.45594000000E+02  0.51100000000E-03 0. -1.
    9900012    2    1    2    0    0  0.55217598073E+01 -0.44675527848E+02  0.16495208493E+01  0.46142317201E+02  0.99999948892E+01 0.  0.
         12    1    1    2    0    0 -0.55217598073E+01  0.44675527848E+02 -0.16495208493E+01  0.45045682799E+02  0.00000000000E+00 0. -1.
         11    1    3    3    0    0  0.48606455951E+01 -0.17366270347E+02  0.46307914715E+00  0.18039613741E+02  0.51100000000E-03 0.  1.
        -11    1    3    3    0    0 -0.23271585065E+01 -0.85785996438E+01 -0.12620190164E+01  0.89777909767E+01  0.51100000000E-03 0. -1.
        -12    1    3    3    0    0  0.29882727187E+01 -0.18730657857E+02  0.24484607186E+01  0.19124912483E+02  0.00000000000E+00 0.  1.
</event>
<event>
 7    1  0.1503436E-008  0.4614232E+02  0.7816164E-02  0.1320468E+00
        -11   -1    0    0    0    0  0.00000000000E+00  0.00000000000E+00  0.45593999997E+02  0.45594000000E+02  0.51100000000E-03 0. -1.
         11   -1    0    0    0    0 -0.00000000000E+00 -0.00000000000E+00 -0.45593999997E+02  0.45594000000E+02  0.51100000000E-03 0.  1.
    9900012    2    1    2    0    0  0.31787831910E+02 -0.84263435866E+01 -0.30783827232E+02  0.46142317157E+02  0.99999944900E+01 0.  0.
         12    1    1    2    0    0 -0.31787831910E+02  0.84263435866E+01  0.30783827232E+02  0.45045682843E+02  0.00000000000E+00 0. -1.
         11    1    3    3    0    0  0.61368477914E+01  0.65372514366E+00 -0.27491059246E+01  0.67561705887E+01  0.51100000000E-03 0. -1.
        -11    1    3    3    0    0  0.21982962137E+02 -0.66034830972E+01 -0.25403153462E+02  0.34237067915E+02  0.51100000000E-03 0.  1.
        -12    1    3    3    0    0  0.36680219815E+01 -0.24765856330E+01 -0.26315678454E+01  0.51490786535E+01  0.00000000000E+00 0.  1.
</event>
<event>
 7    1  0.1503436E-008  0.4614232E+02  0.7816164E-02  0.1320468E+00
        -11   -1    0    0    0    0  0.00000000000E+00  0.00000000000E+00  0.45593999997E+02  0.45594000000E+02  0.51100000000E-03 0.  1.
         11   -1    0    0    0    0 -0.00000000000E+00 -0.00000000000E+00 -0.45593999997E+02  0.45594000000E+02  0.51100000000E-03 0. -1.
    9900012    2    1    2    0    0 -0.10035274769E+02 -0.69191374541E+01  0.43365099095E+02  0.46142322934E+02  0.10000047168E+02 0.  0.
         12    1    1    2    0    0  0.10035274769E+02  0.69191374541E+01 -0.43365099095E+02  0.45045677066E+02  0.00000000000E+00 0. -1.
         11    1    3    3    0    0  0.23378292123E+00 -0.38383595638E+00 -0.20706713068E+00  0.49483487488E+00  0.51100000000E-03 0. -1.
        -11    1    3    3    0    0 -0.10460942448E+02 -0.73403701372E+01  0.40843868923E+02  0.42796424845E+02  0.51100000000E-03 0.  1.
        -12    1    3    3    0    0  0.19188475774E+00  0.80506863952E+00  0.27282973034E+01  0.28510632140E+01  0.00000000000E+00 0.  1.
</event>
<event>
 7    1  0.1503436E-008  0.4614232E+02  0.7816164E-02  0.1320468E+00
        -11   -1    0    0    0    0  0.00000000000E+00  0.00000000000E+00  0.45593999997E+02  0.45594000000E+02  0.51100000000E-03 0. -1.
         11   -1    0    0    0    0 -0.00000000000E+00 -0.00000000000E+00 -0.45593999997E+02  0.45594000000E+02  0.51100000000E-03 0.  1.
    9900012    2    1    2    0    0  0.62641850736E+01  0.25239677981E+01 -0.44536535835E+02  0.46142318162E+02  0.10000003654E+02 0.  0.
         12    1    1    2    0    0 -0.62641850736E+01 -0.25239677981E+01  0.44536535835E+02  0.45045681838E+02  0.00000000000E+00 0. -1.
         11    1    3    3    0    0 -0.22174376659E+01  0.16634669150E+01 -0.89892084125E+01  0.94069134217E+01  0.51100000000E-03 0. -1.
        -11    1    3    3    0    0  0.47495190301E+01 -0.16648595508E-02 -0.26312305313E+02  0.26737526904E+02  0.51100000000E-03 0.  1.
         12    1    3    3    0    0  0.37321037093E+01  0.86216574263E+00 -0.92350221092E+01  0.99978778359E+01  0.00000000000E+00 0. -1.
</event>
<event>
 7    1  0.1503436E-008  0.4614232E+02  0.7816164E-02  0.1320468E+00
        -11   -1    0    0    0    0  0.00000000000E+00  0.00000000000E+00  0.45593999997E+02  0.45594000000E+02  0.51100000000E-03 0. -1.
         11   -1    0    0    0    0 -0.00000000000E+00 -0.00000000000E+00 -0.45593999997E+02  0.45594000000E+02  0.51100000000E-03 0.  1.
    9900012    2    1    2    0    0  0.21582124473E+02  0.37745680862E+02 -0.11772378518E+02  0.46142318559E+02  0.10000007275E+02 0.  0.
         12    1    1    2    0    0 -0.21582124473E+02 -0.37745680862E+02  0.11772378518E+02  0.45045681441E+02  0.00000000000E+00 0. -1.
         11    1    3    3    0    0  0.11981871796E+02  0.15586237747E+02 -0.14062590870E+01  0.19709734238E+02  0.51100000000E-03 0. -1.
        -11    1    3    3    0    0  0.83628330406E+01  0.20635436963E+02 -0.88829197819E+01  0.23972160921E+02  0.51100000000E-03 0.  1.
        -12    1    3    3    0    0  0.12374196356E+01  0.15240061534E+01 -0.14831996492E+01  0.24604234005E+01  0.00000000000E+00 0.  1.
</event>
<event>
 7    1  0.1503436E-008  0.4614232E+02  0.7816164E-02  0.1320468E+00
        -11   -1    0    0    0    0  0.00000000000E+00  0.00000000000E+00  0.45593999997E+02  0.45594000000E+02  0.51100000000E-03 0.  1.
         11   -1    0    0    0    0 -0.00000000000E+00 -0.00000000000E+00 -0.45593999997E+02  0.45594000000E+02  0.51100000000E-03 0. -1.
    9900012    2    1    2    0    0  0.31086018407E+02 -0.31074852668E+02  0.98552820872E+01  0.46142316591E+02  0.99999893340E+01 0.  0.
         12    1    1    2    0    0 -0.31086018407E+02  0.31074852668E+02 -0.98552820872E+01  0.45045683409E+02  0.00000000000E+00 0. -1.
         11    1    3    3    0    0  0.61044527075E+01 -0.24639855592E+01  0.19836469842E+01  0.68753489594E+01  0.51100000000E-03 0. -1.
        -11    1    3    3    0    0  0.24356719082E+02 -0.28185124305E+02  0.66646043929E+01  0.37842673644E+02  0.51100000000E-03 0.  1.
        -12    1    3    3    0    0  0.62484661688E+00 -0.42574280388E+00  0.12070307101E+01  0.14242939882E+01  0.00000000000E+00 0.  1.
</event>
<event>
 7    1  0.1503436E-008  0.4614232E+02  0.7816164E-02  0.1320468E+00
        -11   -1    0    0    0    0  0.00000000000E+00  0.00000000000E+00  0.45593999997E+02  0.45594000000E+02  0.51100000000E-03 0.  1.
         11   -1    0    0    0    0 -0.00000000000E+00 -0.00000000000E+00 -0.45593999997E+02  0.45594000000E+02  0.51100000000E-03 0. -1.
    9900012    2    1    2    0    0 -0.27150632540E+02 -0.35916071150E+02  0.14114579051E+01  0.46142320655E+02  0.10000026393E+02 0.  0.
         12    1    1    2    0    0  0.27150632540E+02  0.35916071150E+02 -0.14114579051E+01  0.45045679345E+02  0.00000000000E+00 0. -1.
         11    1    3    3    0    0 -0.18650475208E+02 -0.20583760114E+02 -0.22635273445E+01  0.27868529961E+02  0.51100000000E-03 0.  1.
        -11    1    3    3    0    0 -0.84769057194E+01 -0.13017024910E+02  0.36560642736E+01  0.15958310510E+02  0.51100000000E-03 0. -1.
         12    1    3    3    0    0 -0.23251613458E-01 -0.23152861258E+01  0.18920975954E-01  0.23154801845E+01  0.00000000000E+00 0. -1.
</event>
<event>
 7    1  0.1503436E-008  0.4614232E+02  0.7816164E-02  0.1320468E+00
        -11   -1    0    0    0    0  0.00000000000E+00  0.00000000000E+00  0.45593999997E+02  0.45594000000E+02  0.51100000000E-03 0.  1.
         11   -1    0    0    0    0 -0.00000000000E+00 -0.00000000000E+00 -0.45593999997E+02  0.45594000000E+02  0.51100000000E-03 0. -1.
    9900012    2    1    2    0    0 -0.22022664698E+02  0.38454274177E+02  0.80860767561E+01  0.46142316520E+02  0.99999886795E+01 0.  0.
         12    1    1    2    0    0  0.22022664698E+02 -0.38454274177E+02 -0.80860767561E+01  0.45045683480E+02  0.00000000000E+00 0. -1.
         11    1    3    3    0    0 -0.41983419987E+01  0.16674536795E+01  0.10911167613E+01  0.46472586930E+01  0.51100000000E-03 0. -1.
        -11    1    3    3    0    0 -0.17281767558E+02  0.35510011270E+02  0.70007630336E+01  0.40107743313E+02  0.51100000000E-03 0.  1.
         12    1    3    3    0    0 -0.54255514189E+00  0.12768092276E+01 -0.58030388636E-02  0.13873145141E+01  0.00000000000E+00 0. -1.
</event>
<event>
 7    1  0.1503436E-008  0.4614232E+02  0.7816164E-02  0.1320468E+00
        -11   -1    0    0    0    0  0.00000000000E+00  0.00000000000E+00  0.45593999997E+02  0.45594000000E+02  0.51100000000E-03 0.  1.
         11   -1    0    0    0    0 -0.00000000000E+00 -0.00000000000E+00 -0.45593999997E+02  0.45594000000E+02  0.51100000000E-03 0. -1.
    9900012    2    1    2    0    0 -0.30648535450E+02 -0.29675897909E+02  0.14461046101E+02  0.46142317674E+02  0.99999992023E+01 0.  0.
         12    1    1    2    0    0  0.30648535450E+02  0.29675897909E+02 -0.14461046101E+02  0.45045682326E+02  0.00000000000E+00 0. -1.
         11    1    3    3    0    0 -0.28833079464E+01 -0.56730353808E+01 -0.35545883317E+00  0.63736289811E+01  0.51100000000E-03 0. -1.
        -11    1    3    3    0    0 -0.99001491249E+01 -0.62423428765E+01  0.42600441317E+01  0.12455030050E+02  0.51100000000E-03 0.  1.
        -12    1    3    3    0    0 -0.17865078378E+02 -0.17760519652E+02  0.10556460803E+02  0.27313658642E+02  0.00000000000E+00 0.  1.
</event>
<event>
 7    1  0.1503436E-008  0.4614232E+02  0.7816164E-02  0.1320468E+00
        -11   -1    0    0    0    0  0.00000000000E+00  0.00000000000E+00  0.45593999997E+02  0.45594000000E+02  0.51100000000E-03 0.  1.
         11   -1    0    0    0    0 -0.00000000000E+00 -0.00000000000E+00 -0.45593999997E+02  0.45594000000E+02  0.51100000000E-03 0. -1.
    9900012    2    1    2    0    0 -0.90848091758E+01 -0.19748592694E+02  0.39453425584E+02  0.46142318060E+02  0.10000002725E+02 0.  0.
         12    1    1    2    0    0  0.90848091758E+01  0.19748592694E+02 -0.39453425584E+02  0.45045681940E+02  0.00000000000E+00 0. -1.
         11    1    3    3    0    0 -0.34817520138E+01 -0.22475608394E+01  0.51506074174E+01  0.66108156714E+01  0.51100000000E-03 0. -1.
        -11    1    3    3    0    0 -0.28913786208E+01 -0.58431638536E+01  0.19103046170E+02  0.20184870754E+02  0.51100000000E-03 0.  1.
         12    1    3    3    0    0 -0.27116785412E+01 -0.11657868001E+02  0.15199771997E+02  0.19346631634E+02  0.00000000000E+00 0. -1.
</event>
<event>
 7    1  0.1503436E-008  0.4614232E+02  0.7816164E-02  0.1320468E+00
        -11   -1    0    0    0    0  0.00000000000E+00  0.00000000000E+00  0.45593999997E+02  0.45594000000E+02  0.51100000000E-03 0.  1.
         11   -1    0    0    0    0 -0.00000000000E+00 -0.00000000000E+00 -0.45593999997E+02  0.45594000000E+02  0.51100000000E-03 0. -1.
    9900012    2    1    2    0    0 -0.21837869306E+02 -0.28781603532E+02  0.26904280315E+02  0.46142317222E+02  0.99999950803E+01 0.  0.
         12    1    1    2    0    0  0.21837869306E+02  0.28781603532E+02 -0.26904280315E+02  0.45045682778E+02  0.00000000000E+00 0. -1.
         11    1    3    3    0    0 -0.42539012230E+01 -0.10711530411E+02  0.11157961860E+02  0.16041591957E+02  0.51100000000E-03 0. -1.
        -11    1    3    3    0    0 -0.82241899696E+01 -0.56510827710E+01  0.47289705102E+01  0.11042427246E+02  0.51100000000E-03 0.  1.
         12    1    3    3    0    0 -0.93597781136E+01 -0.12418990350E+02  0.11017347944E+02  0.19058298019E+02  0.00000000000E+00 0. -1.
</event>
<event>
 7    1  0.1503436E-008  0.4614232E+02  0.7816164E-02  0.1320468E+00
        -11   -1    0    0    0    0  0.00000000000E+00  0.00000000000E+00  0.45593999997E+02  0.45594000000E+02  0.51100000000E-03 0. -1.
         11   -1    0    0    0    0 -0.00000000000E+00 -0.00000000000E+00 -0.45593999997E+02  0.45594000000E+02  0.51100000000E-03 0.  1.
    9900012    2    1    2    0    0 -0.31497496353E+02  0.31171646999E+02 -0.80839092832E+01  0.46142318270E+02  0.10000004643E+02 0.  0.
         12    1    1    2    0    0  0.31497496353E+02 -0.31171646999E+02  0.80839092832E+01  0.45045681730E+02  0.00000000000E+00 0. -1.
         11    1    3    3    0    0 -0.31497567890E+01  0.17607666914E+01 -0.29031374098E+01  0.46313577116E+01  0.51100000000E-03 0. -1.
        -11    1    3    3    0    0 -0.20394604875E+02  0.24310053554E+02 -0.36913780859E+01  0.31945968200E+02  0.51100000000E-03 0.  1.
        -12    1    3    3    0    0 -0.79531346896E+01  0.51008267540E+01 -0.14893937875E+01  0.95649923586E+01  0.00000000000E+00 0.  1.
</event>
<event>
 7    1  0.1503436E-008  0.4614232E+02  0.7816164E-02  0.1320468E+00
        -11   -1    0    0    0    0  0.00000000000E+00  0.00000000000E+00  0.45593999997E+02  0.45594000000E+02  0.51100000000E-03 0. -1.
         11   -1    0    0    0    0 -0.00000000000E+00 -0.00000000000E+00 -0.45593999997E+02  0.45594000000E+02  0.51100000000E-03 0.  1.
    9900012    2    1    2    0    0  0.36209223199E+02 -0.10756290602E+02 -0.24541963053E+02  0.46142316714E+02  0.99999904511E+01 0.  0.
         12    1    1    2    0    0 -0.36209223199E+02  0.10756290602E+02  0.24541963053E+02  0.45045683286E+02  0.00000000000E+00 0. -1.
         11    1    3    3    0    0  0.20870508170E+02 -0.30154153252E+01 -0.15321742820E+02  0.26065813706E+02  0.51100000000E-03 0. -1.
        -11    1    3    3    0    0  0.63090980227E+01 -0.52167003968E+01 -0.25654715589E+01  0.85790632048E+01  0.51100000000E-03 0.  1.
        -12    1    3    3    0    0  0.90296170068E+01 -0.25241748800E+01 -0.66547486743E+01  0.11497439803E+02  0.00000000000E+00 0.  1.
</event>
<event>
 7    1  0.1503436E-008  0.4614232E+02  0.7816164E-02  0.1320468E+00
        -11   -1    0    0    0    0  0.00000000000E+00  0.00000000000E+00  0.45593999997E+02  0.45594000000E+02  0.51100000000E-03 0.  1.
         11   -1    0    0    0    0 -0.00000000000E+00 -0.00000000000E+00 -0.45593999997E+02  0.45594000000E+02  0.51100000000E-03 0. -1.
    9900012    2    1    2    0    0  0.10055513082E+02 -0.11849865925E+01  0.43893006436E+02  0.46142317071E+02  0.99999937080E+01 0.  0.
         12    1    1    2    0    0 -0.10055513082E+02  0.11849865925E+01 -0.43893006436E+02  0.45045682929E+02  0.00000000000E+00 0. -1.
         11    1    3    3    0    0  0.63950575440E+01 -0.29960422981E+01  0.15119570285E+02  0.16687553335E+02  0.51100000000E-03 0. -1.
        -11    1    3    3    0    0  0.27480801422E+01  0.39714324912E+00  0.26398432706E+02  0.26544056149E+02  0.51100000000E-03 0.  1.
        -12    1    3    3    0    0  0.91237539555E+00  0.14139124565E+01  0.23750034444E+01  0.29107075872E+01  0.00000000000E+00 0.  1.
</event>
<event>
 7    1  0.1503436E-008  0.4614232E+02  0.7816164E-02  0.1320468E+00
        -11   -1    0    0    0    0  0.00000000000E+00  0.00000000000E+00  0.45593999997E+02  0.45594000000E+02  0.51100000000E-03 0.  1.
         11   -1    0    0    0    0 -0.00000000000E+00 -0.00000000000E+00 -0.45593999997E+02  0.45594000000E+02  0.51100000000E-03 0. -1.
    9900012    2    1    2    0    0 -0.13734166495E+02 -0.42034412733E+02  0.85787126107E+01  0.46142317708E+02  0.99999995154E+01 0.  0.
         12    1    1    2    0    0  0.13734166495E+02  0.42034412733E+02 -0.85787126107E+01  0.45045682292E+02  0.00000000000E+00 0. -1.
         11    1    3    3    0    0 -0.14440438007E+01 -0.14358591627E+02  0.15508776367E+01  0.14514118565E+02  0.51100000000E-03 0. -1.
        -11    1    3    3    0    0 -0.54802272387E+01 -0.12409012741E+02  0.61337142704E+01  0.14887543075E+02  0.51100000000E-03 0.  1.
        -12    1    3    3    0    0 -0.68098954558E+01 -0.15266808365E+02  0.89412070365E+00  0.16740656069E+02  0.00000000000E+00 0.  1.
</event>
<event>
 7    1  0.1503436E-008  0.4614232E+02  0.7816164E-02  0.1320468E+00
        -11   -1    0    0    0    0  0.00000000000E+00  0.00000000000E+00  0.45593999997E+02  0.45594000000E+02  0.51100000000E-03 0.  1.
         11   -1    0    0    0    0 -0.00000000000E+00 -0.00000000000E+00 -0.45593999997E+02  0.45594000000E+02  0.51100000000E-03 0. -1.
    9900012    2    1    2    0    0  0.35748441001E+02 -0.18705534751E+02  0.20031609859E+02  0.46142318100E+02  0.10000003091E+02 0.  0.
         12    1    1    2    0    0 -0.35748441001E+02  0.18705534751E+02 -0.20031609859E+02  0.45045681900E+02  0.00000000000E+00 0. -1.
         11    1    3    3    0    0  0.89646423836E+01 -0.63675894709E+01  0.13742730754E+01  0.11081499695E+02  0.51100000000E-03 0. -1.
        -11    1    3    3    0    0  0.17528147844E+02 -0.63878685731E+01  0.12431587334E+02  0.22418411979E+02  0.51100000000E-03 0.  1.
         12    1    3    3    0    0  0.92556507732E+01 -0.59500767073E+01  0.62257494493E+01  0.12642406427E+02  0.00000000000E+00 0. -1.
</event>
<event>
 7    1  0.1503436E-008  0.4614232E+02  0.7816164E-02  0.1320468E+00
        -11   -1    0    0    0    0  0.00000000000E+00  0.00000000000E+00  0.45593999997E+02  0.45594000000E+02  0.51100000000E-03 0. -1.
         11   -1    0    0    0    0 -0.00000000000E+00 -0.00000000000E+00 -0.45593999997E+02  0.45594000000E+02  0.51100000000E-03 0.  1.
    9900012    2    1    2    0    0  0.40636160935E+02 -0.14224737732E+02 -0.13246591267E+02  0.46142324078E+02  0.10000057603E+02 0.  0.
         12    1    1    2    0    0 -0.40636160935E+02  0.14224737732E+02  0.13246591267E+02  0.45045675922E+02  0.00000000000E+00 0. -1.
         11    1    3    3    0    0  0.94403608280E-01 -0.86612605695E+00 -0.28624231587E+00  0.91707214127E+00  0.51100000000E-03 0. -1.
        -11    1    3    3    0    0  0.28367545223E+02 -0.66478931252E+01 -0.62938153210E+01  0.29808123332E+02  0.51100000000E-03 0.  1.
         12    1    3    3    0    0  0.12174212103E+02 -0.67107185496E+01 -0.66665336298E+01  0.15417128605E+02  0.00000000000E+00 0. -1.
</event>
<event>
 7    1  0.1503436E-008  0.4614232E+02  0.7816164E-02  0.1320468E+00
        -11   -1    0    0    0    0  0.00000000000E+00  0.00000000000E+00  0.45593999997E+02  0.45594000000E+02  0.51100000000E-03 0.  1.
         11   -1    0    0    0    0 -0.00000000000E+00 -0.00000000000E+00 -0.45593999997E+02  0.45594000000E+02  0.51100000000E-03 0. -1.
    9900012    2    1    2    0    0  0.14478222558E+02  0.10721935802E+02  0.41286008371E+02  0.46142319597E+02  0.10000016739E+02 0.  0.
         12    1    1    2    0    0 -0.14478222558E+02 -0.10721935802E+02 -0.41286008371E+02  0.45045680403E+02  0.00000000000E+00 0. -1.
         11    1    3    3    0    0  0.25435912108E+01  0.63430693135E+01  0.12337259613E+02  0.14103629305E+02  0.51100000000E-03 0. -1.
        -11    1    3    3    0    0  0.57753427042E+00  0.10268752934E+01  0.70091494174E+01  0.71074745528E+01  0.51100000000E-03 0.  1.
        -12    1    3    3    0    0  0.11357097077E+02  0.33519911954E+01  0.21939599341E+02  0.24931215739E+02  0.00000000000E+00 0.  1.
</event>
<event>
 7    1  0.1503436E-008  0.4614232E+02  0.7816164E-02  0.1320468E+00
        -11   -1    0    0    0    0  0.00000000000E+00  0.00000000000E+00  0.45593999997E+02  0.45594000000E+02  0.51100000000E-03 0.  1.
         11   -1    0    0    0    0 -0.00000000000E+00 -0.00000000000E+00 -0.45593999997E+02  0.45594000000E+02  0.51100000000E-03 0. -1.
    9900012    2    1    2    0    0 -0.36196477279E+02  0.26078152121E+02  0.62336641356E+01  0.46142317032E+02  0.99999933544E+01 0.  0.
         12    1    1    2    0    0  0.36196477279E+02 -0.26078152121E+02 -0.62336641356E+01  0.45045682968E+02  0.00000000000E+00 0. -1.
         11    1    3    3    0    0 -0.19390472602E+02  0.10720670487E+02  0.22597634844E+01  0.22271725005E+02  0.51100000000E-03 0. -1.
        -11    1    3    3    0    0 -0.12822437958E+02  0.80441363838E+01  0.34577281130E+01  0.15526716630E+02  0.51100000000E-03 0.  1.
         12    1    3    3    0    0 -0.39835667187E+01  0.73133452504E+01  0.51617253811E+00  0.83438753971E+01  0.00000000000E+00 0. -1.
</event>
<event>
 7    1  0.1503436E-008  0.4614232E+02  0.7816164E-02  0.1320468E+00
        -11   -1    0    0    0    0  0.00000000000E+00  0.00000000000E+00  0.45593999997E+02  0.45594000000E+02  0.51100000000E-03 0.  1.
         11   -1    0    0    0    0 -0.00000000000E+00 -0.00000000000E+00 -0.45593999997E+02  0.45594000000E+02  0.51100000000E-03 0. -1.
    9900012    2    1    2    0    0  0.74731081632E+01  0.13930426827E+02  0.42180674694E+02  0.46142318133E+02  0.10000003391E+02 0.  0.
         12    1    1    2    0    0 -0.74731081632E+01 -0.13930426827E+02 -0.42180674694E+02  0.45045681867E+02  0.00000000000E+00 0. -1.
         11    1    3    3    0    0  0.32656030542E+01  0.95831168267E+00  0.12294574481E+02  0.12756923082E+02  0.51100000000E-03 0. -1.
        -11    1    3    3    0    0  0.15528374767E+01  0.68399705466E+01  0.21772503448E+02  0.22874405085E+02  0.51100000000E-03 0.  1.
        -12    1    3    3    0    0  0.26546676323E+01  0.61321445982E+01  0.81135967644E+01  0.10510989966E+02  0.00000000000E+00 0.  1.
</event>
<event>
 7    1  0.1503436E-008  0.4614232E+02  0.7816164E-02  0.1320468E+00
        -11   -1    0    0    0    0  0.00000000000E+00  0.00000000000E+00  0.45593999997E+02  0.45594000000E+02  0.51100000000E-03 0.  1.
         11   -1    0    0    0    0 -0.00000000000E+00 -0.00000000000E+00 -0.45593999997E+02  0.45594000000E+02  0.51100000000E-03 0. -1.
    9900012    2    1    2    0    0  0.16961968313E+02  0.15010610486E+02  0.38936956234E+02  0.46142319220E+02  0.10000013300E+02 0.  0.
         12    1    1    2    0    0 -0.16961968313E+02 -0.15010610486E+02 -0.38936956234E+02  0.45045680780E+02  0.00000000000E+00 0. -1.
         11    1    3    3    0    0  0.10959773641E+02  0.48065395007E+01  0.14734449497E+02  0.18982188032E+02  0.51100000000E-03 0. -1.
        -11    1    3    3    0    0  0.61607551084E+01  0.86601135215E+01  0.19500732699E+02  0.22208805591E+02  0.51100000000E-03 0.  1.
         12    1    3    3    0    0 -0.15856043702E+00  0.15439574635E+01  0.47017740382E+01  0.49513255970E+01  0.00000000000E+00 0. -1.
</event>
<event>
 7    1  0.1503436E-008  0.4614232E+02  0.7816164E-02  0.1320468E+00
        -11   -1    0    0    0    0  0.00000000000E+00  0.00000000000E+00  0.45593999997E+02  0.45594000000E+02  0.51100000000E-03 0.  1.
         11   -1    0    0    0    0 -0.00000000000E+00 -0.00000000000E+00 -0.45593999997E+02  0.45594000000E+02  0.51100000000E-03 0. -1.
    9900012    2    1    2    0    0 -0.12235913962E+02 -0.16985036147E+02  0.39886142896E+02  0.46142318314E+02  0.10000005044E+02 0.  0.
         12    1    1    2    0    0  0.12235913962E+02  0.16985036147E+02 -0.39886142896E+02  0.45045681686E+02  0.00000000000E+00 0. -1.
         11    1    3    3    0    0 -0.18781347851E+01 -0.10317311429E+02  0.17102795685E+02  0.20061902350E+02  0.51100000000E-03 0. -1.
        -11    1    3    3    0    0 -0.29646421792E+01 -0.27162070479E+01  0.49671613842E+01  0.63905849854E+01  0.51100000000E-03 0.  1.
         12    1    3    3    0    0 -0.73931369972E+01 -0.39515176703E+01  0.17816185827E+02  0.19689830979E+02  0.00000000000E+00 0. -1.
</event>
<event>
 7    1  0.1503436E-008  0.4614232E+02  0.7816164E-02  0.1320468E+00
        -11   -1    0    0    0    0  0.00000000000E+00  0.00000000000E+00  0.45593999997E+02  0.45594000000E+02  0.51100000000E-03 0.  1.
         11   -1    0    0    0    0 -0.00000000000E+00 -0.00000000000E+00 -0.45593999997E+02  0.45594000000E+02  0.51100000000E-03 0. -1.
    9900012    2    1    2    0    0 -0.26232967964E+02 -0.29371965168E+02  0.21868523276E+02  0.46142320337E+02  0.10000023490E+02 0.  0.
         12    1    1    2    0    0  0.26232967964E+02  0.29371965168E+02 -0.21868523276E+02  0.45045679663E+02  0.00000000000E+00 0. -1.
         11    1    3    3    0    0 -0.98694854329E+01 -0.10208459160E+02  0.58383217974E+01  0.15352699528E+02  0.51100000000E-03 0. -1.
        -11    1    3    3    0    0 -0.16743822917E+02 -0.17919366825E+02  0.13625479453E+02  0.28055534282E+02  0.51100000000E-03 0.  1.
        -12    1    3    3    0    0  0.38034038559E+00 -0.12441391828E+01  0.24047220257E+01  0.27340865268E+01  0.00000000000E+00 0.  1.
</event>
<event>
 7    1  0.1503436E-008  0.4614232E+02  0.7816164E-02  0.1320468E+00
        -11   -1    0    0    0    0  0.00000000000E+00  0.00000000000E+00  0.45593999997E+02  0.45594000000E+02  0.51100000000E-03 0.  1.
         11   -1    0    0    0    0 -0.00000000000E+00 -0.00000000000E+00 -0.45593999997E+02  0.45594000000E+02  0.51100000000E-03 0. -1.
    9900012    2    1    2    0    0  0.71866346822E+01 -0.33377892056E+02  0.29383364769E+02  0.46142317395E+02  0.99999966620E+01 0.  0.
         12    1    1    2    0    0 -0.71866346822E+01  0.33377892056E+02 -0.29383364769E+02  0.45045682605E+02  0.00000000000E+00 0. -1.
         11    1    3    3    0    0  0.47668807873E+01 -0.10000049925E+02  0.52772583820E+01  0.12270843786E+02  0.51100000000E-03 0. -1.
        -11    1    3    3    0    0 -0.45763571178E+00 -0.12811575269E+02  0.13750263271E+02  0.18799351893E+02  0.51100000000E-03 0.  1.
         12    1    3    3    0    0  0.28773896067E+01 -0.10566266863E+02  0.10355843116E+02  0.15072121716E+02  0.00000000000E+00 0. -1.
</event>
<event>
 7    1  0.1503436E-008  0.4614232E+02  0.7816164E-02  0.1320468E+00
        -11   -1    0    0    0    0  0.00000000000E+00  0.00000000000E+00  0.45593999997E+02  0.45594000000E+02  0.51100000000E-03 0. -1.
         11   -1    0    0    0    0 -0.00000000000E+00 -0.00000000000E+00 -0.45593999997E+02  0.45594000000E+02  0.51100000000E-03 0.  1.
    9900012    2    1    2    0    0  0.14860399225E+02 -0.41328204789E+02 -0.10013072961E+02  0.46142316452E+02  0.99999880623E+01 0.  0.
         12    1    1    2    0    0 -0.14860399225E+02  0.41328204789E+02  0.10013072961E+02  0.45045683548E+02  0.00000000000E+00 0. -1.
         11    1    3    3    0    0  0.17297304481E+01 -0.10163968011E+02 -0.45534406812E+01  0.11270848923E+02  0.51100000000E-03 0. -1.
        -11    1    3    3    0    0  0.49570284278E+01 -0.19660148002E+02 -0.41763848742E+01  0.20701104830E+02  0.51100000000E-03 0.  1.
         12    1    3    3    0    0  0.81736403491E+01 -0.11504088776E+02 -0.12832474051E+01  0.14170362699E+02  0.00000000000E+00 0. -1.
</event>
<event>
 7    1  0.1503436E-008  0.4614232E+02  0.7816164E-02  0.1320468E+00
        -11   -1    0    0    0    0  0.00000000000E+00  0.00000000000E+00  0.45593999997E+02  0.45594000000E+02  0.51100000000E-03 0. -1.
         11   -1    0    0    0    0 -0.00000000000E+00 -0.00000000000E+00 -0.45593999997E+02  0.45594000000E+02  0.51100000000E-03 0.  1.
    9900012    2    1    2    0    0  0.35672608506E+02  0.18253991425E+02 -0.20575958679E+02  0.46142320117E+02  0.10000021485E+02 0.  0.
         12    1    1    2    0    0 -0.35672608506E+02 -0.18253991425E+02  0.20575958679E+02  0.45045679883E+02  0.00000000000E+00 0. -1.
         11    1    3    3    0    0  0.27628937740E+02  0.10869511957E+02 -0.14685508087E+02  0.33123536026E+02  0.51100000000E-03 0. -1.
        -11    1    3    3    0    0  0.39661715181E+01  0.34152388232E+01 -0.50383153499E+01  0.72649153165E+01  0.51100000000E-03 0.  1.
         12    1    3    3    0    0  0.40774992476E+01  0.39692406444E+01 -0.85213524285E+00  0.57538687749E+01  0.00000000000E+00 0. -1.
</event>
<event>
 7    1  0.1503436E-008  0.4614233E+02  0.7816164E-02  0.1320468E+00
        -11   -1    0    0    0    0  0.00000000000E+00  0.00000000000E+00  0.45593999997E+02  0.45594000000E+02  0.51100000000E-03 0.  1.
         11   -1    0    0    0    0 -0.00000000000E+00 -0.00000000000E+00 -0.45593999997E+02  0.45594000000E+02  0.51100000000E-03 0. -1.
    9900012    2    1    2    0    0 -0.12864541157E+02 -0.21989627387E+02  0.37149324945E+02  0.46142329002E+02  0.10000102500E+02 0.  0.
         12    1    1    2    0    0  0.12864541157E+02  0.21989627387E+02 -0.37149324945E+02  0.45045670998E+02  0.00000000000E+00 0. -1.
         11    1    3    3    0    0 -0.15165971840E+01 -0.85772559497E+00  0.86162302761E+01  0.87906305033E+01  0.51100000000E-03 0.  1.
        -11    1    3    3    0    0 -0.37774908524E+01 -0.87998544543E+01  0.10114894827E+02  0.13929033462E+02  0.51100000000E-03 0. -1.
         12    1    3    3    0    0 -0.75704531203E+01 -0.12332047338E+02  0.18418199842E+02  0.23422665036E+02  0.00000000000E+00 0. -1.
</event>
<event>
 7    1  0.1503436E-008  0.4614232E+02  0.7816164E-02  0.1320468E+00
        -11   -1    0    0    0    0  0.00000000000E+00  0.00000000000E+00  0.45593999997E+02  0.45594000000E+02  0.51100000000E-03 0. -1.
         11   -1    0    0    0    0 -0.00000000000E+00 -0.00000000000E+00 -0.45593999997E+02  0.45594000000E+02  0.51100000000E-03 0.  1.
    9900012    2    1    2    0    0  0.94528070774E+01 -0.43834494256E+02 -0.42772622287E+01  0.46142318515E+02  0.10000006872E+02 0.  0.
         12    1    1    2    0    0 -0.94528070774E+01  0.43834494256E+02  0.42772622287E+01  0.45045681485E+02  0.00000000000E+00 0. -1.
         11    1    3    3    0    0  0.16250546059E+01 -0.32527446542E+01  0.15703372613E+01  0.39606955996E+01  0.51100000000E-03 0. -1.
        -11    1    3    3    0    0  0.44348041549E+01 -0.19063009919E+02  0.20032366841E+00  0.19573092880E+02  0.51100000000E-03 0.  1.
         12    1    3    3    0    0  0.33929483166E+01 -0.21518739683E+02 -0.60479231585E+01  0.22608530035E+02  0.00000000000E+00 0. -1.
</event>
<event>
 7    1  0.1820537E-008  0.4614232E+02  0.7816164E-02  0.1320468E+00
        -11   -1    0    0    0    0  0.00000000000E+00  0.00000000000E+00  0.45593999997E+02  0.45594000000E+02  0.51100000000E-03 0.  1.
         11   -1    0    0    0    0 -0.00000000000E+00 -0.00000000000E+00 -0.45593999997E+02  0.45594000000E+02  0.51100000000E-03 0. -1.
    9900012    2    1    2    0    0 -0.43753447637E+02  0.11139689324E+01  0.10654032472E+02  0.46142317467E+02  0.99999973220E+01 0.  0.
         12    1    1    2    0    0  0.43753447637E+02 -0.11139689324E+01 -0.10654032472E+02  0.45045682533E+02  0.00000000000E+00 0. -1.
         11    1    3    3    0    0 -0.75019985263E+01 -0.19923767782E+00  0.45561743534E+01  0.87794306501E+01  0.51100000000E-03 0. -1.
        -11    1    3    3    0    0 -0.58741001367E+01  0.24823234288E+01  0.10473037270E+00  0.63779268366E+01  0.51100000000E-03 0.  1.
        -12    1    3    3    0    0 -0.30377348974E+02 -0.11691168185E+01  0.59931277457E+01  0.30984959981E+02  0.00000000000E+00 0.  1.
</event>
<event>
 7    1  0.1503436E-008  0.4614232E+02  0.7816164E-02  0.1320468E+00
        -11   -1    0    0    0    0  0.00000000000E+00  0.00000000000E+00  0.45593999997E+02  0.45594000000E+02  0.51100000000E-03 0.  1.
         11   -1    0    0    0    0 -0.00000000000E+00 -0.00000000000E+00 -0.45593999997E+02  0.45594000000E+02  0.51100000000E-03 0. -1.
    9900012    2    1    2    0    0  0.99573423877E+00  0.13328946308E+02  0.43016987594E+02  0.46142317432E+02  0.99999970000E+01 0.  0.
         12    1    1    2    0    0 -0.99573423877E+00 -0.13328946308E+02 -0.43016987594E+02  0.45045682568E+02  0.00000000000E+00 0. -1.
         11    1    3    3    0    0  0.49306197482E+01  0.43067981180E+01  0.16828215273E+02  0.18056808983E+02  0.51100000000E-03 0. -1.
        -11    1    3    3    0    0 -0.21442352977E+01  0.32262202775E+01  0.13071900510E+02  0.13633811848E+02  0.51100000000E-03 0.  1.
         12    1    3    3    0    0 -0.17906502118E+01  0.57959279121E+01  0.13116871811E+02  0.14451696601E+02  0.00000000000E+00 0. -1.
</event>
<event>
 7    1  0.1503436E-008  0.4614232E+02  0.7816164E-02  0.1320468E+00
        -11   -1    0    0    0    0  0.00000000000E+00  0.00000000000E+00  0.45593999997E+02  0.45594000000E+02  0.51100000000E-03 0.  1.
         11   -1    0    0    0    0 -0.00000000000E+00 -0.00000000000E+00 -0.45593999997E+02  0.45594000000E+02  0.51100000000E-03 0. -1.
    9900012    2    1    2    0    0  0.16789196926E+02 -0.11976767540E+02  0.40047388933E+02  0.46142318137E+02  0.10000003429E+02 0.  0.
         12    1    1    2    0    0 -0.16789196926E+02  0.11976767540E+02 -0.40047388933E+02  0.45045681863E+02  0.00000000000E+00 0. -1.
         11    1    3    3    0    0  0.77575273666E+01 -0.92564470090E+00  0.96164983308E+01  0.12390039926E+02  0.51100000000E-03 0. -1.
        -11    1    3    3    0    0  0.62631033237E+01 -0.54830063660E+01  0.18889406555E+02  0.20642177752E+02  0.51100000000E-03 0.  1.
         12    1    3    3    0    0  0.27685662358E+01 -0.55681164729E+01  0.11541484047E+02  0.13110100460E+02  0.00000000000E+00 0. -1.
</event>
<event>
 7    1  0.1503436E-008  0.4614232E+02  0.7816164E-02  0.1320468E+00
        -11   -1    0    0    0    0  0.00000000000E+00  0.00000000000E+00  0.45593999997E+02  0.45594000000E+02  0.51100000000E-03 0.  1.
         11   -1    0    0    0    0 -0.00000000000E+00 -0.00000000000E+00 -0.45593999997E+02  0.45594000000E+02  0.51100000000E-03 0. -1.
    9900012    2    1    2    0    0  0.67480401889E+01  0.33891664562E+02  0.28895196020E+02  0.46142319561E+02  0.10000016410E+02 0.  0.
         12    1    1    2    0    0 -0.67480401889E+01 -0.33891664562E+02 -0.28895196020E+02  0.45045680439E+02  0.00000000000E+00 0. -1.
         11    1    3    3    0    0 -0.54468580364E+00  0.16162792972E+01  0.31569292664E+01  0.35882090304E+01  0.51100000000E-03 0. -1.
        -11    1    3    3    0    0  0.44692715583E+01  0.26991975741E+02  0.23786061061E+02  0.36253521811E+02  0.51100000000E-03 0.  1.
        -12    1    3    3    0    0  0.28234544343E+01  0.52834095239E+01  0.19522056930E+01  0.63005887191E+01  0.00000000000E+00 0.  1.
</event>
<event>
 7    1  0.1503436E-008  0.4614233E+02  0.7816164E-02  0.1320468E+00
        -11   -1    0    0    0    0  0.00000000000E+00  0.00000000000E+00  0.45593999997E+02  0.45594000000E+02  0.51100000000E-03 0.  1.
         11   -1    0    0    0    0 -0.00000000000E+00 -0.00000000000E+00 -0.45593999997E+02  0.45594000000E+02  0.51100000000E-03 0. -1.
    9900012    2    1    2    0    0  0.41958709824E+02  0.94198750728E+01  0.13410628708E+02  0.46142330521E+02  0.10000116352E+02 0.  0.
         12    1    1    2    0    0 -0.41958709824E+02 -0.94198750728E+01 -0.13410628708E+02  0.45045669479E+02  0.00000000000E+00 0. -1.
         11    1    3    3    0    0  0.17369866758E+02  0.24284789903E+01  0.45651391328E+01  0.18123197206E+02  0.51100000000E-03 0. -1.
        -11    1    3    3    0    0  0.16944032770E+02  0.74675955953E+01  0.39637659142E+01  0.18936120800E+02  0.51100000000E-03 0.  1.
         12    1    3    3    0    0  0.76448102963E+01 -0.47619951280E+00  0.48817236606E+01  0.90830125146E+01  0.00000000000E+00 0. -1.
</event>
<event>
 7    1  0.1503436E-008  0.4614232E+02  0.7816164E-02  0.1320468E+00
        -11   -1    0    0    0    0  0.00000000000E+00  0.00000000000E+00  0.45593999997E+02  0.45594000000E+02  0.51100000000E-03 0.  1.
         11   -1    0    0    0    0 -0.00000000000E+00 -0.00000000000E+00 -0.45593999997E+02  0.45594000000E+02  0.51100000000E-03 0. -1.
    9900012    2    1    2    0    0  0.38907310109E+02  0.98510095748E+01  0.20452198653E+02  0.46142316529E+02  0.99999887670E+01 0.  0.
         12    1    1    2    0    0 -0.38907310109E+02 -0.98510095748E+01 -0.20452198653E+02  0.45045683471E+02  0.00000000000E+00 0. -1.
         11    1    3    3    0    0  0.11532713452E+02  0.60381092198E+01  0.36751360286E+01  0.13526598523E+02  0.51100000000E-03 0. -1.
        -11    1    3    3    0    0  0.17693655017E+02  0.21205462088E+01  0.13122070080E+02  0.22130315577E+02  0.51100000000E-03 0.  1.
        -12    1    3    3    0    0  0.96809416400E+01  0.16923541462E+01  0.36549925443E+01  0.10485402429E+02  0.00000000000E+00 0.  1.
</event>
<event>
 7    1  0.1503436E-008  0.4614232E+02  0.7816164E-02  0.1320468E+00
        -11   -1    0    0    0    0  0.00000000000E+00  0.00000000000E+00  0.45593999997E+02  0.45594000000E+02  0.51100000000E-03 0.  1.
         11   -1    0    0    0    0 -0.00000000000E+00 -0.00000000000E+00 -0.45593999997E+02  0.45594000000E+02  0.51100000000E-03 0. -1.
    9900012    2    1    2    0    0 -0.25464181318E+02  0.30850938210E+02  0.20710107056E+02  0.46142318155E+02  0.10000003590E+02 0.  0.
         12    1    1    2    0    0  0.25464181318E+02 -0.30850938210E+02 -0.20710107056E+02  0.45045681845E+02  0.00000000000E+00 0. -1.
         11    1    3    3    0    0 -0.19861760054E+02  0.23353691362E+02  0.11091863168E+02  0.32602359446E+02  0.51100000000E-03 0. -1.
        -11    1    3    3    0    0 -0.50055860047E+01  0.55181339992E+01  0.78089977681E+01  0.10792874524E+02  0.51100000000E-03 0.  1.
         12    1    3    3    0    0 -0.59683525896E+00  0.19791128488E+01  0.18092461199E+01  0.27470841846E+01  0.00000000000E+00 0. -1.
</event>
<event>
 7    1  0.1503436E-008  0.4614232E+02  0.7816164E-02  0.1320468E+00
        -11   -1    0    0    0    0  0.00000000000E+00  0.00000000000E+00  0.45593999997E+02  0.45594000000E+02  0.51100000000E-03 0.  1.
         11   -1    0    0    0    0 -0.00000000000E+00 -0.00000000000E+00 -0.45593999997E+02  0.45594000000E+02  0.51100000000E-03 0. -1.
    9900012    2    1    2    0    0 -0.14752413455E+02 -0.27768310066E+02  0.32255244434E+02  0.46142317187E+02  0.99999947610E+01 0.  0.
         12    1    1    2    0    0  0.14752413455E+02  0.27768310066E+02 -0.32255244434E+02  0.45045682813E+02  0.00000000000E+00 0. -1.
         11    1    3    3    0    0 -0.11388289013E+02 -0.22666023345E+02  0.21616152907E+02  0.33327163210E+02  0.51100000000E-03 0. -1.
        -11    1    3    3    0    0 -0.18894761067E+01 -0.18138482652E+00  0.39375331872E+01  0.43711769896E+01  0.51100000000E-03 0.  1.
        -12    1    3    3    0    0 -0.14746483352E+01 -0.49209018945E+01  0.67015583399E+01  0.84439769867E+01  0.00000000000E+00 0.  1.
</event>
<event>
 7    1  0.1503436E-008  0.4614232E+02  0.7816164E-02  0.1320468E+00
        -11   -1    0    0    0    0  0.00000000000E+00  0.00000000000E+00  0.45593999997E+02  0.45594000000E+02  0.51100000000E-03 0. -1.
         11   -1    0    0    0    0 -0.00000000000E+00 -0.00000000000E+00 -0.45593999997E+02  0.45594000000E+02  0.51100000000E-03 0.  1.
    9900012    2    1    2    0    0 -0.10305544898E+02  0.43714664441E+02  0.34550507079E+01  0.46142317429E+02  0.99999969754E+01 0.  0.
         12    1    1    2    0    0  0.10305544898E+02 -0.43714664441E+02 -0.34550507079E+01  0.45045682571E+02  0.00000000000E+00 0. -1.
         11    1    3    3    0    0 -0.17035819234E+01  0.27530340190E+01 -0.63591087607E+00  0.32993591170E+01  0.51100000000E-03 0. -1.
        -11    1    3    3    0    0 -0.92093746922E+01  0.40976965866E+02  0.42536403263E+01  0.42213952316E+02  0.51100000000E-03 0.  1.
        -12    1    3    3    0    0  0.60741171792E+00 -0.15335443797E-01 -0.16267874228E+00  0.62900599687E+00  0.00000000000E+00 0.  1.
</event>
<event>
 7    1  0.1503436E-008  0.4614232E+02  0.7816164E-02  0.1320468E+00
        -11   -1    0    0    0    0  0.00000000000E+00  0.00000000000E+00  0.45593999997E+02  0.45594000000E+02  0.51100000000E-03 0.  1.
         11   -1    0    0    0    0 -0.00000000000E+00 -0.00000000000E+00 -0.45593999997E+02  0.45594000000E+02  0.51100000000E-03 0. -1.
    9900012    2    1    2    0    0 -0.32904661218E+02 -0.93262347436E+01  0.29315833590E+02  0.46142317816E+02  0.10000000505E+02 0.  0.
         12    1    1    2    0    0  0.32904661218E+02  0.93262347436E+01 -0.29315833590E+02  0.45045682184E+02  0.00000000000E+00 0. -1.
         11    1    3    3    0    0 -0.20908223592E+02 -0.18035566686E+01  0.20811235991E+02  0.29555273204E+02  0.51100000000E-03 0. -1.
        -11    1    3    3    0    0 -0.22493265428E+01 -0.17819324002E+01  0.23501594233E+01  0.37091781504E+01  0.51100000000E-03 0.  1.
         12    1    3    3    0    0 -0.97471110828E+01 -0.57407456749E+01  0.61544381752E+01  0.12877866462E+02  0.00000000000E+00 0. -1.
</event>
<event>
 7    1  0.1503436E-008  0.4614232E+02  0.7816164E-02  0.1320468E+00
        -11   -1    0    0    0    0  0.00000000000E+00  0.00000000000E+00  0.45593999997E+02  0.45594000000E+02  0.51100000000E-03 0.  1.
         11   -1    0    0    0    0 -0.00000000000E+00 -0.00000000000E+00 -0.45593999997E+02  0.45594000000E+02  0.51100000000E-03 0. -1.
    9900012    2    1    2    0    0  0.64029132984E+01 -0.22495916166E+02  0.38497401952E+02  0.46142317633E+02  0.99999988312E+01 0.  0.
         12    1    1    2    0    0 -0.64029132984E+01  0.22495916166E+02 -0.38497401952E+02  0.45045682367E+02  0.00000000000E+00 0. -1.
         11    1    3    3    0    0 -0.22080483026E+01 -0.34173230579E+01  0.43202229184E+01  0.59344671635E+01  0.51100000000E-03 0. -1.
        -11    1    3    3    0    0  0.39623804445E+01 -0.70822142788E+01  0.15972178096E+02  0.17915599104E+02  0.51100000000E-03 0.  1.
         12    1    3    3    0    0  0.46485811565E+01 -0.11996378829E+02  0.18205000938E+02  0.22292251365E+02  0.00000000000E+00 0. -1.
</event>
<event>
 7    1  0.1503436E-008  0.4614232E+02  0.7816164E-02  0.1320468E+00
        -11   -1    0    0    0    0  0.00000000000E+00  0.00000000000E+00  0.45593999997E+02  0.45594000000E+02  0.51100000000E-03 0.  1.
         11   -1    0    0    0    0 -0.00000000000E+00 -0.00000000000E+00 -0.45593999997E+02  0.45594000000E+02  0.51100000000E-03 0. -1.
    9900012    2    1    2    0    0 -0.18241251319E+02  0.29168345698E+02  0.29078822156E+02  0.46142317205E+02  0.99999949316E+01 0.  0.
         12    1    1    2    0    0  0.18241251319E+02 -0.29168345698E+02 -0.29078822156E+02  0.45045682795E+02  0.00000000000E+00 0. -1.
         11    1    3    3    0    0 -0.61894906247E+01  0.10703168231E+02  0.13700499659E+02  0.18454573838E+02  0.51100000000E-03 0.  1.
        -11    1    3    3    0    0 -0.53880096821E+01  0.48668749341E+01  0.21285897983E+01  0.75662417850E+01  0.51100000000E-03 0. -1.
        -12    1    3    3    0    0 -0.66637510117E+01  0.13598302533E+02  0.13249732699E+02  0.20121501582E+02  0.00000000000E+00 0.  1.
</event>
<event>
 7    1  0.1503436E-008  0.4614232E+02  0.7816164E-02  0.1320468E+00
        -11   -1    0    0    0    0  0.00000000000E+00  0.00000000000E+00  0.45593999997E+02  0.45594000000E+02  0.51100000000E-03 0.  1.
         11   -1    0    0    0    0 -0.00000000000E+00 -0.00000000000E+00 -0.45593999997E+02  0.45594000000E+02  0.51100000000E-03 0. -1.
    9900012    2    1    2    0    0 -0.16485864596E+02 -0.41833753298E+02 -0.26957485841E+01  0.46142315335E+02  0.99999778793E+01 0.  0.
         12    1    1    2    0    0  0.16485864596E+02  0.41833753298E+02  0.26957485841E+01  0.45045684665E+02  0.00000000000E+00 0. -1.
         11    1    3    3    0    0 -0.10929289275E+02 -0.20872855159E+02 -0.51739823345E+01  0.24122511064E+02  0.51100000000E-03 0. -1.
        -11    1    3    3    0    0 -0.48056478118E+01 -0.13106421922E+02  0.21355151249E+01  0.14122073913E+02  0.51100000000E-03 0.  1.
         12    1    3    3    0    0 -0.75092750925E+00 -0.78544762163E+01  0.34271862545E+00  0.78977303583E+01  0.00000000000E+00 0. -1.
</event>
<event>
 7    1  0.1503436E-008  0.4614232E+02  0.7816164E-02  0.1320468E+00
        -11   -1    0    0    0    0  0.00000000000E+00  0.00000000000E+00  0.45593999997E+02  0.45594000000E+02  0.51100000000E-03 0.  1.
         11   -1    0    0    0    0 -0.00000000000E+00 -0.00000000000E+00 -0.45593999997E+02  0.45594000000E+02  0.51100000000E-03 0. -1.
    9900012    2    1    2    0    0 -0.16523528935E+02 -0.41055193273E+02  0.83998524819E+01  0.46142318466E+02  0.10000006424E+02 0.  0.
         12    1    1    2    0    0  0.16523528935E+02  0.41055193273E+02 -0.83998524819E+01  0.45045681534E+02  0.00000000000E+00 0. -1.
         11    1    3    3    0    0 -0.62276956119E+01 -0.94654573787E+01  0.42084627502E+00  0.11338262119E+02  0.51100000000E-03 0. -1.
        -11    1    3    3    0    0 -0.82070169601E+00 -0.45928055055E+01  0.35262569312E+01  0.58482392128E+01  0.51100000000E-03 0.  1.
        -12    1    3    3    0    0 -0.94751316275E+01 -0.26996930389E+02  0.44527492758E+01  0.28955817134E+02  0.00000000000E+00 0.  1.
</event>
<event>
 7    1  0.1503436E-008  0.4614232E+02  0.7816164E-02  0.1320468E+00
        -11   -1    0    0    0    0  0.00000000000E+00  0.00000000000E+00  0.45593999997E+02  0.45594000000E+02  0.51100000000E-03 0.  1.
         11   -1    0    0    0    0 -0.00000000000E+00 -0.00000000000E+00 -0.45593999997E+02  0.45594000000E+02  0.51100000000E-03 0. -1.
    9900012    2    1    2    0    0  0.18139308299E+02 -0.39497972338E+02  0.11831705122E+02  0.46142316850E+02  0.99999916944E+01 0.  0.
         12    1    1    2    0    0 -0.18139308299E+02  0.39497972338E+02 -0.11831705122E+02  0.45045683150E+02  0.00000000000E+00 0. -1.
         11    1    3    3    0    0  0.69477580537E+01 -0.10689645238E+02  0.63425535067E+01  0.14239657388E+02  0.51100000000E-03 0. -1.
        -11    1    3    3    0    0  0.94051559576E+01 -0.21644108947E+02  0.64295755044E+01  0.24459432784E+02  0.51100000000E-03 0.  1.
         12    1    3    3    0    0  0.17863942873E+01 -0.71642181520E+01 -0.94042388940E+00  0.74432266774E+01  0.00000000000E+00 0. -1.
</event>
<event>
 7    1  0.1503436E-008  0.4614232E+02  0.7816164E-02  0.1320468E+00
        -11   -1    0    0    0    0  0.00000000000E+00  0.00000000000E+00  0.45593999997E+02  0.45594000000E+02  0.51100000000E-03 0. -1.
         11   -1    0    0    0    0 -0.00000000000E+00 -0.00000000000E+00 -0.45593999997E+02  0.45594000000E+02  0.51100000000E-03 0.  1.
    9900012    2    1    2    0    0  0.36454806546E+02 -0.26175726424E+02 -0.38719425280E+01  0.46142317487E+02  0.99999975015E+01 0.  0.
         12    1    1    2    0    0 -0.36454806546E+02  0.26175726424E+02  0.38719425280E+01  0.45045682513E+02  0.00000000000E+00 0. -1.
         11    1    3    3    0    0  0.67428192538E+01 -0.45183144779E+01 -0.44266609445E+01  0.92453287983E+01  0.51100000000E-03 0. -1.
        -11    1    3    3    0    0  0.29663028228E+02 -0.21748357683E+02  0.59423004956E+00  0.36786402586E+02  0.51100000000E-03 0.  1.
         12    1    3    3    0    0  0.48959063873E-01  0.90945737234E-01 -0.39511633075E-01  0.11058610313E+00  0.00000000000E+00 0. -1.
</event>
<event>
 7    1  0.1503436E-008  0.4614232E+02  0.7816164E-02  0.1320468E+00
        -11   -1    0    0    0    0  0.00000000000E+00  0.00000000000E+00  0.45593999997E+02  0.45594000000E+02  0.51100000000E-03 0. -1.
         11   -1    0    0    0    0 -0.00000000000E+00 -0.00000000000E+00 -0.45593999997E+02  0.45594000000E+02  0.51100000000E-03 0.  1.
    9900012    2    1    2    0    0  0.20092634811E+02 -0.89902486054E+01 -0.39301081417E+02  0.46142317142E+02  0.99999943537E+01 0.  0.
         12    1    1    2    0    0 -0.20092634811E+02  0.89902486054E+01  0.39301081417E+02  0.45045682858E+02  0.00000000000E+00 0. -1.
         11    1    3    3    0    0 -0.63062388405E+00 -0.21841842258E+01 -0.42702419041E+01  0.48376971170E+01  0.51100000000E-03 0. -1.
        -11    1    3    3    0    0  0.56616876002E+01 -0.10617358570E+01 -0.88835212605E+01  0.10587678677E+02  0.51100000000E-03 0.  1.
         12    1    3    3    0    0  0.15061571095E+02 -0.57443285226E+01 -0.26147318252E+02  0.30716941348E+02  0.00000000000E+00 0. -1.
</event>
<event>
 7    1  0.1503436E-008  0.4614232E+02  0.7816164E-02  0.1320468E+00
        -11   -1    0    0    0    0  0.00000000000E+00  0.00000000000E+00  0.45593999997E+02  0.45594000000E+02  0.51100000000E-03 0.  1.
         11   -1    0    0    0    0 -0.00000000000E+00 -0.00000000000E+00 -0.45593999997E+02  0.45594000000E+02  0.51100000000E-03 0. -1.
    9900012    2    1    2    0    0  0.25833204491E+02  0.32608214869E+02  0.17276090056E+02  0.46142318533E+02  0.10000007035E+02 0.  0.
         12    1    1    2    0    0 -0.25833204491E+02 -0.32608214869E+02 -0.17276090056E+02  0.45045681467E+02  0.00000000000E+00 0. -1.
         11    1    3    3    0    0 -0.41910202236E+00  0.41417423304E+00 -0.17172025874E+00  0.61373846941E+00  0.51100000000E-03 0. -1.
        -11    1    3    3    0    0  0.19784956692E+02  0.23661396670E+02  0.97703775567E+01  0.32353770747E+02  0.51100000000E-03 0.  1.
        -12    1    3    3    0    0  0.64673498212E+01  0.85326439660E+01  0.76774327581E+01  0.13174809316E+02  0.00000000000E+00 0.  1.
</event>
<event>
 7    1  0.1503436E-008  0.4614232E+02  0.7816164E-02  0.1320468E+00
        -11   -1    0    0    0    0  0.00000000000E+00  0.00000000000E+00  0.45593999997E+02  0.45594000000E+02  0.51100000000E-03 0.  1.
         11   -1    0    0    0    0 -0.00000000000E+00 -0.00000000000E+00 -0.45593999997E+02  0.45594000000E+02  0.51100000000E-03 0. -1.
    9900012    2    1    2    0    0 -0.15493380932E+02 -0.37308272634E+02 -0.19928910872E+02  0.46142317098E+02  0.99999939504E+01 0.  0.
         12    1    1    2    0    0  0.15493380932E+02  0.37308272634E+02  0.19928910872E+02  0.45045682902E+02  0.00000000000E+00 0. -1.
         11    1    3    3    0    0 -0.14528513102E+02 -0.34403088715E+02 -0.18470309763E+02  0.41662963758E+02  0.51100000000E-03 0. -1.
        -11    1    3    3    0    0 -0.92395205088E+00 -0.20220322622E+01 -0.23422903053E+01  0.32293383219E+01  0.51100000000E-03 0.  1.
         12    1    3    3    0    0 -0.40915779361E-01 -0.88315165603E+00  0.88368919659E+00  0.12500150178E+01  0.00000000000E+00 0. -1.
</event>
<event>
 7    1  0.1503436E-008  0.4614232E+02  0.7816164E-02  0.1320468E+00
        -11   -1    0    0    0    0  0.00000000000E+00  0.00000000000E+00  0.45593999997E+02  0.45594000000E+02  0.51100000000E-03 0.  1.
         11   -1    0    0    0    0 -0.00000000000E+00 -0.00000000000E+00 -0.45593999997E+02  0.45594000000E+02  0.51100000000E-03 0. -1.
    9900012    2    1    2    0    0  0.38084172149E+02 -0.21392229292E+02  0.11003722332E+02  0.46142317105E+02  0.99999940153E+01 0.  0.
         12    1    1    2    0    0 -0.38084172149E+02  0.21392229292E+02 -0.11003722332E+02  0.45045682895E+02  0.00000000000E+00 0. -1.
         11    1    3    3    0    0  0.16112743990E+02 -0.47472317471E+01  0.70338730098E+01  0.18210768735E+02  0.51100000000E-03 0. -1.
        -11    1    3    3    0    0  0.13668004760E+02 -0.92533734316E+01  0.17835691109E+01  0.16601818967E+02  0.51100000000E-03 0.  1.
         12    1    3    3    0    0  0.83034233987E+01 -0.73916241131E+01  0.21862802109E+01  0.11329729402E+02  0.00000000000E+00 0. -1.
</event>
<event>
 7    1  0.1503436E-008  0.4614232E+02  0.7816164E-02  0.1320468E+00
        -11   -1    0    0    0    0  0.00000000000E+00  0.00000000000E+00  0.45593999997E+02  0.45594000000E+02  0.51100000000E-03 0.  1.
         11   -1    0    0    0    0 -0.00000000000E+00 -0.00000000000E+00 -0.45593999997E+02  0.45594000000E+02  0.51100000000E-03 0. -1.
    9900012    2    1    2    0    0 -0.27876910033E+02 -0.21128704044E+02  0.28382550928E+02  0.46142318245E+02  0.10000004416E+02 0.  0.
         12    1    1    2    0    0  0.27876910033E+02  0.21128704044E+02 -0.28382550928E+02  0.45045681755E+02  0.00000000000E+00 0. -1.
         11    1    3    3    0    0 -0.94463229559E+01 -0.60727249394E+01  0.45732465728E+01  0.12125410923E+02  0.51100000000E-03 0. -1.
        -11    1    3    3    0    0 -0.15854222900E+02 -0.13639381575E+02  0.22723227423E+02  0.30882586976E+02  0.51100000000E-03 0.  1.
        -12    1    3    3    0    0 -0.25763641770E+01 -0.14165975288E+01  0.10860769315E+01  0.31343203462E+01  0.00000000000E+00 0.  1.
</event>
<event>
 7    1  0.1503436E-008  0.4614232E+02  0.7816164E-02  0.1320468E+00
        -11   -1    0    0    0    0  0.00000000000E+00  0.00000000000E+00  0.45593999997E+02  0.45594000000E+02  0.51100000000E-03 0. -1.
         11   -1    0    0    0    0 -0.00000000000E+00 -0.00000000000E+00 -0.45593999997E+02  0.45594000000E+02  0.51100000000E-03 0.  1.
    9900012    2    1    2    0    0 -0.92863638744E+01 -0.12423151724E+02 -0.42291160789E+02  0.46142317259E+02  0.99999954211E+01 0.  0.
         12    1    1    2    0    0  0.92863638744E+01  0.12423151724E+02  0.42291160789E+02  0.45045682741E+02  0.00000000000E+00 0. -1.
         11    1    3    3    0    0 -0.21186367912E+01 -0.76755641390E+01 -0.12813203837E+02  0.15085791313E+02  0.51100000000E-03 0. -1.
        -11    1    3    3    0    0 -0.76687276494E+01 -0.40838323767E+01 -0.24177231621E+02  0.25690963387E+02  0.51100000000E-03 0.  1.
         12    1    3    3    0    0  0.50100056623E+00 -0.66375520779E+00 -0.53007253309E+01  0.53655625593E+01  0.00000000000E+00 0. -1.
</event>
<event>
 7    1  0.1503436E-008  0.4614232E+02  0.7816164E-02  0.1320468E+00
        -11   -1    0    0    0    0  0.00000000000E+00  0.00000000000E+00  0.45593999997E+02  0.45594000000E+02  0.51100000000E-03 0.  1.
         11   -1    0    0    0    0 -0.00000000000E+00 -0.00000000000E+00 -0.45593999997E+02  0.45594000000E+02  0.51100000000E-03 0. -1.
    9900012    2    1    2    0    0  0.16201403804E+02  0.16738656651E+02  0.38554447814E+02  0.46142316989E+02  0.99999929591E+01 0.  0.
         12    1    1    2    0    0 -0.16201403804E+02 -0.16738656651E+02 -0.38554447814E+02  0.45045683011E+02  0.00000000000E+00 0. -1.
         11    1    3    3    0    0  0.10603007442E+02  0.55712255649E+01  0.14859061607E+02  0.19085440346E+02  0.51100000000E-03 0. -1.
        -11    1    3    3    0    0  0.52445416373E+01  0.10262108245E+02  0.18686362759E+02  0.21954412678E+02  0.51100000000E-03 0.  1.
         12    1    3    3    0    0  0.35385472521E+00  0.90532284118E+00  0.50090234473E+01  0.51024639645E+01  0.00000000000E+00 0. -1.
</event>
<event>
 7    1  0.1503436E-008  0.4614232E+02  0.7816164E-02  0.1320468E+00
        -11   -1    0    0    0    0  0.00000000000E+00  0.00000000000E+00  0.45593999997E+02  0.45594000000E+02  0.51100000000E-03 0.  1.
         11   -1    0    0    0    0 -0.00000000000E+00 -0.00000000000E+00 -0.45593999997E+02  0.45594000000E+02  0.51100000000E-03 0. -1.
    9900012    2    1    2    0    0 -0.28596722497E+02  0.14163204235E+02  0.31792209836E+02  0.46142317654E+02  0.99999990240E+01 0.  0.
         12    1    1    2    0    0  0.28596722497E+02 -0.14163204235E+02 -0.31792209836E+02  0.45045682346E+02  0.00000000000E+00 0. -1.
         11    1    3    3    0    0 -0.39597824195E+01  0.46670262195E+01  0.10602322809E+02  0.12242150945E+02  0.51100000000E-03 0. -1.
        -11    1    3    3    0    0 -0.11983887757E+02  0.54279436709E+01  0.11104927828E+02  0.17216142442E+02  0.51100000000E-03 0.  1.
         12    1    3    3    0    0 -0.12653052321E+02  0.40682343446E+01  0.10084959199E+02  0.16684024267E+02  0.00000000000E+00 0. -1.
</event>
<event>
 7    1  0.1503436E-008  0.4614232E+02  0.7816164E-02  0.1320468E+00
        -11   -1    0    0    0    0  0.00000000000E+00  0.00000000000E+00  0.45593999997E+02  0.45594000000E+02  0.51100000000E-03 0.  1.
         11   -1    0    0    0    0 -0.00000000000E+00 -0.00000000000E+00 -0.45593999997E+02  0.45594000000E+02  0.51100000000E-03 0. -1.
    9900012    2    1    2    0    0  0.30526133517E+02 -0.11911150028E+02  0.30909436447E+02  0.46142316700E+02  0.99999903240E+01 0.  0.
         12    1    1    2    0    0 -0.30526133517E+02  0.11911150028E+02 -0.30909436447E+02  0.45045683300E+02  0.00000000000E+00 0. -1.
         11    1    3    3    0    0  0.23214861386E+02 -0.90477901321E+01  0.23287373477E+02  0.34104164836E+02  0.51100000000E-03 0. -1.
        -11    1    3    3    0    0  0.15463384227E+01  0.83956496656E+00  0.38116216710E+01  0.41981533886E+01  0.51100000000E-03 0.  1.
         12    1    3    3    0    0  0.57649337087E+01 -0.37029248627E+01  0.38104412991E+01  0.78399984757E+01  0.00000000000E+00 0. -1.
</event>
<event>
 7    1  0.1503436E-008  0.4614232E+02  0.7816164E-02  0.1320468E+00
        -11   -1    0    0    0    0  0.00000000000E+00  0.00000000000E+00  0.45593999997E+02  0.45594000000E+02  0.51100000000E-03 0.  1.
         11   -1    0    0    0    0 -0.00000000000E+00 -0.00000000000E+00 -0.45593999997E+02  0.45594000000E+02  0.51100000000E-03 0. -1.
    9900012    2    1    2    0    0  0.17369823310E+02 -0.31022421178E+02  0.27658851644E+02  0.46142318167E+02  0.10000003699E+02 0.  0.
         12    1    1    2    0    0 -0.17369823310E+02  0.31022421178E+02 -0.27658851644E+02  0.45045681833E+02  0.00000000000E+00 0. -1.
         11    1    3    3    0    0 -0.30395068049E+00 -0.24768138304E+01  0.30552941053E+01  0.39448466507E+01  0.51100000000E-03 0. -1.
        -11    1    3    3    0    0  0.59908897559E+01 -0.91448712241E+01  0.41889103617E+01  0.11707536037E+02  0.51100000000E-03 0.  1.
        -12    1    3    3    0    0  0.11682884234E+02 -0.19400736123E+02  0.20414647177E+02  0.30489935479E+02  0.00000000000E+00 0.  1.
</event>
<event>
 7    1  0.1503436E-008  0.4614232E+02  0.7816164E-02  0.1320468E+00
        -11   -1    0    0    0    0  0.00000000000E+00  0.00000000000E+00  0.45593999997E+02  0.45594000000E+02  0.51100000000E-03 0. -1.
         11   -1    0    0    0    0 -0.00000000000E+00 -0.00000000000E+00 -0.45593999997E+02  0.45594000000E+02  0.51100000000E-03 0.  1.
    9900012    2    1    2    0    0  0.41563947239E+02 -0.12957274831E+02  0.11561170969E+02  0.46142319238E+02  0.10000013466E+02 0.  0.
         12    1    1    2    0    0 -0.41563947239E+02  0.12957274831E+02 -0.11561170969E+02  0.45045680762E+02  0.00000000000E+00 0. -1.
         11    1    3    3    0    0  0.20059679155E+02 -0.13397475895E+01  0.58525014491E+01  0.20938897413E+02  0.51100000000E-03 0. -1.
        -11    1    3    3    0    0  0.18037450471E+02 -0.10570867513E+02  0.52259464533E+01  0.21550020326E+02  0.51100000000E-03 0.  1.
        -12    1    3    3    0    0  0.34668176134E+01 -0.10466597292E+01  0.48272306698E+00  0.36534014990E+01  0.00000000000E+00 0.  1.
</event>
<event>
 7    1  0.1503436E-008  0.4614231E+02  0.7816164E-02  0.1320468E+00
        -11   -1    0    0    0    0  0.00000000000E+00  0.00000000000E+00  0.45593999997E+02  0.45594000000E+02  0.51100000000E-03 0.  1.
         11   -1    0    0    0    0 -0.00000000000E+00 -0.00000000000E+00 -0.45593999997E+02  0.45594000000E+02  0.51100000000E-03 0. -1.
    9900012    2    1    2    0    0  0.33518391069E+02 -0.96711404783E+01  0.28497379053E+02  0.46142310851E+02  0.99999369908E+01 0.  0.
         12    1    1    2    0    0 -0.33518391069E+02  0.96711404783E+01 -0.28497379053E+02  0.45045689149E+02  0.00000000000E+00 0. -1.
         11    1    3    3    0    0  0.12672558510E+02 -0.35878211321E+01  0.14909830750E+02  0.19893950159E+02  0.51100000000E-03 0. -1.
        -11    1    3    3    0    0  0.11958515424E+01 -0.92636876691E+00 -0.42238945555E+00  0.15705518511E+01  0.51100000000E-03 0.  1.
        -12    1    3    3    0    0  0.19649981016E+02 -0.51569505793E+01  0.14009937759E+02  0.24677808842E+02  0.00000000000E+00 0.  1.
</event>
<event>
 7    1  0.1503436E-008  0.4614232E+02  0.7816164E-02  0.1320468E+00
        -11   -1    0    0    0    0  0.00000000000E+00  0.00000000000E+00  0.45593999997E+02  0.45594000000E+02  0.51100000000E-03 0.  1.
         11   -1    0    0    0    0 -0.00000000000E+00 -0.00000000000E+00 -0.45593999997E+02  0.45594000000E+02  0.51100000000E-03 0. -1.
    9900012    2    1    2    0    0  0.29349443871E+02 -0.13051203738E+02  0.31581474715E+02  0.46142319633E+02  0.10000017066E+02 0.  0.
         12    1    1    2    0    0 -0.29349443871E+02  0.13051203738E+02 -0.31581474715E+02  0.45045680367E+02  0.00000000000E+00 0. -1.
         11    1    3    3    0    0  0.12508681346E+01 -0.25648048283E+01  0.12061173039E+01  0.30980016316E+01  0.51100000000E-03 0. -1.
        -11    1    3    3    0    0  0.19373327947E+02 -0.77824984432E+01  0.24473360298E+02  0.32168905519E+02  0.51100000000E-03 0.  1.
         12    1    3    3    0    0  0.87252477893E+01 -0.27039004669E+01  0.59019971131E+01  0.10875412482E+02  0.00000000000E+00 0. -1.
</event>
<event>
 7    1  0.1503436E-008  0.4614232E+02  0.7816164E-02  0.1320468E+00
        -11   -1    0    0    0    0  0.00000000000E+00  0.00000000000E+00  0.45593999997E+02  0.45594000000E+02  0.51100000000E-03 0.  1.
         11   -1    0    0    0    0 -0.00000000000E+00 -0.00000000000E+00 -0.45593999997E+02  0.45594000000E+02  0.51100000000E-03 0. -1.
    9900012    2    1    2    0    0 -0.15019536789E+02 -0.12108535929E+02  0.40705163768E+02  0.46142317798E+02  0.10000000336E+02 0.  0.
         12    1    1    2    0    0  0.15019536789E+02  0.12108535929E+02 -0.40705163768E+02  0.45045682202E+02  0.00000000000E+00 0. -1.
         11    1    3    3    0    0 -0.80165453961E+01 -0.23605973418E+01  0.13605718640E+02  0.15967247723E+02  0.51100000000E-03 0. -1.
        -11    1    3    3    0    0 -0.40673617217E+01 -0.64717907471E+01  0.10405764971E+02  0.12911523990E+02  0.51100000000E-03 0.  1.
         12    1    3    3    0    0 -0.29356296714E+01 -0.32761478397E+01  0.16693680157E+02  0.17263546085E+02  0.00000000000E+00 0. -1.
</event>
<event>
 7    1  0.1503436E-008  0.4614232E+02  0.7816164E-02  0.1320468E+00
        -11   -1    0    0    0    0  0.00000000000E+00  0.00000000000E+00  0.45593999997E+02  0.45594000000E+02  0.51100000000E-03 0. -1.
         11   -1    0    0    0    0 -0.00000000000E+00 -0.00000000000E+00 -0.45593999997E+02  0.45594000000E+02  0.51100000000E-03 0.  1.
    9900012    2    1    2    0    0  0.35615973327E+02 -0.20088010667E+02 -0.18896768018E+02  0.46142316853E+02  0.99999917225E+01 0.  0.
         12    1    1    2    0    0 -0.35615973327E+02  0.20088010667E+02  0.18896768018E+02  0.45045683147E+02  0.00000000000E+00 0. -1.
         11    1    3    3    0    0  0.41105130209E+01 -0.99543662776E+00 -0.21278509236E+01  0.47344441268E+01  0.51100000000E-03 0. -1.
        -11    1    3    3    0    0  0.11002322982E+02 -0.11508799569E+02 -0.83832102886E+01  0.17993937688E+02  0.51100000000E-03 0.  1.
        -12    1    3    3    0    0  0.20503137324E+02 -0.75837744710E+01 -0.83857068055E+01  0.23413935039E+02  0.00000000000E+00 0.  1.
</event>
<event>
 7    1  0.1503436E-008  0.4614232E+02  0.7816164E-02  0.1320468E+00
        -11   -1    0    0    0    0  0.00000000000E+00  0.00000000000E+00  0.45593999997E+02  0.45594000000E+02  0.51100000000E-03 0.  1.
         11   -1    0    0    0    0 -0.00000000000E+00 -0.00000000000E+00 -0.45593999997E+02  0.45594000000E+02  0.51100000000E-03 0. -1.
    9900012    2    1    2    0    0 -0.32622076867E+02  0.27088216295E+02  0.15203363821E+02  0.46142316160E+02  0.99999853978E+01 0.  0.
         12    1    1    2    0    0  0.32622076867E+02 -0.27088216295E+02 -0.15203363821E+02  0.45045683840E+02  0.00000000000E+00 0. -1.
         11    1    3    3    0    0  0.32720037262E+00  0.50353677059E+00 -0.49704286601E+00  0.77952628881E+00  0.51100000000E-03 0. -1.
        -11    1    3    3    0    0 -0.32506212347E+02  0.26316375731E+02  0.14878260943E+02  0.44391081556E+02  0.51100000000E-03 0.  1.
        -12    1    3    3    0    0 -0.44306489274E+00  0.26830379307E+00  0.82214574424E+00  0.97170831494E+00  0.00000000000E+00 0.  1.
</event>
<event>
 7    1  0.1503436E-008  0.4614232E+02  0.7816164E-02  0.1320468E+00
        -11   -1    0    0    0    0  0.00000000000E+00  0.00000000000E+00  0.45593999997E+02  0.45594000000E+02  0.51100000000E-03 0. -1.
         11   -1    0    0    0    0 -0.00000000000E+00 -0.00000000000E+00 -0.45593999997E+02  0.45594000000E+02  0.51100000000E-03 0.  1.
    9900012    2    1    2    0    0  0.36521244873E+02 -0.75846706216E+01 -0.25254401082E+02  0.46142319524E+02  0.10000016079E+02 0.  0.
         12    1    1    2    0    0 -0.36521244873E+02  0.75846706216E+01  0.25254401082E+02  0.45045680476E+02  0.00000000000E+00 0. -1.
         11    1    3    3    0    0  0.10228931153E+02 -0.45286433511E+01 -0.66118617482E+01  0.12994474178E+02  0.51100000000E-03 0.  1.
        -11    1    3    3    0    0  0.35855771093E+01 -0.27764460833E+01 -0.45387235872E+01  0.64159978275E+01  0.51100000000E-03 0. -1.
         12    1    3    3    0    0  0.22706736611E+02 -0.27958118714E+00 -0.14103815747E+02  0.26731847519E+02  0.00000000000E+00 0. -1.
</event>
<event>
 7    1  0.1503436E-008  0.4614232E+02  0.7816164E-02  0.1320468E+00
        -11   -1    0    0    0    0  0.00000000000E+00  0.00000000000E+00  0.45593999997E+02  0.45594000000E+02  0.51100000000E-03 0.  1.
         11   -1    0    0    0    0 -0.00000000000E+00 -0.00000000000E+00 -0.45593999997E+02  0.45594000000E+02  0.51100000000E-03 0. -1.
    9900012    2    1    2    0    0 -0.22156964438E+02  0.91749270394E+01  0.38131393082E+02  0.46142317658E+02  0.99999990635E+01 0.  0.
         12    1    1    2    0    0  0.22156964438E+02 -0.91749270394E+01 -0.38131393082E+02  0.45045682342E+02  0.00000000000E+00 0. -1.
         11    1    3    3    0    0 -0.28606835412E+01 -0.46034056521E+00  0.16567784627E+01  0.33377146215E+01  0.51100000000E-03 0. -1.
        -11    1    3    3    0    0 -0.71059865115E+01  0.32148037360E+01  0.80046587299E+01  0.11176071269E+02  0.51100000000E-03 0.  1.
        -12    1    3    3    0    0 -0.12190294385E+02  0.64204638686E+01  0.28469955889E+02  0.31628531768E+02  0.00000000000E+00 0.  1.
</event>
<event>
 7    1  0.1503436E-008  0.4614232E+02  0.7816164E-02  0.1320468E+00
        -11   -1    0    0    0    0  0.00000000000E+00  0.00000000000E+00  0.45593999997E+02  0.45594000000E+02  0.51100000000E-03 0. -1.
         11   -1    0    0    0    0 -0.00000000000E+00 -0.00000000000E+00 -0.45593999997E+02  0.45594000000E+02  0.51100000000E-03 0.  1.
    9900012    2    1    2    0    0 -0.34020590555E+02  0.27259702978E+02  0.11341138756E+02  0.46142318560E+02  0.10000007282E+02 0.  0.
         12    1    1    2    0    0  0.34020590555E+02 -0.27259702978E+02 -0.11341138756E+02  0.45045681440E+02  0.00000000000E+00 0. -1.
         11    1    3    3    0    0 -0.11262191084E+02  0.69172113890E+01  0.51488004979E+01  0.14184319097E+02  0.51100000000E-03 0. -1.
        -11    1    3    3    0    0 -0.21344435311E+02  0.16295760038E+02  0.65965841307E+01  0.27652335099E+02  0.51100000000E-03 0.  1.
         12    1    3    3    0    0 -0.14139641591E+01  0.40467315505E+01 -0.40424587227E+00  0.43056643634E+01  0.00000000000E+00 0. -1.
</event>
<event>
 7    1  0.1503436E-008  0.4614232E+02  0.7816164E-02  0.1320468E+00
        -11   -1    0    0    0    0  0.00000000000E+00  0.00000000000E+00  0.45593999997E+02  0.45594000000E+02  0.51100000000E-03 0.  1.
         11   -1    0    0    0    0 -0.00000000000E+00 -0.00000000000E+00 -0.45593999997E+02  0.45594000000E+02  0.51100000000E-03 0. -1.
    9900012    2    1    2    0    0  0.16978196531E+02 -0.26308754067E+02  0.32383695671E+02  0.46142318261E+02  0.10000004560E+02 0.  0.
         12    1    1    2    0    0 -0.16978196531E+02  0.26308754067E+02 -0.32383695671E+02  0.45045681739E+02  0.00000000000E+00 0. -1.
         11    1    3    3    0    0  0.11919142427E+02 -0.22364589986E+02  0.21604972376E+02  0.33301886929E+02  0.51100000000E-03 0. -1.
        -11    1    3    3    0    0  0.16753676289E+01 -0.26190701864E+01  0.66460275295E+01  0.73373065574E+01  0.51100000000E-03 0.  1.
         12    1    3    3    0    0  0.33836864748E+01 -0.13250938945E+01  0.41326957661E+01  0.55031247746E+01  0.00000000000E+00 0. -1.
</event>
<event>
 7    1  0.1503436E-008  0.4614232E+02  0.7816164E-02  0.1320468E+00
        -11   -1    0    0    0    0  0.00000000000E+00  0.00000000000E+00  0.45593999997E+02  0.45594000000E+02  0.51100000000E-03 0. -1.
         11   -1    0    0    0    0 -0.00000000000E+00 -0.00000000000E+00 -0.45593999997E+02  0.45594000000E+02  0.51100000000E-03 0.  1.
    9900012    2    1    2    0    0  0.35410597004E+02  0.87031949355E+01 -0.26447259455E+02  0.46142317466E+02  0.99999973124E+01 0.  0.
         12    1    1    2    0    0 -0.35410597004E+02 -0.87031949355E+01  0.26447259455E+02  0.45045682534E+02  0.00000000000E+00 0. -1.
         11    1    3    3    0    0  0.29697744586E+01  0.95749309867E+00 -0.62447033885E+01  0.69808791739E+01  0.51100000000E-03 0. -1.
        -11    1    3    3    0    0  0.32201138959E+02  0.72898097509E+01 -0.20037075137E+02  0.38620448687E+02  0.51100000000E-03 0.  1.
        -12    1    3    3    0    0  0.23968358593E+00  0.45589208592E+00 -0.16548092959E+00  0.54098960566E+00  0.00000000000E+00 0.  1.
</event>
<event>
 7    1  0.1503436E-008  0.4614232E+02  0.7816164E-02  0.1320468E+00
        -11   -1    0    0    0    0  0.00000000000E+00  0.00000000000E+00  0.45593999997E+02  0.45594000000E+02  0.51100000000E-03 0. -1.
         11   -1    0    0    0    0 -0.00000000000E+00 -0.00000000000E+00 -0.45593999997E+02  0.45594000000E+02  0.51100000000E-03 0.  1.
    9900012    2    1    2    0    0 -0.97837939510E+01  0.30508563638E+02 -0.31664150597E+02  0.46142317495E+02  0.99999975753E+01 0.  0.
         12    1    1    2    0    0  0.97837939510E+01 -0.30508563638E+02  0.31664150597E+02  0.45045682505E+02  0.00000000000E+00 0. -1.
         11    1    3    3    0    0  0.10808527058E+01  0.96071470447E+00 -0.10769131416E+01  0.18030411783E+01  0.51100000000E-03 0. -1.
        -11    1    3    3    0    0 -0.84029482078E+01  0.13774817088E+02 -0.15292120615E+02  0.22230701238E+02  0.51100000000E-03 0.  1.
         12    1    3    3    0    0 -0.24616984490E+01  0.15773031845E+02 -0.15295116841E+02  0.22108575079E+02  0.00000000000E+00 0. -1.
</event>
<event>
 7    1  0.1503436E-008  0.4614232E+02  0.7816164E-02  0.1320468E+00
        -11   -1    0    0    0    0  0.00000000000E+00  0.00000000000E+00  0.45593999997E+02  0.45594000000E+02  0.51100000000E-03 0.  1.
         11   -1    0    0    0    0 -0.00000000000E+00 -0.00000000000E+00 -0.45593999997E+02  0.45594000000E+02  0.51100000000E-03 0. -1.
    9900012    2    1    2    0    0  0.32215927567E+02  0.23193075258E+02  0.21291518184E+02  0.46142317904E+02  0.10000001305E+02 0.  0.
         12    1    1    2    0    0 -0.32215927567E+02 -0.23193075258E+02 -0.21291518184E+02  0.45045682096E+02  0.00000000000E+00 0. -1.
         11    1    3    3    0    0  0.16945288068E+02  0.69474684272E+01  0.11058237589E+02  0.21393801067E+02  0.51100000000E-03 0. -1.
        -11    1    3    3    0    0  0.10554136981E+02  0.99693070356E+01  0.80456835276E+01  0.16598491313E+02  0.51100000000E-03 0.  1.
         12    1    3    3    0    0  0.47165025180E+01  0.62762997947E+01  0.21875970671E+01  0.81500255241E+01  0.00000000000E+00 0. -1.
</event>
<event>
 7    1  0.1503436E-008  0.4614232E+02  0.7816164E-02  0.1320468E+00
        -11   -1    0    0    0    0  0.00000000000E+00  0.00000000000E+00  0.45593999997E+02  0.45594000000E+02  0.51100000000E-03 0.  1.
         11   -1    0    0    0    0 -0.00000000000E+00 -0.00000000000E+00 -0.45593999997E+02  0.45594000000E+02  0.51100000000E-03 0. -1.
    9900012    2    1    2    0    0 -0.43684531932E+02 -0.63963243036E+01 -0.89365635622E+01  0.46142318042E+02  0.10000002565E+02 0.  0.
         12    1    1    2    0    0  0.43684531932E+02  0.63963243036E+01  0.89365635622E+01  0.45045681958E+02  0.00000000000E+00 0. -1.
         11    1    3    3    0    0 -0.21363537805E+01  0.13917248706E+01  0.78808445227E+00  0.26687043591E+01  0.51100000000E-03 0. -1.
        -11    1    3    3    0    0 -0.40259512273E+02 -0.70492038137E+01 -0.95906084272E+01  0.41982131593E+02  0.51100000000E-03 0.  1.
        -12    1    3    3    0    0 -0.12886658789E+01 -0.73884536061E+00 -0.13403958726E+00  0.14914820902E+01  0.00000000000E+00 0.  1.
</event>
<event>
 7    1  0.1503436E-008  0.4614232E+02  0.7816164E-02  0.1320468E+00
        -11   -1    0    0    0    0  0.00000000000E+00  0.00000000000E+00  0.45593999997E+02  0.45594000000E+02  0.51100000000E-03 0. -1.
         11   -1    0    0    0    0 -0.00000000000E+00 -0.00000000000E+00 -0.45593999997E+02  0.45594000000E+02  0.51100000000E-03 0.  1.
    9900012    2    1    2    0    0 -0.48300978169E+01 -0.12058371614E+02 -0.43132114730E+02  0.46142317721E+02  0.99999996359E+01 0.  0.
         12    1    1    2    0    0  0.48300978169E+01  0.12058371614E+02  0.43132114730E+02  0.45045682279E+02  0.00000000000E+00 0. -1.
         11    1    3    3    0    0 -0.69234121311E+00  0.34791513934E-01 -0.10502024199E+02  0.10524878115E+02  0.51100000000E-03 0. -1.
        -11    1    3    3    0    0 -0.56190501768E+01 -0.79994267558E+01 -0.20068600023E+02  0.22322931269E+02  0.51100000000E-03 0.  1.
        -12    1    3    3    0    0  0.14812935731E+01 -0.40937363722E+01 -0.12561490508E+02  0.13294508337E+02  0.00000000000E+00 0.  1.
</event>
<event>
 7    1  0.1503436E-008  0.4614232E+02  0.7816164E-02  0.1320468E+00
        -11   -1    0    0    0    0  0.00000000000E+00  0.00000000000E+00  0.45593999997E+02  0.45594000000E+02  0.51100000000E-03 0.  1.
         11   -1    0    0    0    0 -0.00000000000E+00 -0.00000000000E+00 -0.45593999997E+02  0.45594000000E+02  0.51100000000E-03 0. -1.
    9900012    2    1    2    0    0 -0.12772338218E+02 -0.31104549637E+02  0.29974785047E+02  0.46142319072E+02  0.10000011955E+02 0.  0.
         12    1    1    2    0    0  0.12772338218E+02  0.31104549637E+02 -0.29974785047E+02  0.45045680928E+02  0.00000000000E+00 0. -1.
         11    1    3    3    0    0 -0.54066119216E+01 -0.75976553654E+01  0.40401464519E+01  0.10162608087E+02  0.51100000000E-03 0. -1.
        -11    1    3    3    0    0 -0.39665011053E+01 -0.14845094224E+02  0.18635556643E+02  0.24153548915E+02  0.51100000000E-03 0.  1.
        -12    1    3    3    0    0 -0.33992251907E+01 -0.86618000475E+01  0.72990819513E+01  0.11826162069E+02  0.00000000000E+00 0.  1.
</event>
<event>
 7    1  0.1503436E-008  0.4614232E+02  0.7816164E-02  0.1320468E+00
        -11   -1    0    0    0    0  0.00000000000E+00  0.00000000000E+00  0.45593999997E+02  0.45594000000E+02  0.51100000000E-03 0. -1.
         11   -1    0    0    0    0 -0.00000000000E+00 -0.00000000000E+00 -0.45593999997E+02  0.45594000000E+02  0.51100000000E-03 0.  1.
    9900012    2    1    2    0    0 -0.25383482113E+02 -0.34957606792E+02  0.12757661849E+02  0.46142319046E+02  0.10000011713E+02 0.  0.
         12    1    1    2    0    0  0.25383482113E+02  0.34957606792E+02 -0.12757661849E+02  0.45045680954E+02  0.00000000000E+00 0. -1.
         11    1    3    3    0    0 -0.14798775663E+01 -0.56611542396E+01 -0.54690442652E+00  0.58768877519E+01  0.51100000000E-03 0. -1.
        -11    1    3    3    0    0 -0.32454931549E+01 -0.60287398507E+01  0.16805629496E+01  0.70500512123E+01  0.51100000000E-03 0.  1.
         12    1    3    3    0    0 -0.20658111391E+02 -0.23267712702E+02  0.11624003326E+02  0.33215380081E+02  0.00000000000E+00 0. -1.
</event>
<event>
 7    1  0.1503436E-008  0.4614232E+02  0.7816164E-02  0.1320468E+00
        -11   -1    0    0    0    0  0.00000000000E+00  0.00000000000E+00  0.45593999997E+02  0.45594000000E+02  0.51100000000E-03 0.  1.
         11   -1    0    0    0    0 -0.00000000000E+00 -0.00000000000E+00 -0.45593999997E+02  0.45594000000E+02  0.51100000000E-03 0. -1.
    9900012    2    1    2    0    0  0.21690493574E+02 -0.26138114388E+02  0.29587750278E+02  0.46142317612E+02  0.99999986438E+01 0.  0.
         12    1    1    2    0    0 -0.21690493574E+02  0.26138114388E+02 -0.29587750278E+02  0.45045682388E+02  0.00000000000E+00 0. -1.
         11    1    3    3    0    0  0.64134991217E+01 -0.64371293803E+01  0.40518323685E+01  0.99492186350E+01  0.51100000000E-03 0. -1.
        -11    1    3    3    0    0  0.26871576559E+01 -0.69933692071E+01  0.10035086296E+02  0.12523217892E+02  0.51100000000E-03 0.  1.
        -12    1    3    3    0    0  0.12589836797E+02 -0.12707615800E+02  0.15500831614E+02  0.23669881086E+02  0.00000000000E+00 0.  1.
</event>
<event>
 7    1  0.1503436E-008  0.4614232E+02  0.7816164E-02  0.1320468E+00
        -11   -1    0    0    0    0  0.00000000000E+00  0.00000000000E+00  0.45593999997E+02  0.45594000000E+02  0.51100000000E-03 0.  1.
         11   -1    0    0    0    0 -0.00000000000E+00 -0.00000000000E+00 -0.45593999997E+02  0.45594000000E+02  0.51100000000E-03 0. -1.
    9900012    2    1    2    0    0  0.93838113206E+01  0.29739139052E+02  0.32506016809E+02  0.46142318351E+02  0.10000005379E+02 0.  0.
         12    1    1    2    0    0 -0.93838113206E+01 -0.29739139052E+02 -0.32506016809E+02  0.45045681649E+02  0.00000000000E+00 0. -1.
         11    1    3    3    0    0  0.35879516308E+01  0.17575593982E+02  0.12747138432E+02  0.22006009161E+02  0.51100000000E-03 0. -1.
        -11    1    3    3    0    0  0.49440176939E+01  0.74534125157E+01  0.14394292731E+02  0.16946749912E+02  0.51100000000E-03 0.  1.
        -12    1    3    3    0    0  0.85184199582E+00  0.47101325538E+01  0.53645856461E+01  0.71895592782E+01  0.00000000000E+00 0.  1.
</event>
<event>
 7    1  0.1503436E-008  0.4614232E+02  0.7816164E-02  0.1320468E+00
        -11   -1    0    0    0    0  0.00000000000E+00  0.00000000000E+00  0.45593999997E+02  0.45594000000E+02  0.51100000000E-03 0.  1.
         11   -1    0    0    0    0 -0.00000000000E+00 -0.00000000000E+00 -0.45593999997E+02  0.45594000000E+02  0.51100000000E-03 0. -1.
    9900012    2    1    2    0    0  0.14655642339E+02  0.29413616663E+02  0.30808517681E+02  0.46142318084E+02  0.10000002941E+02 0.  0.
         12    1    1    2    0    0 -0.14655642339E+02 -0.29413616663E+02 -0.30808517681E+02  0.45045681916E+02  0.00000000000E+00 0. -1.
         11    1    3    3    0    0  0.21571708136E+01  0.54586560211E+01  0.80239860585E+01  0.99415624528E+01  0.51100000000E-03 0.  1.
        -11    1    3    3    0    0  0.18295999564E+01  0.44447542891E+01  0.69393795406E+00  0.48564211963E+01  0.51100000000E-03 0. -1.
        -12    1    3    3    0    0  0.10668871569E+02  0.19510206353E+02  0.22090593669E+02  0.31344334434E+02  0.00000000000E+00 0.  1.
</event>
<event>
 7    1  0.1503436E-008  0.4614231E+02  0.7816164E-02  0.1320468E+00
        -11   -1    0    0    0    0  0.00000000000E+00  0.00000000000E+00  0.45593999997E+02  0.45594000000E+02  0.51100000000E-03 0. -1.
         11   -1    0    0    0    0 -0.00000000000E+00 -0.00000000000E+00 -0.45593999997E+02  0.45594000000E+02  0.51100000000E-03 0.  1.
    9900012    2    1    2    0    0  0.17409447909E+02  0.41526461726E+02  0.12561994918E+01  0.46142312780E+02  0.99999545751E+01 0.  0.
         12    1    1    2    0    0 -0.17409447909E+02 -0.41526461726E+02 -0.12561994918E+01  0.45045687220E+02  0.00000000000E+00 0. -1.
         11    1    3    3    0    0  0.47892233924E+01  0.10867601465E+02  0.30195086136E+01  0.12253932219E+02  0.51100000000E-03 0. -1.
        -11    1    3    3    0    0 -0.32183331403E+00  0.54402188807E+01 -0.94394089150E+00  0.55308754117E+01  0.51100000000E-03 0.  1.
        -12    1    3    3    0    0  0.12942057830E+02  0.25218641380E+02 -0.81936823029E+00  0.28357505149E+02  0.00000000000E+00 0.  1.
</event>
<event>
 7    1  0.1503436E-008  0.4614232E+02  0.7816164E-02  0.1320468E+00
        -11   -1    0    0    0    0  0.00000000000E+00  0.00000000000E+00  0.45593999997E+02  0.45594000000E+02  0.51100000000E-03 0. -1.
         11   -1    0    0    0    0 -0.00000000000E+00 -0.00000000000E+00 -0.45593999997E+02  0.45594000000E+02  0.51100000000E-03 0.  1.
    9900012    2    1    2    0    0 -0.61662899481E+01  0.38173595204E+02 -0.23105561483E+02  0.46142317920E+02  0.10000001453E+02 0.  0.
         12    1    1    2    0    0  0.61662899481E+01 -0.38173595204E+02  0.23105561483E+02  0.45045682080E+02  0.00000000000E+00 0. -1.
         11    1    3    3    0    0 -0.42461756729E+01  0.47728677190E+01 -0.30864980463E+01  0.70948392905E+01  0.51100000000E-03 0. -1.
        -11    1    3    3    0    0 -0.14129331993E+01  0.17947276647E+02 -0.95961246616E+01  0.20400655088E+02  0.51100000000E-03 0.  1.
         12    1    3    3    0    0 -0.50718107594E+00  0.15453450839E+02 -0.10422938775E+02  0.18646823542E+02  0.00000000000E+00 0. -1.
</event>
<event>
 7    1  0.1503436E-008  0.4614232E+02  0.7816164E-02  0.1320468E+00
        -11   -1    0    0    0    0  0.00000000000E+00  0.00000000000E+00  0.45593999997E+02  0.45594000000E+02  0.51100000000E-03 0. -1.
         11   -1    0    0    0    0 -0.00000000000E+00 -0.00000000000E+00 -0.45593999997E+02  0.45594000000E+02  0.51100000000E-03 0.  1.
    9900012    2    1    2    0    0  0.25726316489E+02  0.35998758687E+02  0.84474547149E+01  0.46142317873E+02  0.10000001024E+02 0.  0.
         12    1    1    2    0    0 -0.25726316489E+02 -0.35998758687E+02 -0.84474547149E+01  0.45045682127E+02  0.00000000000E+00 0. -1.
         11    1    3    3    0    0  0.21509688975E+00 -0.23031303984E+00  0.52390060633E+00  0.61137784940E+00  0.51100000000E-03 0. -1.
        -11    1    3    3    0    0  0.88016048842E+01  0.17233677144E+02  0.54920213212E+01  0.20115421320E+02  0.51100000000E-03 0.  1.
         12    1    3    3    0    0  0.16709614715E+02  0.18995394583E+02  0.24315327874E+01  0.25415518704E+02  0.00000000000E+00 0. -1.
</event>
<event>
 7    1  0.1503436E-008  0.4614232E+02  0.7816164E-02  0.1320468E+00
        -11   -1    0    0    0    0  0.00000000000E+00  0.00000000000E+00  0.45593999997E+02  0.45594000000E+02  0.51100000000E-03 0.  1.
         11   -1    0    0    0    0 -0.00000000000E+00 -0.00000000000E+00 -0.45593999997E+02  0.45594000000E+02  0.51100000000E-03 0. -1.
    9900012    2    1    2    0    0  0.76810282138E+01 -0.41386471988E+02  0.16039802582E+02  0.46142317355E+02  0.99999963003E+01 0.  0.
         12    1    1    2    0    0 -0.76810282138E+01  0.41386471988E+02 -0.16039802582E+02  0.45045682645E+02  0.00000000000E+00 0. -1.
         11    1    3    3    0    0 -0.11311849109E+01 -0.11934444971E+01  0.14243444517E+01  0.21754646511E+01  0.51100000000E-03 0. -1.
        -11    1    3    3    0    0  0.39525115595E+00 -0.96681337335E+01  0.19913790660E+01  0.98789991502E+01  0.51100000000E-03 0.  1.
         12    1    3    3    0    0  0.84169619687E+01 -0.30524893758E+02  0.12624079064E+02  0.34087853554E+02  0.00000000000E+00 0. -1.
</event>
<event>
 7    1  0.1503436E-008  0.4614232E+02  0.7816164E-02  0.1320468E+00
        -11   -1    0    0    0    0  0.00000000000E+00  0.00000000000E+00  0.45593999997E+02  0.45594000000E+02  0.51100000000E-03 0.  1.
         11   -1    0    0    0    0 -0.00000000000E+00 -0.00000000000E+00 -0.45593999997E+02  0.45594000000E+02  0.51100000000E-03 0. -1.
    9900012    2    1    2    0    0  0.89384219698E+01  0.42661648445E+02  0.11366706160E+02  0.46142316030E+02  0.99999842168E+01 0.  0.
         12    1    1    2    0    0 -0.89384219698E+01 -0.42661648445E+02 -0.11366706160E+02  0.45045683970E+02  0.00000000000E+00 0. -1.
         11    1    3    3    0    0  0.55089285797E+01  0.16342021653E+02  0.70172551996E+01  0.18618588470E+02  0.51100000000E-03 0. -1.
        -11    1    3    3    0    0 -0.37070639569E+00  0.18159683134E+02  0.25072622073E+01  0.18335699572E+02  0.51100000000E-03 0.  1.
        -12    1    3    3    0    0  0.38001997858E+01  0.81599436576E+01  0.18421887527E+01  0.91880279880E+01  0.00000000000E+00 0.  1.
</event>
<event>
 7    1  0.1503436E-008  0.4614232E+02  0.7816164E-02  0.1320468E+00
        -11   -1    0    0    0    0  0.00000000000E+00  0.00000000000E+00  0.45593999997E+02  0.45594000000E+02  0.51100000000E-03 0.  1.
         11   -1    0    0    0    0 -0.00000000000E+00 -0.00000000000E+00 -0.45593999997E+02  0.45594000000E+02  0.51100000000E-03 0. -1.
    9900012    2    1    2    0    0 -0.12546877682E+02  0.30486618156E+02  0.30696179292E+02  0.46142318195E+02  0.10000003953E+02 0.  0.
         12    1    1    2    0    0  0.12546877682E+02 -0.30486618156E+02 -0.30696179292E+02  0.45045681805E+02  0.00000000000E+00 0. -1.
         11    1    3    3    0    0 -0.50191208028E+00  0.70366502762E+01  0.48536539819E+01  0.85629621092E+01  0.51100000000E-03 0. -1.
        -11    1    3    3    0    0 -0.97143957597E+01  0.22838180007E+02  0.24194441995E+02  0.34660106387E+02  0.51100000000E-03 0.  1.
        -12    1    3    3    0    0 -0.23305698420E+01  0.61178787262E+00  0.16480833151E+01  0.29192496986E+01  0.00000000000E+00 0.  1.
</event>
<event>
 7    1  0.1503436E-008  0.4614232E+02  0.7816164E-02  0.1320468E+00
        -11   -1    0    0    0    0  0.00000000000E+00  0.00000000000E+00  0.45593999997E+02  0.45594000000E+02  0.51100000000E-03 0.  1.
         11   -1    0    0    0    0 -0.00000000000E+00 -0.00000000000E+00 -0.45593999997E+02  0.45594000000E+02  0.51100000000E-03 0. -1.
    9900012    2    1    2    0    0 -0.11410175072E+02 -0.31677482355E+02  0.29924212256E+02  0.46142318046E+02  0.10000002600E+02 0.  0.
         12    1    1    2    0    0  0.11410175072E+02  0.31677482355E+02 -0.29924212256E+02  0.45045681954E+02  0.00000000000E+00 0. -1.
         11    1    3    3    0    0  0.49742959992E+00 -0.92731759212E+00  0.30685333990E+01  0.32439561658E+01  0.51100000000E-03 0. -1.
        -11    1    3    3    0    0 -0.11828914747E+02 -0.27317290306E+02  0.25533465222E+02  0.39218814621E+02  0.51100000000E-03 0.  1.
        -12    1    3    3    0    0 -0.78689925471E-01 -0.34328744567E+01  0.13222136353E+01  0.36795472598E+01  0.00000000000E+00 0.  1.
</event>
<event>
 7    1  0.1503436E-008  0.4614232E+02  0.7816164E-02  0.1320468E+00
        -11   -1    0    0    0    0  0.00000000000E+00  0.00000000000E+00  0.45593999997E+02  0.45594000000E+02  0.51100000000E-03 0. -1.
         11   -1    0    0    0    0 -0.00000000000E+00 -0.00000000000E+00 -0.45593999997E+02  0.45594000000E+02  0.51100000000E-03 0.  1.
    9900012    2    1    2    0    0 -0.20084900481E+02 -0.12936573343E+02 -0.38188418940E+02  0.46142317650E+02  0.99999989877E+01 0.  0.
         12    1    1    2    0    0  0.20084900481E+02  0.12936573343E+02  0.38188418940E+02  0.45045682350E+02  0.00000000000E+00 0. -1.
         11    1    3    3    0    0 -0.68522971847E+01 -0.36512708718E+01 -0.54502933255E+01  0.94863825182E+01  0.51100000000E-03 0. -1.
        -11    1    3    3    0    0 -0.30229674185E+01 -0.32507137690E+01 -0.11562934524E+02  0.12385755007E+02  0.51100000000E-03 0.  1.
         12    1    3    3    0    0 -0.10209635878E+02 -0.60345887026E+01 -0.21175191090E+02  0.24270180125E+02  0.00000000000E+00 0. -1.
</event>
<event>
 7    1  0.1503436E-008  0.4614231E+02  0.7816164E-02  0.1320468E+00
        -11   -1    0    0    0    0  0.00000000000E+00  0.00000000000E+00  0.45593999997E+02  0.45594000000E+02  0.51100000000E-03 0. -1.
         11   -1    0    0    0    0 -0.00000000000E+00 -0.00000000000E+00 -0.45593999997E+02  0.45594000000E+02  0.51100000000E-03 0.  1.
    9900012    2    1    2    0    0  0.44055646890E+02 -0.34200586089E+01 -0.87474050567E+01  0.46142312981E+02  0.99999564113E+01 0.  0.
         12    1    1    2    0    0 -0.44055646890E+02  0.34200586089E+01  0.87474050567E+01  0.45045687019E+02  0.00000000000E+00 0. -1.
         11    1    3    3    0    0  0.15017079965E+01  0.64649721543E-01 -0.24797994038E+01  0.28997778945E+01  0.51100000000E-03 0. -1.
        -11    1    3    3    0    0  0.38196809578E+02 -0.29852211741E+01 -0.64531797152E+01  0.38852945012E+02  0.51100000000E-03 0.  1.
         12    1    3    3    0    0  0.43571293156E+01 -0.49948715629E+00  0.18557406221E+00  0.43895900748E+01  0.00000000000E+00 0. -1.
</event>
<event>
 7    1  0.1503436E-008  0.4614232E+02  0.7816164E-02  0.1320468E+00
        -11   -1    0    0    0    0  0.00000000000E+00  0.00000000000E+00  0.45593999997E+02  0.45594000000E+02  0.51100000000E-03 0.  1.
         11   -1    0    0    0    0 -0.00000000000E+00 -0.00000000000E+00 -0.45593999997E+02  0.45594000000E+02  0.51100000000E-03 0. -1.
    9900012    2    1    2    0    0 -0.32364321775E+02  0.29883759512E+02  0.94140892195E+01  0.46142317828E+02  0.10000000613E+02 0.  0.
         12    1    1    2    0    0  0.32364321775E+02 -0.29883759512E+02 -0.94140892195E+01  0.45045682172E+02  0.00000000000E+00 0. -1.
         11    1    3    3    0    0 -0.18676896791E+02  0.12402432185E+02  0.46521467177E+01  0.22897363761E+02  0.51100000000E-03 0. -1.
        -11    1    3    3    0    0 -0.13068037622E+02  0.16592134254E+02  0.32262548077E+01  0.21365421754E+02  0.51100000000E-03 0.  1.
        -12    1    3    3    0    0 -0.61938736196E+00  0.88919307262E+00  0.15356876941E+01  0.18795323138E+01  0.00000000000E+00 0.  1.
</event>
<event>
 7    1  0.1503436E-008  0.4614232E+02  0.7816164E-02  0.1320468E+00
        -11   -1    0    0    0    0  0.00000000000E+00  0.00000000000E+00  0.45593999997E+02  0.45594000000E+02  0.51100000000E-03 0.  1.
         11   -1    0    0    0    0 -0.00000000000E+00 -0.00000000000E+00 -0.45593999997E+02  0.45594000000E+02  0.51100000000E-03 0. -1.
    9900012    2    1    2    0    0 -0.19031596331E+02 -0.26081306865E+02  0.31411418892E+02  0.46142318037E+02  0.10000002519E+02 0.  0.
         12    1    1    2    0    0  0.19031596331E+02  0.26081306865E+02 -0.31411418892E+02  0.45045681963E+02  0.00000000000E+00 0. -1.
         11    1    3    3    0    0 -0.13674969725E+02 -0.18156602226E+02  0.16141252890E+02  0.27878433358E+02  0.51100000000E-03 0.  1.
        -11    1    3    3    0    0 -0.47561157382E+01 -0.80736907285E+01  0.13937718542E+02  0.16794794352E+02  0.51100000000E-03 0. -1.
         12    1    3    3    0    0 -0.60051086832E+00  0.14898609012E+00  0.13324474595E+01  0.14690903275E+01  0.00000000000E+00 0. -1.
</event>
<event>
 7    1  0.1503436E-008  0.4614232E+02  0.7816164E-02  0.1320468E+00
        -11   -1    0    0    0    0  0.00000000000E+00  0.00000000000E+00  0.45593999997E+02  0.45594000000E+02  0.51100000000E-03 0.  1.
         11   -1    0    0    0    0 -0.00000000000E+00 -0.00000000000E+00 -0.45593999997E+02  0.45594000000E+02  0.51100000000E-03 0. -1.
    9900012    2    1    2    0    0  0.29273454017E+02 -0.44124255588E+01  0.33951567328E+02  0.46142317261E+02  0.99999954441E+01 0.  0.
         12    1    1    2    0    0 -0.29273454017E+02  0.44124255588E+01 -0.33951567328E+02  0.45045682739E+02  0.00000000000E+00 0. -1.
         11    1    3    3    0    0  0.94691137376E+01 -0.57498083366E+01  0.13374572230E+02  0.17366738136E+02  0.51100000000E-03 0.  1.
        -11    1    3    3    0    0  0.19282596931E+02  0.10781492566E+01  0.18990189914E+02  0.27085203774E+02  0.51100000000E-03 0. -1.
         12    1    3    3    0    0  0.52174334793E+00  0.25923352124E+00  0.15868051840E+01  0.16903753523E+01  0.00000000000E+00 0. -1.
</event>
<event>
 7    1  0.1503436E-008  0.4614232E+02  0.7816164E-02  0.1320468E+00
        -11   -1    0    0    0    0  0.00000000000E+00  0.00000000000E+00  0.45593999997E+02  0.45594000000E+02  0.51100000000E-03 0.  1.
         11   -1    0    0    0    0 -0.00000000000E+00 -0.00000000000E+00 -0.45593999997E+02  0.45594000000E+02  0.51100000000E-03 0. -1.
    9900012    2    1    2    0    0  0.19347722162E+02  0.31683888066E+02 -0.25512943482E+02  0.46142318732E+02  0.10000008851E+02 0.  0.
         12    1    1    2    0    0 -0.19347722162E+02 -0.31683888066E+02  0.25512943482E+02  0.45045681268E+02  0.00000000000E+00 0. -1.
         11    1    3    3    0    0  0.78233641819E+01  0.15824845206E+02 -0.15768340058E+02  0.23670050726E+02  0.51100000000E-03 0. -1.
        -11    1    3    3    0    0  0.10367310712E+02  0.13595055264E+02 -0.10171928660E+02  0.19894089373E+02  0.51100000000E-03 0.  1.
         12    1    3    3    0    0  0.11570472672E+01  0.22639875953E+01  0.42732523505E+00  0.25781786336E+01  0.00000000000E+00 0. -1.
</event>
<event>
 7    1  0.1503436E-008  0.4614232E+02  0.7816164E-02  0.1320468E+00
        -11   -1    0    0    0    0  0.00000000000E+00  0.00000000000E+00  0.45593999997E+02  0.45594000000E+02  0.51100000000E-03 0. -1.
         11   -1    0    0    0    0 -0.00000000000E+00 -0.00000000000E+00 -0.45593999997E+02  0.45594000000E+02  0.51100000000E-03 0.  1.
    9900012    2    1    2    0    0 -0.30509224239E+02 -0.28769742979E+02 -0.16449999220E+02  0.46142319307E+02  0.10000014097E+02 0.  0.
         12    1    1    2    0    0  0.30509224239E+02  0.28769742979E+02  0.16449999220E+02  0.45045680693E+02  0.00000000000E+00 0. -1.
         11    1    3    3    0    0 -0.11779080315E+02 -0.12133400895E+02 -0.39289217446E+01  0.17360949763E+02  0.51100000000E-03 0. -1.
        -11    1    3    3    0    0 -0.95663257885E+01 -0.10389655174E+02 -0.10276463394E+02  0.17466116451E+02  0.51100000000E-03 0.  1.
        -12    1    3    3    0    0 -0.91638181363E+01 -0.62466869096E+01 -0.22446140814E+01  0.11315253093E+02  0.00000000000E+00 0.  1.
</event>
<event>
 7    1  0.1503436E-008  0.4614232E+02  0.7816164E-02  0.1320468E+00
        -11   -1    0    0    0    0  0.00000000000E+00  0.00000000000E+00  0.45593999997E+02  0.45594000000E+02  0.51100000000E-03 0.  1.
         11   -1    0    0    0    0 -0.00000000000E+00 -0.00000000000E+00 -0.45593999997E+02  0.45594000000E+02  0.51100000000E-03 0. -1.
    9900012    2    1    2    0    0  0.41440339935E+01 -0.26832473655E+02  0.35943829127E+02  0.46142317493E+02  0.99999975556E+01 0.  0.
         12    1    1    2    0    0 -0.41440339935E+01  0.26832473655E+02 -0.35943829127E+02  0.45045682507E+02  0.00000000000E+00 0. -1.
         11    1    3    3    0    0 -0.12835269654E+01 -0.91359079612E+01  0.88132803773E+01  0.12758768241E+02  0.51100000000E-03 0.  1.
        -11    1    3    3    0    0  0.35607427182E+01 -0.14850740225E+02  0.17809938877E+02  0.23460973914E+02  0.51100000000E-03 0. -1.
         12    1    3    3    0    0  0.18668182408E+01 -0.28458254690E+01  0.93206098728E+01  0.99225753383E+01  0.00000000000E+00 0. -1.
</event>
<event>
 7    1  0.1503436E-008  0.4614232E+02  0.7816164E-02  0.1320468E+00
        -11   -1    0    0    0    0  0.00000000000E+00  0.00000000000E+00  0.45593999997E+02  0.45594000000E+02  0.51100000000E-03 0. -1.
         11   -1    0    0    0    0 -0.00000000000E+00 -0.00000000000E+00 -0.45593999997E+02  0.45594000000E+02  0.51100000000E-03 0.  1.
    9900012    2    1    2    0    0  0.21966525993E+02  0.11029101404E+02 -0.37748426342E+02  0.46142322812E+02  0.10000046062E+02 0.  0.
         12    1    1    2    0    0 -0.21966525993E+02 -0.11029101404E+02  0.37748426342E+02  0.45045677188E+02  0.00000000000E+00 0. -1.
         11    1    3    3    0    0 -0.57168409751E-01  0.25495872116E+01 -0.37049069777E+01  0.44977771344E+01  0.51100000000E-03 0. -1.
        -11    1    3    3    0    0  0.38996122997E+01 -0.67874124042E-01 -0.46286509453E+01  0.60527673687E+01  0.51100000000E-03 0.  1.
        -12    1    3    3    0    0  0.18124082103E+02  0.85473883164E+01 -0.29414868419E+02  0.35591778309E+02  0.00000000000E+00 0.  1.
</event>
<event>
 7    1  0.1503436E-008  0.4614232E+02  0.7816164E-02  0.1320468E+00
        -11   -1    0    0    0    0  0.00000000000E+00  0.00000000000E+00  0.45593999997E+02  0.45594000000E+02  0.51100000000E-03 0.  1.
         11   -1    0    0    0    0 -0.00000000000E+00 -0.00000000000E+00 -0.45593999997E+02  0.45594000000E+02  0.51100000000E-03 0. -1.
    9900012    2    1    2    0    0  0.11908939016E+02  0.14520647487E+02  0.40944370010E+02  0.46142317993E+02  0.10000002117E+02 0.  0.
         12    1    1    2    0    0 -0.11908939016E+02 -0.14520647487E+02 -0.40944370010E+02  0.45045682007E+02  0.00000000000E+00 0. -1.
         11    1    3    3    0    0  0.25685283261E+01  0.76502304332E+01  0.97722269704E+01  0.12673586062E+02  0.51100000000E-03 0. -1.
        -11    1    3    3    0    0  0.86293053567E+01  0.60568759347E+01  0.30294834252E+02  0.32076901965E+02  0.51100000000E-03 0.  1.
        -12    1    3    3    0    0  0.71110533348E+00  0.81354111900E+00  0.87730878710E+00  0.13918299665E+01  0.00000000000E+00 0.  1.
</event>
<event>
 7    1  0.1503436E-008  0.4614232E+02  0.7816164E-02  0.1320468E+00
        -11   -1    0    0    0    0  0.00000000000E+00  0.00000000000E+00  0.45593999997E+02  0.45594000000E+02  0.51100000000E-03 0.  1.
         11   -1    0    0    0    0 -0.00000000000E+00 -0.00000000000E+00 -0.45593999997E+02  0.45594000000E+02  0.51100000000E-03 0. -1.
    9900012    2    1    2    0    0 -0.16018550799E+02  0.36156323807E+02  0.21569418486E+02  0.46142317247E+02  0.99999953078E+01 0.  0.
         12    1    1    2    0    0  0.16018550799E+02 -0.36156323807E+02 -0.21569418486E+02  0.45045682753E+02  0.00000000000E+00 0. -1.
         11    1    3    3    0    0 -0.12199300314E+01  0.39910170591E+01 -0.78303493064E+00  0.42461265185E+01  0.51100000000E-03 0. -1.
        -11    1    3    3    0    0 -0.12247712164E+02  0.25430117988E+02  0.18149601789E+02  0.33557493939E+02  0.51100000000E-03 0.  1.
         12    1    3    3    0    0 -0.25509086042E+01  0.67351887596E+01  0.42028516276E+01  0.83386967890E+01  0.00000000000E+00 0. -1.
</event>
<event>
 7    1  0.1503436E-008  0.4614232E+02  0.7816164E-02  0.1320468E+00
        -11   -1    0    0    0    0  0.00000000000E+00  0.00000000000E+00  0.45593999997E+02  0.45594000000E+02  0.51100000000E-03 0.  1.
         11   -1    0    0    0    0 -0.00000000000E+00 -0.00000000000E+00 -0.45593999997E+02  0.45594000000E+02  0.51100000000E-03 0. -1.
    9900012    2    1    2    0    0 -0.28172425512E+00 -0.32221115269E+02  0.31477510419E+02  0.46142319853E+02  0.10000019076E+02 0.  0.
         12    1    1    2    0    0  0.28172425512E+00  0.32221115269E+02 -0.31477510419E+02  0.45045680147E+02  0.00000000000E+00 0. -1.
         11    1    3    3    0    0 -0.13864935922E+01 -0.12325127719E+01  0.14829879531E+01  0.23750169987E+01  0.51100000000E-03 0. -1.
        -11    1    3    3    0    0 -0.29452525689E+01 -0.83951967211E+01  0.76436637308E+01  0.11729426080E+02  0.51100000000E-03 0.  1.
        -12    1    3    3    0    0  0.40500219060E+01 -0.22593405776E+02  0.22350858735E+02  0.32037876774E+02  0.00000000000E+00 0.  1.
</event>
<event>
 7    1  0.1503436E-008  0.4614232E+02  0.7816164E-02  0.1320468E+00
        -11   -1    0    0    0    0  0.00000000000E+00  0.00000000000E+00  0.45593999997E+02  0.45594000000E+02  0.51100000000E-03 0.  1.
         11   -1    0    0    0    0 -0.00000000000E+00 -0.00000000000E+00 -0.45593999997E+02  0.45594000000E+02  0.51100000000E-03 0. -1.
    9900012    2    1    2    0    0  0.24054542064E+02  0.20689653903E+02  0.31975468357E+02  0.46142319306E+02  0.10000014088E+02 0.  0.
         12    1    1    2    0    0 -0.24054542064E+02 -0.20689653903E+02 -0.31975468357E+02  0.45045680694E+02  0.00000000000E+00 0. -1.
         11    1    3    3    0    0  0.48337125593E+01  0.96379456568E+01  0.92299346599E+01  0.14193183846E+02  0.51100000000E-03 0. -1.
        -11    1    3    3    0    0  0.17107679602E+02  0.86856722893E+01  0.20392439014E+02  0.27999378095E+02  0.51100000000E-03 0.  1.
        -12    1    3    3    0    0  0.21131499022E+01  0.23660359570E+01  0.23530946833E+01  0.39497573657E+01  0.00000000000E+00 0.  1.
</event>
<event>
 7    1  0.1503436E-008  0.4614232E+02  0.7816164E-02  0.1320468E+00
        -11   -1    0    0    0    0  0.00000000000E+00  0.00000000000E+00  0.45593999997E+02  0.45594000000E+02  0.51100000000E-03 0.  1.
         11   -1    0    0    0    0 -0.00000000000E+00 -0.00000000000E+00 -0.45593999997E+02  0.45594000000E+02  0.51100000000E-03 0. -1.
    9900012    2    1    2    0    0  0.16563366833E+02  0.51160205016E+01  0.41576371793E+02  0.46142317875E+02  0.10000001037E+02 0.  0.
         12    1    1    2    0    0 -0.16563366833E+02 -0.51160205016E+01 -0.41576371793E+02  0.45045682125E+02  0.00000000000E+00 0. -1.
         11    1    3    3    0    0  0.62457573345E+01 -0.77681373860E+00  0.16859463484E+02  0.17995956032E+02  0.51100000000E-03 0.  1.
        -11    1    3    3    0    0  0.92667016668E+01  0.34200640827E+01  0.14240540976E+02  0.17330943588E+02  0.51100000000E-03 0. -1.
         12    1    3    3    0    0  0.10509078318E+01  0.24727701575E+01  0.10476367333E+02  0.10815418254E+02  0.00000000000E+00 0. -1.
</event>
<event>
 7    1  0.1503436E-008  0.4614232E+02  0.7816164E-02  0.1320468E+00
        -11   -1    0    0    0    0  0.00000000000E+00  0.00000000000E+00  0.45593999997E+02  0.45594000000E+02  0.51100000000E-03 0.  1.
         11   -1    0    0    0    0 -0.00000000000E+00 -0.00000000000E+00 -0.45593999997E+02  0.45594000000E+02  0.51100000000E-03 0. -1.
    9900012    2    1    2    0    0  0.47055169583E+01 -0.10568079475E+02  0.43534897095E+02  0.46142318090E+02  0.10000002998E+02 0.  0.
         12    1    1    2    0    0 -0.47055169583E+01  0.10568079475E+02 -0.43534897095E+02  0.45045681910E+02  0.00000000000E+00 0. -1.
         11    1    3    3    0    0 -0.41971862064E-01 -0.58460211577E+00 -0.33169643087E+00  0.67345679471E+00  0.51100000000E-03 0. -1.
        -11    1    3    3    0    0  0.42613498508E+01 -0.55897160987E+01  0.32947071846E+02  0.33688478329E+02  0.51100000000E-03 0.  1.
        -12    1    3    3    0    0  0.48613896956E+00 -0.43937612606E+01  0.10919521680E+02  0.11780382967E+02  0.00000000000E+00 0.  1.
</event>
<event>
 7    1  0.1503436E-008  0.4614232E+02  0.7816164E-02  0.1320468E+00
        -11   -1    0    0    0    0  0.00000000000E+00  0.00000000000E+00  0.45593999997E+02  0.45594000000E+02  0.51100000000E-03 0.  1.
         11   -1    0    0    0    0 -0.00000000000E+00 -0.00000000000E+00 -0.45593999997E+02  0.45594000000E+02  0.51100000000E-03 0. -1.
    9900012    2    1    2    0    0  0.22407968738E+02 -0.21029315221E+02  0.32935760449E+02  0.46142317876E+02  0.10000001046E+02 0.  0.
         12    1    1    2    0    0 -0.22407968738E+02  0.21029315221E+02 -0.32935760449E+02  0.45045682124E+02  0.00000000000E+00 0. -1.
         11    1    3    3    0    0  0.47811668784E+01 -0.29089736753E+01  0.48668752319E+01  0.74167485698E+01  0.51100000000E-03 0. -1.
        -11    1    3    3    0    0  0.69782347268E+01 -0.95053780132E+01  0.18782547288E+02  0.22177286894E+02  0.51100000000E-03 0.  1.
        -12    1    3    3    0    0  0.10648567133E+02 -0.86149635328E+01  0.92863379292E+01  0.16548282412E+02  0.00000000000E+00 0.  1.
</event>
<event>
 7    1  0.1503436E-008  0.4614232E+02  0.7816164E-02  0.1320468E+00
        -11   -1    0    0    0    0  0.00000000000E+00  0.00000000000E+00  0.45593999997E+02  0.45594000000E+02  0.51100000000E-03 0.  1.
         11   -1    0    0    0    0 -0.00000000000E+00 -0.00000000000E+00 -0.45593999997E+02  0.45594000000E+02  0.51100000000E-03 0. -1.
    9900012    2    1    2    0    0  0.26407097451E+02  0.10517332558E+02  0.34945164006E+02  0.46142316884E+02  0.99999920041E+01 0.  0.
         12    1    1    2    0    0 -0.26407097451E+02 -0.10517332558E+02 -0.34945164006E+02  0.45045683116E+02  0.00000000000E+00 0. -1.
         11    1    3    3    0    0  0.14464384779E+02  0.76417336863E+01  0.24317996212E+02  0.29308351383E+02  0.51100000000E-03 0. -1.
        -11    1    3    3    0    0  0.76029770706E+01  0.28459439955E+01  0.91904270116E+01  0.12262487777E+02  0.51100000000E-03 0.  1.
         12    1    3    3    0    0  0.43397356023E+01  0.29654875718E-01  0.14367407828E+01  0.45714777246E+01  0.00000000000E+00 0. -1.
</event>
<event>
 7    1  0.1503436E-008  0.4614232E+02  0.7816164E-02  0.1320468E+00
        -11   -1    0    0    0    0  0.00000000000E+00  0.00000000000E+00  0.45593999997E+02  0.45594000000E+02  0.51100000000E-03 0.  1.
         11   -1    0    0    0    0 -0.00000000000E+00 -0.00000000000E+00 -0.45593999997E+02  0.45594000000E+02  0.51100000000E-03 0. -1.
    9900012    2    1    2    0    0 -0.14887475374E+02  0.10405432473E+01  0.42501691877E+02  0.46142318013E+02  0.10000002296E+02 0.  0.
         12    1    1    2    0    0  0.14887475374E+02 -0.10405432473E+01 -0.42501691877E+02  0.45045681987E+02  0.00000000000E+00 0. -1.
         11    1    3    3    0    0 -0.34277647176E+01  0.45627819127E+01  0.16887322136E+02  0.17825549050E+02  0.51100000000E-03 0. -1.
        -11    1    3    3    0    0 -0.72266669278E+01 -0.28281545330E+01  0.17309828091E+02  0.18969800256E+02  0.51100000000E-03 0.  1.
         12    1    3    3    0    0 -0.42330437289E+01 -0.69408413241E+00  0.83045416496E+01  0.93469687067E+01  0.00000000000E+00 0. -1.
</event>
<event>
 7    1  0.1503436E-008  0.4614232E+02  0.7816164E-02  0.1320468E+00
        -11   -1    0    0    0    0  0.00000000000E+00  0.00000000000E+00  0.45593999997E+02  0.45594000000E+02  0.51100000000E-03 0.  1.
         11   -1    0    0    0    0 -0.00000000000E+00 -0.00000000000E+00 -0.45593999997E+02  0.45594000000E+02  0.51100000000E-03 0. -1.
    9900012    2    1    2    0    0  0.32344031634E+01 -0.40232584259E+02  0.19999783503E+02  0.46142317186E+02  0.99999947560E+01 0.  0.
         12    1    1    2    0    0 -0.32344031634E+01  0.40232584259E+02 -0.19999783503E+02  0.45045682814E+02  0.00000000000E+00 0. -1.
         11    1    3    3    0    0 -0.71842274279E+00 -0.93505360492E+01  0.19072094876E+01  0.95700629014E+01  0.51100000000E-03 0. -1.
        -11    1    3    3    0    0 -0.12802735839E+01 -0.58397899652E+01  0.52026385500E+01  0.79252568053E+01  0.51100000000E-03 0.  1.
        -12    1    3    3    0    0  0.52330994901E+01 -0.25042258245E+02  0.12889935466E+02  0.28646997479E+02  0.00000000000E+00 0.  1.
</event>
<event>
 7    1  0.1503436E-008  0.4614232E+02  0.7816164E-02  0.1320468E+00
        -11   -1    0    0    0    0  0.00000000000E+00  0.00000000000E+00  0.45593999997E+02  0.45594000000E+02  0.51100000000E-03 0.  1.
         11   -1    0    0    0    0 -0.00000000000E+00 -0.00000000000E+00 -0.45593999997E+02  0.45594000000E+02  0.51100000000E-03 0. -1.
    9900012    2    1    2    0    0 -0.70767656758E+01  0.43010778890E+02  0.11362462763E+02  0.46142320150E+02  0.10000021781E+02 0.  0.
         12    1    1    2    0    0  0.70767656758E+01 -0.43010778890E+02 -0.11362462763E+02  0.45045679850E+02  0.00000000000E+00 0. -1.
         11    1    3    3    0    0  0.14281513587E+01  0.91987413262E+01  0.28947934617E-01  0.93089900921E+01  0.51100000000E-03 0. -1.
        -11    1    3    3    0    0 -0.70659391487E+01  0.29858237995E+02  0.87917086161E+01  0.31917644225E+02  0.51100000000E-03 0.  1.
        -12    1    3    3    0    0 -0.14389778858E+01  0.39537995685E+01  0.25418062125E+01  0.49156858326E+01  0.00000000000E+00 0.  1.
</event>
<event>
 7    1  0.1503436E-008  0.4614232E+02  0.7816164E-02  0.1320468E+00
        -11   -1    0    0    0    0  0.00000000000E+00  0.00000000000E+00  0.45593999997E+02  0.45594000000E+02  0.51100000000E-03 0.  1.
         11   -1    0    0    0    0 -0.00000000000E+00 -0.00000000000E+00 -0.45593999997E+02  0.45594000000E+02  0.51100000000E-03 0. -1.
    9900012    2    1    2    0    0  0.21624557178E+02 -0.20838717706E+02  0.33574392782E+02  0.46142317860E+02  0.10000000900E+02 0.  0.
         12    1    1    2    0    0 -0.21624557178E+02  0.20838717706E+02 -0.33574392782E+02  0.45045682140E+02  0.00000000000E+00 0. -1.
         11    1    3    3    0    0  0.79907529234E+01 -0.48191657930E+01  0.13761499470E+02  0.16626946778E+02  0.51100000000E-03 0. -1.
        -11    1    3    3    0    0  0.51669924884E+01 -0.10194875764E+02  0.12261853529E+02  0.16762647627E+02  0.51100000000E-03 0.  1.
         12    1    3    3    0    0  0.84668117665E+01 -0.58246761490E+01  0.75510397826E+01  0.12752723455E+02  0.00000000000E+00 0. -1.
</event>
<event>
 7    1  0.1503436E-008  0.4614232E+02  0.7816164E-02  0.1320468E+00
        -11   -1    0    0    0    0  0.00000000000E+00  0.00000000000E+00  0.45593999997E+02  0.45594000000E+02  0.51100000000E-03 0.  1.
         11   -1    0    0    0    0 -0.00000000000E+00 -0.00000000000E+00 -0.45593999997E+02  0.45594000000E+02  0.51100000000E-03 0. -1.
    9900012    2    1    2    0    0  0.30767980523E+02 -0.32549703908E+02  0.47918248870E+01  0.46142318345E+02  0.10000005329E+02 0.  0.
         12    1    1    2    0    0 -0.30767980523E+02  0.32549703908E+02 -0.47918248870E+01  0.45045681655E+02  0.00000000000E+00 0. -1.
         11    1    3    3    0    0  0.16172944933E+01 -0.12162252479E+01  0.25642902614E+01  0.32665624344E+01  0.51100000000E-03 0. -1.
        -11    1    3    3    0    0  0.25886200524E+02 -0.28234801675E+02  0.16873000303E+01  0.38342487984E+02  0.51100000000E-03 0.  1.
        -12    1    3    3    0    0  0.32644855056E+01 -0.30986769858E+01  0.54023459522E+00  0.45332679268E+01  0.00000000000E+00 0.  1.
</event>
<event>
 7    1  0.1503436E-008  0.4614232E+02  0.7816164E-02  0.1320468E+00
        -11   -1    0    0    0    0  0.00000000000E+00  0.00000000000E+00  0.45593999997E+02  0.45594000000E+02  0.51100000000E-03 0.  1.
         11   -1    0    0    0    0 -0.00000000000E+00 -0.00000000000E+00 -0.45593999997E+02  0.45594000000E+02  0.51100000000E-03 0. -1.
    9900012    2    1    2    0    0  0.19859657316E+01 -0.42698520678E+01  0.44798860506E+02  0.46142316531E+02  0.99999887814E+01 0.  0.
         12    1    1    2    0    0 -0.19859657316E+01  0.42698520678E+01 -0.44798860506E+02  0.45045683469E+02  0.00000000000E+00 0. -1.
         11    1    3    3    0    0 -0.19005367742E+01 -0.24428730642E+00  0.63254181846E+01  0.66092837577E+01  0.51100000000E-03 0. -1.
        -11    1    3    3    0    0  0.37496527567E-01 -0.28666967386E+01  0.45886031799E+01  0.54106039944E+01  0.51100000000E-03 0.  1.
         12    1    3    3    0    0  0.38490059782E+01 -0.11588680228E+01  0.33884839142E+02  0.34122428779E+02  0.00000000000E+00 0. -1.
</event>
<event>
 7    1  0.1503436E-008  0.4614232E+02  0.7816164E-02  0.1320468E+00
        -11   -1    0    0    0    0  0.00000000000E+00  0.00000000000E+00  0.45593999997E+02  0.45594000000E+02  0.51100000000E-03 0. -1.
         11   -1    0    0    0    0 -0.00000000000E+00 -0.00000000000E+00 -0.45593999997E+02  0.45594000000E+02  0.51100000000E-03 0.  1.
    9900012    2    1    2    0    0 -0.36027656408E+02 -0.95502018262E+01 -0.25296543309E+02  0.46142317803E+02  0.10000000380E+02 0.  0.
         12    1    1    2    0    0  0.36027656408E+02  0.95502018262E+01  0.25296543309E+02  0.45045682197E+02  0.00000000000E+00 0. -1.
         11    1    3    3    0    0 -0.46590253791E+01 -0.20184371403E+01 -0.80758930575E+00  0.51412845399E+01  0.51100000000E-03 0. -1.
        -11    1    3    3    0    0 -0.90607538838E+01 -0.39356363304E+01 -0.10543607305E+02  0.14448326877E+02  0.51100000000E-03 0.  1.
        -12    1    3    3    0    0 -0.22307877146E+02 -0.35961283555E+01 -0.13945346699E+02  0.26552706386E+02  0.00000000000E+00 0.  1.
</event>
<event>
 7    1  0.1503436E-008  0.4614232E+02  0.7816164E-02  0.1320468E+00
        -11   -1    0    0    0    0  0.00000000000E+00  0.00000000000E+00  0.45593999997E+02  0.45594000000E+02  0.51100000000E-03 0.  1.
         11   -1    0    0    0    0 -0.00000000000E+00 -0.00000000000E+00 -0.45593999997E+02  0.45594000000E+02  0.51100000000E-03 0. -1.
    9900012    2    1    2    0    0  0.44964267290E+02  0.11813886054E+01  0.24356610638E+01  0.46142318112E+02  0.10000003197E+02 0.  0.
         12    1    1    2    0    0 -0.44964267290E+02 -0.11813886054E+01 -0.24356610638E+01  0.45045681888E+02  0.00000000000E+00 0. -1.
         11    1    3    3    0    0  0.28775855388E+01  0.19220097071E+01 -0.44973753990E+00  0.34895392193E+01  0.51100000000E-03 0. -1.
        -11    1    3    3    0    0  0.32756191367E+02 -0.26453362204E+01  0.64164585554E+00  0.32869097740E+02  0.51100000000E-03 0.  1.
         12    1    3    3    0    0  0.93304903840E+01  0.19047151187E+01  0.22437527481E+01  0.97836811520E+01  0.00000000000E+00 0. -1.
</event>
<event>
 7    1  0.1503436E-008  0.4614232E+02  0.7816164E-02  0.1320468E+00
        -11   -1    0    0    0    0  0.00000000000E+00  0.00000000000E+00  0.45593999997E+02  0.45594000000E+02  0.51100000000E-03 0.  1.
         11   -1    0    0    0    0 -0.00000000000E+00 -0.00000000000E+00 -0.45593999997E+02  0.45594000000E+02  0.51100000000E-03 0. -1.
    9900012    2    1    2    0    0 -0.82590861685E+01  0.41475470101E+02  0.15514067922E+02  0.46142318432E+02  0.10000006122E+02 0.  0.
         12    1    1    2    0    0  0.82590861685E+01 -0.41475470101E+02 -0.15514067922E+02  0.45045681568E+02  0.00000000000E+00 0. -1.
         11    1    3    3    0    0 -0.48314391548E+01  0.57775567175E+01  0.19615585233E+01  0.77827166228E+01  0.51100000000E-03 0. -1.
        -11    1    3    3    0    0 -0.17238032350E+01  0.11573824490E+02  0.43777901709E+01  0.12493596678E+02  0.51100000000E-03 0.  1.
         12    1    3    3    0    0 -0.17038437787E+01  0.24124088893E+02  0.91747192275E+01  0.25866005131E+02  0.00000000000E+00 0. -1.
</event>
<event>
 7    1  0.1503436E-008  0.4614232E+02  0.7816164E-02  0.1320468E+00
        -11   -1    0    0    0    0  0.00000000000E+00  0.00000000000E+00  0.45593999997E+02  0.45594000000E+02  0.51100000000E-03 0.  1.
         11   -1    0    0    0    0 -0.00000000000E+00 -0.00000000000E+00 -0.45593999997E+02  0.45594000000E+02  0.51100000000E-03 0. -1.
    9900012    2    1    2    0    0 -0.30693642478E+02 -0.18138123078E+02  0.27532203281E+02  0.46142318576E+02  0.10000007435E+02 0.  0.
         12    1    1    2    0    0  0.30693642478E+02  0.18138123078E+02 -0.27532203281E+02  0.45045681424E+02  0.00000000000E+00 0. -1.
         11    1    3    3    0    0 -0.67367974998E+01 -0.54987237170E+01  0.12229459014E+02  0.15006001170E+02  0.51100000000E-03 0. -1.
        -11    1    3    3    0    0 -0.11984674222E+02 -0.56138381008E+01  0.73585157939E+01  0.15142501425E+02  0.51100000000E-03 0.  1.
        -12    1    3    3    0    0 -0.11972170756E+02 -0.70255612604E+01  0.79442284735E+01  0.15993815982E+02  0.00000000000E+00 0.  1.
</event>
<event>
 7    1  0.1503436E-008  0.4614232E+02  0.7816164E-02  0.1320468E+00
        -11   -1    0    0    0    0  0.00000000000E+00  0.00000000000E+00  0.45593999997E+02  0.45594000000E+02  0.51100000000E-03 0.  1.
         11   -1    0    0    0    0 -0.00000000000E+00 -0.00000000000E+00 -0.45593999997E+02  0.45594000000E+02  0.51100000000E-03 0. -1.
    9900012    2    1    2    0    0  0.20717296646E+02 -0.30486245669E+02  0.25893935122E+02  0.46142318393E+02  0.10000005765E+02 0.  0.
         12    1    1    2    0    0 -0.20717296646E+02  0.30486245669E+02 -0.25893935122E+02  0.45045681607E+02  0.00000000000E+00 0. -1.
         11    1    3    3    0    0  0.10758023038E+02 -0.18094692921E+02  0.12488490522E+02  0.24476833279E+02  0.51100000000E-03 0. -1.
        -11    1    3    3    0    0  0.59137906664E+01 -0.50176889837E+01  0.98432194116E+01  0.12531523907E+02  0.51100000000E-03 0.  1.
        -12    1    3    3    0    0  0.40454829415E+01 -0.73738637645E+01  0.35622251891E+01  0.91339612078E+01  0.00000000000E+00 0.  1.
</event>
<event>
 7    1  0.1503436E-008  0.4614232E+02  0.7816164E-02  0.1320468E+00
        -11   -1    0    0    0    0  0.00000000000E+00  0.00000000000E+00  0.45593999997E+02  0.45594000000E+02  0.51100000000E-03 0.  1.
         11   -1    0    0    0    0 -0.00000000000E+00 -0.00000000000E+00 -0.45593999997E+02  0.45594000000E+02  0.51100000000E-03 0. -1.
    9900012    2    1    2    0    0 -0.18258824185E+02  0.21719739837E+00  0.41178655192E+02  0.46142317868E+02  0.10000000972E+02 0.  0.
         12    1    1    2    0    0  0.18258824185E+02 -0.21719739837E+00 -0.41178655192E+02  0.45045682132E+02  0.00000000000E+00 0. -1.
         11    1    3    3    0    0 -0.62327149058E+01  0.16369388500E+01  0.63242162554E+01  0.90289542807E+01  0.51100000000E-03 0. -1.
        -11    1    3    3    0    0 -0.82678260572E+01 -0.28226985924E+01  0.23557414877E+02  0.25125213850E+02  0.51100000000E-03 0.  1.
         12    1    3    3    0    0 -0.37582832223E+01  0.14029571407E+01  0.11297024059E+02  0.11988149737E+02  0.00000000000E+00 0. -1.
</event>
<event>
 7    1  0.1503436E-008  0.4614231E+02  0.7816164E-02  0.1320468E+00
        -11   -1    0    0    0    0  0.00000000000E+00  0.00000000000E+00  0.45593999997E+02  0.45594000000E+02  0.51100000000E-03 0.  1.
         11   -1    0    0    0    0 -0.00000000000E+00 -0.00000000000E+00 -0.45593999997E+02  0.45594000000E+02  0.51100000000E-03 0. -1.
    9900012    2    1    2    0    0  0.17129912344E+02 -0.37472605996E+01  0.41492624964E+02  0.46142314465E+02  0.99999699406E+01 0.  0.
         12    1    1    2    0    0 -0.17129912344E+02  0.37472605996E+01 -0.41492624964E+02  0.45045685535E+02  0.00000000000E+00 0. -1.
         11    1    3    3    0    0  0.16384858958E+01  0.15102490838E+01  0.30361296634E+01  0.37661083256E+01  0.51100000000E-03 0. -1.
        -11    1    3    3    0    0  0.46968361836E-01  0.32785845829E+00  0.59237494423E+01  0.59330013410E+01  0.51100000000E-03 0.  1.
        -12    1    3    3    0    0  0.15444458086E+02 -0.55853681417E+01  0.32532745859E+02  0.36443204798E+02  0.00000000000E+00 0.  1.
</event>
<event>
 7    1  0.1503436E-008  0.4614232E+02  0.7816164E-02  0.1320468E+00
        -11   -1    0    0    0    0  0.00000000000E+00  0.00000000000E+00  0.45593999997E+02  0.45594000000E+02  0.51100000000E-03 0. -1.
         11   -1    0    0    0    0 -0.00000000000E+00 -0.00000000000E+00 -0.45593999997E+02  0.45594000000E+02  0.51100000000E-03 0.  1.
    9900012    2    1    2    0    0 -0.25285195791E+02 -0.24129167433E+01 -0.37201480701E+02  0.46142318079E+02  0.10000002895E+02 0.  0.
         12    1    1    2    0    0  0.25285195791E+02  0.24129167433E+01  0.37201480701E+02  0.45045681921E+02  0.00000000000E+00 0. -1.
         11    1    3    3    0    0 -0.73186453552E+00 -0.18129236791E+01 -0.42917669265E+01  0.47160981306E+01  0.51100000000E-03 0. -1.
        -11    1    3    3    0    0 -0.14422408175E+02 -0.27007186255E+01 -0.21430205136E+02  0.25972166469E+02  0.51100000000E-03 0.  1.
         12    1    3    3    0    0 -0.10130923081E+02  0.21007255613E+01 -0.11479508639E+02  0.15454053479E+02  0.00000000000E+00 0. -1.
</event>
<event>
 7    1  0.1503436E-008  0.4614232E+02  0.7816164E-02  0.1320468E+00
        -11   -1    0    0    0    0  0.00000000000E+00  0.00000000000E+00  0.45593999997E+02  0.45594000000E+02  0.51100000000E-03 0.  1.
         11   -1    0    0    0    0 -0.00000000000E+00 -0.00000000000E+00 -0.45593999997E+02  0.45594000000E+02  0.51100000000E-03 0. -1.
    9900012    2    1    2    0    0  0.39292523560E+02 -0.19684964481E+02  0.98850079607E+01  0.46142316337E+02  0.99999870124E+01 0.  0.
         12    1    1    2    0    0 -0.39292523560E+02  0.19684964481E+02 -0.98850079607E+01  0.45045683663E+02  0.00000000000E+00 0. -1.
         11    1    3    3    0    0  0.81899580937E+01 -0.24580632094E+01  0.25672264320E+01  0.89279415394E+01  0.51100000000E-03 0. -1.
        -11    1    3    3    0    0  0.30748114417E+02 -0.17784077277E+02  0.64141572477E+01  0.36095170844E+02  0.51100000000E-03 0.  1.
        -12    1    3    3    0    0  0.35445104950E+00  0.55717600625E+00  0.90362428097E+00  0.11192039535E+01  0.00000000000E+00 0.  1.
</event>
<event>
 7    1  0.1503436E-008  0.4614232E+02  0.7816164E-02  0.1320468E+00
        -11   -1    0    0    0    0  0.00000000000E+00  0.00000000000E+00  0.45593999997E+02  0.45594000000E+02  0.51100000000E-03 0.  1.
         11   -1    0    0    0    0 -0.00000000000E+00 -0.00000000000E+00 -0.45593999997E+02  0.45594000000E+02  0.51100000000E-03 0. -1.
    9900012    2    1    2    0    0  0.17658902622E+02 -0.33131407089E+02  0.24891494022E+02  0.46142318163E+02  0.10000003665E+02 0.  0.
         12    1    1    2    0    0 -0.17658902622E+02  0.33131407089E+02 -0.24891494022E+02  0.45045681837E+02  0.00000000000E+00 0. -1.
         11    1    3    3    0    0  0.94693342592E+00  0.74183039456E-01  0.10867970245E+01  0.14433690000E+01  0.51100000000E-03 0. -1.
        -11    1    3    3    0    0  0.88877364492E+01 -0.10538059485E+02  0.74161610326E+01  0.15653817478E+02  0.51100000000E-03 0.  1.
        -12    1    3    3    0    0  0.78242327466E+01 -0.22667530643E+02  0.16388535965E+02  0.29045131685E+02  0.00000000000E+00 0.  1.
</event>
<event>
 7    1  0.1503436E-008  0.4614232E+02  0.7816164E-02  0.1320468E+00
        -11   -1    0    0    0    0  0.00000000000E+00  0.00000000000E+00  0.45593999997E+02  0.45594000000E+02  0.51100000000E-03 0. -1.
         11   -1    0    0    0    0 -0.00000000000E+00 -0.00000000000E+00 -0.45593999997E+02  0.45594000000E+02  0.51100000000E-03 0.  1.
    9900012    2    1    2    0    0  0.17478911628E+02  0.37169637104E+02 -0.18493760675E+02  0.46142318098E+02  0.10000003068E+02 0.  0.
         12    1    1    2    0    0 -0.17478911628E+02 -0.37169637104E+02  0.18493760675E+02  0.45045681902E+02  0.00000000000E+00 0. -1.
         11    1    3    3    0    0  0.31732750966E+00  0.97753081425E+00  0.85155280564E+00  0.13346931045E+01  0.51100000000E-03 0. -1.
        -11    1    3    3    0    0  0.86544758136E+01  0.12992525489E+02 -0.89969975861E+01  0.18018091908E+02  0.51100000000E-03 0.  1.
         12    1    3    3    0    0  0.85071083048E+01  0.23199580801E+02 -0.10348315895E+02  0.26789533085E+02  0.00000000000E+00 0. -1.
</event>
<event>
 7    1  0.1503436E-008  0.4614232E+02  0.7816164E-02  0.1320468E+00
        -11   -1    0    0    0    0  0.00000000000E+00  0.00000000000E+00  0.45593999997E+02  0.45594000000E+02  0.51100000000E-03 0.  1.
         11   -1    0    0    0    0 -0.00000000000E+00 -0.00000000000E+00 -0.45593999997E+02  0.45594000000E+02  0.51100000000E-03 0. -1.
    9900012    2    1    2    0    0  0.85396183784E+01 -0.27685744256E+02  0.34491851814E+02  0.46142319202E+02  0.10000013135E+02 0.  0.
         12    1    1    2    0    0 -0.85396183784E+01  0.27685744256E+02 -0.34491851814E+02  0.45045680798E+02  0.00000000000E+00 0. -1.
         11    1    3    3    0    0  0.13475928100E+01 -0.12806388715E+01  0.70286212873E+00  0.19874752159E+01  0.51100000000E-03 0. -1.
        -11    1    3    3    0    0  0.12089803084E+01 -0.15903115699E+02  0.15553278662E+02  0.22277235011E+02  0.51100000000E-03 0.  1.
        -12    1    3    3    0    0  0.59830452600E+01 -0.10501989685E+02  0.18235711024E+02  0.21877608975E+02  0.00000000000E+00 0.  1.
</event>
<event>
 7    1  0.1503436E-008  0.4614232E+02  0.7816164E-02  0.1320468E+00
        -11   -1    0    0    0    0  0.00000000000E+00  0.00000000000E+00  0.45593999997E+02  0.45594000000E+02  0.51100000000E-03 0. -1.
         11   -1    0    0    0    0 -0.00000000000E+00 -0.00000000000E+00 -0.45593999997E+02  0.45594000000E+02  0.51100000000E-03 0.  1.
    9900012    2    1    2    0    0  0.82916134830E+01 -0.40842952693E+02  0.17094329000E+02  0.46142315159E+02  0.99999762718E+01 0.  0.
         12    1    1    2    0    0 -0.82916134830E+01  0.40842952693E+02 -0.17094329000E+02  0.45045684841E+02  0.00000000000E+00 0. -1.
         11    1    3    3    0    0  0.12223119934E+01 -0.24860752108E+02  0.82399609717E+01  0.26219229566E+02  0.51100000000E-03 0. -1.
        -11    1    3    3    0    0  0.43809784201E+01 -0.11526899252E+02  0.44628084403E+01  0.13114077845E+02  0.51100000000E-03 0.  1.
         12    1    3    3    0    0  0.26883230695E+01 -0.44553013330E+01  0.43915595879E+01  0.68090077477E+01  0.00000000000E+00 0. -1.
</event>
<event>
 7    1  0.1503436E-008  0.4614232E+02  0.7816164E-02  0.1320468E+00
        -11   -1    0    0    0    0  0.00000000000E+00  0.00000000000E+00  0.45593999997E+02  0.45594000000E+02  0.51100000000E-03 0. -1.
         11   -1    0    0    0    0 -0.00000000000E+00 -0.00000000000E+00 -0.45593999997E+02  0.45594000000E+02  0.51100000000E-03 0.  1.
    9900012    2    1    2    0    0 -0.12530562032E+02  0.25986135866E+02 -0.34595075498E+02  0.46142317734E+02  0.99999997551E+01 0.  0.
         12    1    1    2    0    0  0.12530562032E+02 -0.25986135866E+02  0.34595075498E+02  0.45045682266E+02  0.00000000000E+00 0. -1.
         11    1    3    3    0    0  0.26841297212E+00  0.18982441172E+01 -0.41809787559E+01  0.45995608345E+01  0.51100000000E-03 0. -1.
        -11    1    3    3    0    0 -0.13626716205E+02  0.23548686030E+02 -0.28579141951E+02  0.39458780559E+02  0.51100000000E-03 0.  1.
        -12    1    3    3    0    0  0.82774120173E+00  0.53920571942E+00 -0.18349547911E+01  0.20839763411E+01  0.00000000000E+00 0.  1.
</event>
<event>
 7    1  0.1503436E-008  0.4614232E+02  0.7816164E-02  0.1320468E+00
        -11   -1    0    0    0    0  0.00000000000E+00  0.00000000000E+00  0.45593999997E+02  0.45594000000E+02  0.51100000000E-03 0. -1.
         11   -1    0    0    0    0 -0.00000000000E+00 -0.00000000000E+00 -0.45593999997E+02  0.45594000000E+02  0.51100000000E-03 0.  1.
    9900012    2    1    2    0    0 -0.21225712706E+02 -0.36410578087E+02  0.15901333479E+02  0.46142317822E+02  0.10000000553E+02 0.  0.
         12    1    1    2    0    0  0.21225712706E+02  0.36410578087E+02 -0.15901333479E+02  0.45045682178E+02  0.00000000000E+00 0. -1.
         11    1    3    3    0    0 -0.11417360912E+02 -0.11788258637E+02  0.64633021817E+01  0.17637841343E+02  0.51100000000E-03 0. -1.
        -11    1    3    3    0    0 -0.90846253336E+01 -0.17796891093E+02  0.77853858211E+01  0.21444625962E+02  0.51100000000E-03 0.  1.
         12    1    3    3    0    0 -0.72372646039E+00 -0.68254283568E+01  0.16526454762E+01  0.70598505163E+01  0.00000000000E+00 0. -1.
</event>
<event>
 7    1  0.1503436E-008  0.4614232E+02  0.7816164E-02  0.1320468E+00
        -11   -1    0    0    0    0  0.00000000000E+00  0.00000000000E+00  0.45593999997E+02  0.45594000000E+02  0.51100000000E-03 0. -1.
         11   -1    0    0    0    0 -0.00000000000E+00 -0.00000000000E+00 -0.45593999997E+02  0.45594000000E+02  0.51100000000E-03 0.  1.
    9900012    2    1    2    0    0 -0.43876172215E+02 -0.26068269016E+00 -0.10194456649E+02  0.46142318852E+02  0.10000009947E+02 0.  0.
         12    1    1    2    0    0  0.43876172215E+02  0.26068269016E+00  0.10194456649E+02  0.45045681148E+02  0.00000000000E+00 0. -1.
         11    1    3    3    0    0 -0.48614676383E+01  0.20990050323E+01 -0.23931400672E+01  0.58109215591E+01  0.51100000000E-03 0. -1.
        -11    1    3    3    0    0 -0.38575211695E+01 -0.16345042734E+01 -0.21717648530E+01  0.47189656315E+01  0.51100000000E-03 0.  1.
        -12    1    3    3    0    0 -0.35157183407E+02 -0.72518344906E+00 -0.56295517292E+01  0.35612431661E+02  0.00000000000E+00 0.  1.
</event>
<event>
 7    1  0.1503436E-008  0.4614232E+02  0.7816164E-02  0.1320468E+00
        -11   -1    0    0    0    0  0.00000000000E+00  0.00000000000E+00  0.45593999997E+02  0.45594000000E+02  0.51100000000E-03 0. -1.
         11   -1    0    0    0    0 -0.00000000000E+00 -0.00000000000E+00 -0.45593999997E+02  0.45594000000E+02  0.51100000000E-03 0.  1.
    9900012    2    1    2    0    0  0.13251676642E+02  0.13665784890E+02 -0.40825881610E+02  0.46142320743E+02  0.10000027192E+02 0.  0.
         12    1    1    2    0    0 -0.13251676642E+02 -0.13665784890E+02  0.40825881610E+02  0.45045679257E+02  0.00000000000E+00 0. -1.
         11    1    3    3    0    0  0.10453411983E+02  0.83659696721E+01 -0.20736567430E+02  0.24683364837E+02  0.51100000000E-03 0. -1.
        -11    1    3    3    0    0 -0.12295108374E+01  0.65600831041E+00 -0.34879260201E+01  0.37560181024E+01  0.51100000000E-03 0.  1.
        -12    1    3    3    0    0  0.40277754967E+01  0.46438069074E+01 -0.16601388160E+02  0.17702937803E+02  0.00000000000E+00 0.  1.
</event>
<event>
 7    1  0.1503436E-008  0.4614232E+02  0.7816164E-02  0.1320468E+00
        -11   -1    0    0    0    0  0.00000000000E+00  0.00000000000E+00  0.45593999997E+02  0.45594000000E+02  0.51100000000E-03 0.  1.
         11   -1    0    0    0    0 -0.00000000000E+00 -0.00000000000E+00 -0.45593999997E+02  0.45594000000E+02  0.51100000000E-03 0. -1.
    9900012    2    1    2    0    0 -0.29014380464E+02 -0.33309848262E+02 -0.88166414223E+01  0.46142318399E+02  0.10000005816E+02 0.  0.
         12    1    1    2    0    0  0.29014380464E+02  0.33309848262E+02  0.88166414223E+01  0.45045681601E+02  0.00000000000E+00 0. -1.
         11    1    3    3    0    0 -0.50116661165E+01 -0.37792308670E+01 -0.11511312921E+01  0.63815740003E+01  0.51100000000E-03 0. -1.
        -11    1    3    3    0    0 -0.20925659536E+02 -0.24926353625E+02 -0.95390202658E+01  0.33914587421E+02  0.51100000000E-03 0.  1.
        -12    1    3    3    0    0 -0.30770548110E+01 -0.46042637702E+01  0.18735101356E+01  0.58461569773E+01  0.00000000000E+00 0.  1.
</event>
<event>
 7    1  0.1503436E-008  0.4614232E+02  0.7816164E-02  0.1320468E+00
        -11   -1    0    0    0    0  0.00000000000E+00  0.00000000000E+00  0.45593999997E+02  0.45594000000E+02  0.51100000000E-03 0.  1.
         11   -1    0    0    0    0 -0.00000000000E+00 -0.00000000000E+00 -0.45593999997E+02  0.45594000000E+02  0.51100000000E-03 0. -1.
    9900012    2    1    2    0    0  0.26852019765E+02 -0.35268780383E+02  0.80122183331E+01  0.46142317879E+02  0.10000001071E+02 0.  0.
         12    1    1    2    0    0 -0.26852019765E+02  0.35268780383E+02 -0.80122183331E+01  0.45045682121E+02  0.00000000000E+00 0. -1.
         11    1    3    3    0    0  0.73023603891E+01 -0.87466893727E+01 -0.19619455315E+01  0.11561932052E+02  0.51100000000E-03 0. -1.
        -11    1    3    3    0    0  0.13551031154E+02 -0.18525346753E+02  0.53588303618E+01  0.23569810792E+02  0.51100000000E-03 0.  1.
         12    1    3    3    0    0  0.59986282225E+01 -0.79967442573E+01  0.46153335028E+01  0.11010575035E+02  0.00000000000E+00 0. -1.
</event>
<event>
 7    1  0.1503436E-008  0.4614231E+02  0.7816164E-02  0.1320468E+00
        -11   -1    0    0    0    0  0.00000000000E+00  0.00000000000E+00  0.45593999997E+02  0.45594000000E+02  0.51100000000E-03 0. -1.
         11   -1    0    0    0    0 -0.00000000000E+00 -0.00000000000E+00 -0.45593999997E+02  0.45594000000E+02  0.51100000000E-03 0.  1.
    9900012    2    1    2    0    0  0.33629369671E+02 -0.29960945848E+02  0.72226716438E+00  0.46142307082E+02  0.99999026222E+01 0.  0.
         12    1    1    2    0    0 -0.33629369671E+02  0.29960945848E+02 -0.72226716438E+00  0.45045692918E+02  0.00000000000E+00 0. -1.
         11    1    3    3    0    0  0.81178808733E+01 -0.11553770504E+02 -0.24165347022E+01  0.14325824338E+02  0.51100000000E-03 0. -1.
        -11    1    3    3    0    0  0.14503214166E+02 -0.87911783360E+01  0.52403430253E+00  0.16967694301E+02  0.51100000000E-03 0.  1.
        -12    1    3    3    0    0  0.11008274632E+02 -0.96159970078E+01  0.26147675641E+01  0.14848788443E+02  0.00000000000E+00 0.  1.
</event>
<event>
 7    1  0.1503436E-008  0.4614232E+02  0.7816164E-02  0.1320468E+00
        -11   -1    0    0    0    0  0.00000000000E+00  0.00000000000E+00  0.45593999997E+02  0.45594000000E+02  0.51100000000E-03 0.  1.
         11   -1    0    0    0    0 -0.00000000000E+00 -0.00000000000E+00 -0.45593999997E+02  0.45594000000E+02  0.51100000000E-03 0. -1.
    9900012    2    1    2    0    0 -0.93512143011E+01  0.21482161837E+02  0.38473172807E+02  0.46142317500E+02  0.99999976176E+01 0.  0.
         12    1    1    2    0    0  0.93512143011E+01 -0.21482161837E+02 -0.38473172807E+02  0.45045682500E+02  0.00000000000E+00 0. -1.
         11    1    3    3    0    0 -0.33103362558E+01  0.17922794187E+01  0.27157544111E+01  0.46417576330E+01  0.51100000000E-03 0. -1.
        -11    1    3    3    0    0 -0.54312807350E+01  0.12924527909E+02  0.20932190961E+02  0.25193230257E+02  0.51100000000E-03 0.  1.
        -12    1    3    3    0    0 -0.60959731031E+00  0.67653545090E+01  0.14825227435E+02  0.16307329610E+02  0.00000000000E+00 0.  1.
</event>
<event>
 7    1  0.1503436E-008  0.4614232E+02  0.7816164E-02  0.1320468E+00
        -11   -1    0    0    0    0  0.00000000000E+00  0.00000000000E+00  0.45593999997E+02  0.45594000000E+02  0.51100000000E-03 0.  1.
         11   -1    0    0    0    0 -0.00000000000E+00 -0.00000000000E+00 -0.45593999997E+02  0.45594000000E+02  0.51100000000E-03 0. -1.
    9900012    2    1    2    0    0  0.75078550859E+01  0.20351448125E+02  0.39478653323E+02  0.46142318775E+02  0.10000009247E+02 0.  0.
         12    1    1    2    0    0 -0.75078550859E+01 -0.20351448125E+02 -0.39478653323E+02  0.45045681225E+02  0.00000000000E+00 0. -1.
         11    1    3    3    0    0  0.54194880385E+01  0.45932383860E+01  0.98128914337E+01  0.12114517243E+02  0.51100000000E-03 0. -1.
        -11    1    3    3    0    0  0.20020597324E+01  0.11190705408E+02  0.25170234058E+02  0.27618486807E+02  0.51100000000E-03 0.  1.
        -12    1    3    3    0    0  0.86307315015E-01  0.45675043314E+01  0.44955278318E+01  0.64093147260E+01  0.00000000000E+00 0.  1.
</event>
<event>
 7    1  0.1503436E-008  0.4614232E+02  0.7816164E-02  0.1320468E+00
        -11   -1    0    0    0    0  0.00000000000E+00  0.00000000000E+00  0.45593999997E+02  0.45594000000E+02  0.51100000000E-03 0. -1.
         11   -1    0    0    0    0 -0.00000000000E+00 -0.00000000000E+00 -0.45593999997E+02  0.45594000000E+02  0.51100000000E-03 0.  1.
    9900012    2    1    2    0    0 -0.97246276327E+01  0.21024354851E+02 -0.38633164999E+02  0.46142319659E+02  0.10000017309E+02 0.  0.
         12    1    1    2    0    0  0.97246276327E+01 -0.21024354851E+02  0.38633164999E+02  0.45045680341E+02  0.00000000000E+00 0. -1.
         11    1    3    3    0    0 -0.19211177622E+00  0.44472471899E+00 -0.21492198991E+00  0.52997993652E+00  0.51100000000E-03 0. -1.
        -11    1    3    3    0    0 -0.28750987080E+01  0.54339141004E+01 -0.37561125706E+01  0.72043040563E+01  0.51100000000E-03 0.  1.
        -12    1    3    3    0    0 -0.66574171485E+01  0.15145716032E+02 -0.34662130439E+02  0.38408035666E+02  0.00000000000E+00 0.  1.
</event>
<event>
 7    1  0.1503436E-008  0.4614232E+02  0.7816164E-02  0.1320468E+00
        -11   -1    0    0    0    0  0.00000000000E+00  0.00000000000E+00  0.45593999997E+02  0.45594000000E+02  0.51100000000E-03 0. -1.
         11   -1    0    0    0    0 -0.00000000000E+00 -0.00000000000E+00 -0.45593999997E+02  0.45594000000E+02  0.51100000000E-03 0.  1.
    9900012    2    1    2    0    0 -0.31165569304E+02 -0.31741789368E+02 -0.70908076461E+01  0.46142318127E+02  0.10000003336E+02 0.  0.
         12    1    1    2    0    0  0.31165569304E+02  0.31741789368E+02  0.70908076461E+01  0.45045681873E+02  0.00000000000E+00 0. -1.
         11    1    3    3    0    0 -0.13789146859E+02 -0.12400307403E+02 -0.34673018498E+01  0.18866117172E+02  0.51100000000E-03 0. -1.
        -11    1    3    3    0    0 -0.98188461406E+01 -0.15814415475E+02 -0.15303799586E+01  0.18677460733E+02  0.51100000000E-03 0.  1.
         12    1    3    3    0    0 -0.75575763050E+01 -0.35270664900E+01 -0.20931258378E+01  0.85987402219E+01  0.00000000000E+00 0. -1.
</event>
<event>
 7    1  0.1503436E-008  0.4614232E+02  0.7816164E-02  0.1320468E+00
        -11   -1    0    0    0    0  0.00000000000E+00  0.00000000000E+00  0.45593999997E+02  0.45594000000E+02  0.51100000000E-03 0.  1.
         11   -1    0    0    0    0 -0.00000000000E+00 -0.00000000000E+00 -0.45593999997E+02  0.45594000000E+02  0.51100000000E-03 0. -1.
    9900012    2    1    2    0    0 -0.42474536915E+02 -0.65968146132E-01  0.15000764088E+02  0.46142316953E+02  0.99999926321E+01 0.  0.
         12    1    1    2    0    0  0.42474536915E+02  0.65968146132E-01 -0.15000764088E+02  0.45045683047E+02  0.00000000000E+00 0. -1.
         11    1    3    3    0    0 -0.42767907605E+01 -0.12297916222E+01  0.21625731615E+01  0.49477317615E+01  0.51100000000E-03 0. -1.
        -11    1    3    3    0    0 -0.19141646022E+02  0.10554967038E+01  0.10866935868E+02  0.22036492033E+02  0.51100000000E-03 0.  1.
        -12    1    3    3    0    0 -0.19056100133E+02  0.10832677224E+00  0.19712550585E+01  0.19158093158E+02  0.00000000000E+00 0.  1.
</event>
<event>
 7    1  0.1503436E-008  0.4614232E+02  0.7816164E-02  0.1320468E+00
        -11   -1    0    0    0    0  0.00000000000E+00  0.00000000000E+00  0.45593999997E+02  0.45594000000E+02  0.51100000000E-03 0.  1.
         11   -1    0    0    0    0 -0.00000000000E+00 -0.00000000000E+00 -0.45593999997E+02  0.45594000000E+02  0.51100000000E-03 0. -1.
    9900012    2    1    2    0    0  0.31611281911E+01  0.25892137274E+02  0.36724895100E+02  0.46142318474E+02  0.10000006498E+02 0.  0.
         12    1    1    2    0    0 -0.31611281911E+01 -0.25892137274E+02 -0.36724895100E+02  0.45045681526E+02  0.00000000000E+00 0. -1.
         11    1    3    3    0    0  0.32502444331E+01  0.47683064105E+01  0.50759681023E+01  0.76854594746E+01  0.51100000000E-03 0. -1.
        -11    1    3    3    0    0  0.15299731545E+01  0.16600484192E+02  0.21309415035E+02  0.27055647519E+02  0.51100000000E-03 0.  1.
         12    1    3    3    0    0 -0.16190893965E+01  0.45233466707E+01  0.10339511964E+02  0.11401211480E+02  0.00000000000E+00 0. -1.
</event>
<event>
 7    1  0.1503436E-008  0.4614231E+02  0.7816164E-02  0.1320468E+00
        -11   -1    0    0    0    0  0.00000000000E+00  0.00000000000E+00  0.45593999997E+02  0.45594000000E+02  0.51100000000E-03 0. -1.
         11   -1    0    0    0    0 -0.00000000000E+00 -0.00000000000E+00 -0.45593999997E+02  0.45594000000E+02  0.51100000000E-03 0.  1.
    9900012    2    1    2    0    0 -0.29092062433E+02  0.93264940707E+01 -0.33102600868E+02  0.46142314608E+02  0.99999712429E+01 0.  0.
         12    1    1    2    0    0  0.29092062433E+02 -0.93264940707E+01  0.33102600868E+02  0.45045685392E+02  0.00000000000E+00 0. -1.
         11    1    3    3    0    0  0.29719237238E+00  0.23012699275E+00 -0.26057127719E+01  0.26326832414E+01  0.51100000000E-03 0. -1.
        -11    1    3    3    0    0 -0.15189053184E+01  0.10883280584E+01 -0.30806816382E+01  0.36030724314E+01  0.51100000000E-03 0.  1.
         12    1    3    3    0    0 -0.27870349487E+02  0.80080390196E+01 -0.27416206458E+02  0.39906558935E+02  0.00000000000E+00 0. -1.
</event>
<event>
 7    1  0.1503436E-008  0.4614232E+02  0.7816164E-02  0.1320468E+00
        -11   -1    0    0    0    0  0.00000000000E+00  0.00000000000E+00  0.45593999997E+02  0.45594000000E+02  0.51100000000E-03 0.  1.
         11   -1    0    0    0    0 -0.00000000000E+00 -0.00000000000E+00 -0.45593999997E+02  0.45594000000E+02  0.51100000000E-03 0. -1.
    9900012    2    1    2    0    0 -0.34044879364E+02 -0.25085110208E+02  0.15517635566E+02  0.46142316759E+02  0.99999908618E+01 0.  0.
         12    1    1    2    0    0  0.34044879364E+02  0.25085110208E+02 -0.15517635566E+02  0.45045683241E+02  0.00000000000E+00 0. -1.
         11    1    3    3    0    0 -0.22809789083E+01 -0.83301107522E+00  0.18129938909E+01  0.30304652020E+01  0.51100000000E-03 0. -1.
        -11    1    3    3    0    0 -0.28802619035E+02 -0.23768764487E+02  0.14413708891E+02  0.40028740085E+02  0.51100000000E-03 0.  1.
        -12    1    3    3    0    0 -0.29612814206E+01 -0.48333464615E+00 -0.70906721578E+00  0.30831114720E+01  0.00000000000E+00 0.  1.
</event>
<event>
 7    1  0.1503436E-008  0.4614232E+02  0.7816164E-02  0.1320468E+00
        -11   -1    0    0    0    0  0.00000000000E+00  0.00000000000E+00  0.45593999997E+02  0.45594000000E+02  0.51100000000E-03 0.  1.
         11   -1    0    0    0    0 -0.00000000000E+00 -0.00000000000E+00 -0.45593999997E+02  0.45594000000E+02  0.51100000000E-03 0. -1.
    9900012    2    1    2    0    0  0.27603593285E+02  0.35077818024E+02  0.60581494444E+01  0.46142324799E+02  0.10000064181E+02 0.  0.
         12    1    1    2    0    0 -0.27603593285E+02 -0.35077818024E+02 -0.60581494444E+01  0.45045675201E+02  0.00000000000E+00 0. -1.
         11    1    3    3    0    0  0.29296865639E+01  0.12039014809E+01  0.16797889344E+01  0.35852661357E+01  0.51100000000E-03 0. -1.
        -11    1    3    3    0    0  0.14001626547E+02  0.14410435845E+02  0.11408706856E+01  0.20124805425E+02  0.51100000000E-03 0.  1.
        -12    1    3    3    0    0  0.10672280174E+02  0.19463480698E+02  0.32374898243E+01  0.22432253239E+02  0.00000000000E+00 0.  1.
</event>
<event>
 7    1  0.1503436E-008  0.4614232E+02  0.7816164E-02  0.1320468E+00
        -11   -1    0    0    0    0  0.00000000000E+00  0.00000000000E+00  0.45593999997E+02  0.45594000000E+02  0.51100000000E-03 0.  1.
         11   -1    0    0    0    0 -0.00000000000E+00 -0.00000000000E+00 -0.45593999997E+02  0.45594000000E+02  0.51100000000E-03 0. -1.
    9900012    2    1    2    0    0  0.22475196105E+02 -0.53342199039E+01  0.38672019917E+02  0.46142318005E+02  0.10000002224E+02 0.  0.
         12    1    1    2    0    0 -0.22475196105E+02  0.53342199039E+01 -0.38672019917E+02  0.45045681995E+02  0.00000000000E+00 0. -1.
         11    1    3    3    0    0  0.36494200682E+01 -0.17240484409E+01  0.34068404443E+01  0.52817773462E+01  0.51100000000E-03 0. -1.
        -11    1    3    3    0    0  0.16777639471E+02 -0.43940212196E+01  0.34358094057E+02  0.38487338648E+02  0.51100000000E-03 0.  1.
        -12    1    3    3    0    0  0.20481365656E+01  0.78384975662E+00  0.90708541487E+00  0.23732020104E+01  0.00000000000E+00 0.  1.
</event>
<event>
 7    1  0.1698899E-008  0.4614232E+02  0.7816164E-02  0.1320468E+00
        -11   -1    0    0    0    0  0.00000000000E+00  0.00000000000E+00  0.45593999997E+02  0.45594000000E+02  0.51100000000E-03 0.  1.
         11   -1    0    0    0    0 -0.00000000000E+00 -0.00000000000E+00 -0.45593999997E+02  0.45594000000E+02  0.51100000000E-03 0. -1.
    9900012    2    1    2    0    0  0.96261821032E+01 -0.37717603851E+02  0.22667875525E+02  0.46142316489E+02  0.99999884032E+01 0.  0.
         12    1    1    2    0    0 -0.96261821032E+01  0.37717603851E+02 -0.22667875525E+02  0.45045683511E+02  0.00000000000E+00 0. -1.
         11    1    3    3    0    0  0.39445024985E+00 -0.13311989035E+01 -0.66163233224E+00  0.15379984149E+01  0.51100000000E-03 0. -1.
        -11    1    3    3    0    0  0.44922306061E+01 -0.26357474426E+02  0.18454250864E+02  0.32487781844E+02  0.51100000000E-03 0.  1.
        -12    1    3    3    0    0  0.47395012473E+01 -0.10028930521E+02  0.48752569937E+01  0.12116536230E+02  0.00000000000E+00 0.  1.
</event>
<event>
 7    1  0.1503436E-008  0.4614232E+02  0.7816164E-02  0.1320468E+00
        -11   -1    0    0    0    0  0.00000000000E+00  0.00000000000E+00  0.45593999997E+02  0.45594000000E+02  0.51100000000E-03 0.  1.
         11   -1    0    0    0    0 -0.00000000000E+00 -0.00000000000E+00 -0.45593999997E+02  0.45594000000E+02  0.51100000000E-03 0. -1.
    9900012    2    1    2    0    0  0.19721983830E+02 -0.25714189920E+02  0.31287973653E+02  0.46142317579E+02  0.99999983438E+01 0.  0.
         12    1    1    2    0    0 -0.19721983830E+02  0.25714189920E+02 -0.31287973653E+02  0.45045682421E+02  0.00000000000E+00 0. -1.
         11    1    3    3    0    0  0.47922417798E+01 -0.94786806748E+01  0.49854799191E+01  0.11733114629E+02  0.51100000000E-03 0. -1.
        -11    1    3    3    0    0  0.82808248491E+01 -0.83148611911E+01  0.15670142292E+02  0.19577087029E+02  0.51100000000E-03 0.  1.
         12    1    3    3    0    0  0.66489172014E+01 -0.79206480540E+01  0.10632351441E+02  0.14832115922E+02  0.00000000000E+00 0. -1.
</event>
<event>
 7    1  0.1503436E-008  0.4614232E+02  0.7816164E-02  0.1320468E+00
        -11   -1    0    0    0    0  0.00000000000E+00  0.00000000000E+00  0.45593999997E+02  0.45594000000E+02  0.51100000000E-03 0.  1.
         11   -1    0    0    0    0 -0.00000000000E+00 -0.00000000000E+00 -0.45593999997E+02  0.45594000000E+02  0.51100000000E-03 0. -1.
    9900012    2    1    2    0    0 -0.91371159754E+01  0.13739020444E+02  0.41914986369E+02  0.46142315929E+02  0.99999832953E+01 0.  0.
         12    1    1    2    0    0  0.91371159754E+01 -0.13739020444E+02 -0.41914986369E+02  0.45045684071E+02  0.00000000000E+00 0. -1.
         11    1    3    3    0    0 -0.36254033627E+01 -0.71957293964E+00  0.83647825601E+01  0.91449943847E+01  0.51100000000E-03 0. -1.
        -11    1    3    3    0    0 -0.40976875019E+01  0.80647008716E+01  0.19442950834E+02  0.21444318138E+02  0.51100000000E-03 0.  1.
         12    1    3    3    0    0 -0.14140251108E+01  0.63938925119E+01  0.14107252975E+02  0.15553003407E+02  0.00000000000E+00 0. -1.
</event>
<event>
 7    1  0.1503436E-008  0.4614232E+02  0.7816164E-02  0.1320468E+00
        -11   -1    0    0    0    0  0.00000000000E+00  0.00000000000E+00  0.45593999997E+02  0.45594000000E+02  0.51100000000E-03 0.  1.
         11   -1    0    0    0    0 -0.00000000000E+00 -0.00000000000E+00 -0.45593999997E+02  0.45594000000E+02  0.51100000000E-03 0. -1.
    9900012    2    1    2    0    0 -0.12771951598E+02  0.29427397624E+02  0.31623076593E+02  0.46142318167E+02  0.10000003702E+02 0.  0.
         12    1    1    2    0    0  0.12771951598E+02 -0.29427397624E+02 -0.31623076593E+02  0.45045681833E+02  0.00000000000E+00 0. -1.
         11    1    3    3    0    0 -0.14954737379E+01  0.33794971568E+01  0.91702699291E-01  0.36967353679E+01  0.51100000000E-03 0. -1.
        -11    1    3    3    0    0 -0.49912491086E+01  0.10173734548E+02  0.13117937872E+02  0.17334870539E+02  0.51100000000E-03 0.  1.
         12    1    3    3    0    0 -0.62852287520E+01  0.15874165920E+02  0.18413436022E+02  0.25110712261E+02  0.00000000000E+00 0. -1.
</event>
<event>
 7    1  0.1503436E-008  0.4614232E+02  0.7816164E-02  0.1320468E+00
        -11   -1    0    0    0    0  0.00000000000E+00  0.00000000000E+00  0.45593999997E+02  0.45594000000E+02  0.51100000000E-03 0. -1.
         11   -1    0    0    0    0 -0.00000000000E+00 -0.00000000000E+00 -0.45593999997E+02  0.45594000000E+02  0.51100000000E-03 0.  1.
    9900012    2    1    2    0    0 -0.15841059409E+02  0.42166649306E+02 -0.38469842873E+00  0.46142317967E+02  0.10000001880E+02 0.  0.
         12    1    1    2    0    0  0.15841059409E+02 -0.42166649306E+02  0.38469842873E+00  0.45045682033E+02  0.00000000000E+00 0. -1.
         11    1    3    3    0    0 -0.22376184939E+00  0.31607349367E+01 -0.11855482703E+01  0.33831700619E+01  0.51100000000E-03 0. -1.
        -11    1    3    3    0    0 -0.16526241508E+02  0.36167097117E+02  0.94017207307E+00  0.39775111515E+02  0.51100000000E-03 0.  1.
        -12    1    3    3    0    0  0.90894394852E+00  0.28388172524E+01 -0.13932223146E+00  0.29840363902E+01  0.00000000000E+00 0.  1.
</event>
<event>
 7    1  0.1503436E-008  0.4614232E+02  0.7816164E-02  0.1320468E+00
        -11   -1    0    0    0    0  0.00000000000E+00  0.00000000000E+00  0.45593999997E+02  0.45594000000E+02  0.51100000000E-03 0. -1.
         11   -1    0    0    0    0 -0.00000000000E+00 -0.00000000000E+00 -0.45593999997E+02  0.45594000000E+02  0.51100000000E-03 0.  1.
    9900012    2    1    2    0    0  0.39482379578E+00  0.28183133440E+02 -0.35137849560E+02  0.46142319097E+02  0.10000012178E+02 0.  0.
         12    1    1    2    0    0 -0.39482379578E+00 -0.28183133440E+02  0.35137849560E+02  0.45045680903E+02  0.00000000000E+00 0. -1.
         11    1    3    3    0    0 -0.24393817718E+01  0.19007222026E+02 -0.23645098326E+02  0.30435435724E+02  0.51100000000E-03 0. -1.
        -11    1    3    3    0    0  0.19150137354E+01  0.32560319805E+01 -0.15173470532E+01  0.40707940510E+01  0.51100000000E-03 0.  1.
         12    1    3    3    0    0  0.91919183219E+00  0.59198794336E+01 -0.99754041811E+01  0.11636089322E+02  0.00000000000E+00 0. -1.
</event>
<event>
 7    1  0.1503436E-008  0.4614232E+02  0.7816164E-02  0.1320468E+00
        -11   -1    0    0    0    0  0.00000000000E+00  0.00000000000E+00  0.45593999997E+02  0.45594000000E+02  0.51100000000E-03 0. -1.
         11   -1    0    0    0    0 -0.00000000000E+00 -0.00000000000E+00 -0.45593999997E+02  0.45594000000E+02  0.51100000000E-03 0.  1.
    9900012    2    1    2    0    0 -0.14860482141E+02 -0.30126333450E+02 -0.30011390363E+02  0.46142318208E+02  0.10000004071E+02 0.  0.
         12    1    1    2    0    0  0.14860482141E+02  0.30126333450E+02  0.30011390363E+02  0.45045681792E+02  0.00000000000E+00 0. -1.
         11    1    3    3    0    0 -0.20849134983E+01 -0.22019108275E+01 -0.64743400352E+01  0.71492905061E+01  0.51100000000E-03 0. -1.
        -11    1    3    3    0    0 -0.17193397852E+01 -0.90631963447E+01 -0.70578150133E+01  0.11615094072E+02  0.51100000000E-03 0.  1.
        -12    1    3    3    0    0 -0.11056228858E+02 -0.18861226278E+02 -0.16479235315E+02  0.27377933629E+02  0.00000000000E+00 0.  1.
</event>
<event>
 7    1  0.1503436E-008  0.4614232E+02  0.7816164E-02  0.1320468E+00
        -11   -1    0    0    0    0  0.00000000000E+00  0.00000000000E+00  0.45593999997E+02  0.45594000000E+02  0.51100000000E-03 0.  1.
         11   -1    0    0    0    0 -0.00000000000E+00 -0.00000000000E+00 -0.45593999997E+02  0.45594000000E+02  0.51100000000E-03 0. -1.
    9900012    2    1    2    0    0 -0.59907862362E+01  0.39219218991E+02  0.21332524227E+02  0.46142320430E+02  0.10000024340E+02 0.  0.
         12    1    1    2    0    0  0.59907862362E+01 -0.39219218991E+02 -0.21332524227E+02  0.45045679570E+02  0.00000000000E+00 0. -1.
         11    1    3    3    0    0  0.48132644689E-01  0.11243059594E+02  0.78621814133E+01  0.13719424282E+02  0.51100000000E-03 0. -1.
        -11    1    3    3    0    0  0.11535836721E+01  0.90838302700E+00  0.43870671510E+00  0.15324421214E+01  0.51100000000E-03 0.  1.
        -12    1    3    3    0    0 -0.71925025531E+01  0.27067776370E+02  0.13031636098E+02  0.30890454027E+02  0.00000000000E+00 0.  1.
</event>
<event>
 7    1  0.1503436E-008  0.4614232E+02  0.7816164E-02  0.1320468E+00
        -11   -1    0    0    0    0  0.00000000000E+00  0.00000000000E+00  0.45593999997E+02  0.45594000000E+02  0.51100000000E-03 0.  1.
         11   -1    0    0    0    0 -0.00000000000E+00 -0.00000000000E+00 -0.45593999997E+02  0.45594000000E+02  0.51100000000E-03 0. -1.
    9900012    2    1    2    0    0 -0.27711502100E+02 -0.26719540576E+02 -0.23393421622E+02  0.46142319048E+02  0.10000011734E+02 0.  0.
         12    1    1    2    0    0  0.27711502100E+02  0.26719540576E+02  0.23393421622E+02  0.45045680952E+02  0.00000000000E+00 0. -1.
         11    1    3    3    0    0 -0.22146908489E+02 -0.15532224182E+02 -0.17244841208E+02  0.32079901686E+02  0.51100000000E-03 0. -1.
        -11    1    3    3    0    0 -0.27263351852E+01 -0.46815770036E+01 -0.36724687269E+01  0.65450052401E+01  0.51100000000E-03 0.  1.
         12    1    3    3    0    0 -0.28382584257E+01 -0.65057393908E+01 -0.24761116873E+01  0.75174121212E+01  0.00000000000E+00 0. -1.
</event>
<event>
 7    1  0.1503436E-008  0.4614232E+02  0.7816164E-02  0.1320468E+00
        -11   -1    0    0    0    0  0.00000000000E+00  0.00000000000E+00  0.45593999997E+02  0.45594000000E+02  0.51100000000E-03 0. -1.
         11   -1    0    0    0    0 -0.00000000000E+00 -0.00000000000E+00 -0.45593999997E+02  0.45594000000E+02  0.51100000000E-03 0.  1.
    9900012    2    1    2    0    0  0.14907229963E+01  0.48412890011E+01 -0.44759950214E+02  0.46142317883E+02  0.10000001108E+02 0.  0.
         12    1    1    2    0    0 -0.14907229963E+01 -0.48412890011E+01  0.44759950214E+02  0.45045682117E+02  0.00000000000E+00 0. -1.
         11    1    3    3    0    0  0.13641058419E+01  0.61016667144E+00 -0.12310796515E+01  0.19361419070E+01  0.51100000000E-03 0. -1.
        -11    1    3    3    0    0  0.15338695759E+00 -0.55134600089E+00 -0.26825838306E+02  0.26831941992E+02  0.51100000000E-03 0.  1.
        -12    1    3    3    0    0 -0.26769803133E-01  0.47824683306E+01 -0.16703032256E+02  0.17374233983E+02  0.00000000000E+00 0.  1.
</event>
<event>
 7    1  0.1503436E-008  0.4614232E+02  0.7816164E-02  0.1320468E+00
        -11   -1    0    0    0    0  0.00000000000E+00  0.00000000000E+00  0.45593999997E+02  0.45594000000E+02  0.51100000000E-03 0. -1.
         11   -1    0    0    0    0 -0.00000000000E+00 -0.00000000000E+00 -0.45593999997E+02  0.45594000000E+02  0.51100000000E-03 0.  1.
    9900012    2    1    2    0    0 -0.25363609958E+02  0.60907946865E+01 -0.36724691319E+02  0.46142318270E+02  0.10000004643E+02 0.  0.
         12    1    1    2    0    0  0.25363609958E+02 -0.60907946865E+01  0.36724691319E+02  0.45045681730E+02  0.00000000000E+00 0. -1.
         11    1    3    3    0    0 -0.19387247326E+00 -0.87941527477E+00 -0.22080721576E+01  0.23846468660E+01  0.51100000000E-03 0. -1.
        -11    1    3    3    0    0 -0.24154814176E+02  0.68633280560E+01 -0.29976940081E+02  0.39104696096E+02  0.51100000000E-03 0.  1.
        -12    1    3    3    0    0 -0.10149233086E+01  0.10688190529E+00 -0.45396790806E+01  0.46529753082E+01  0.00000000000E+00 0.  1.
</event>
<event>
 7    1  0.1503436E-008  0.4614232E+02  0.7816164E-02  0.1320468E+00
        -11   -1    0    0    0    0  0.00000000000E+00  0.00000000000E+00  0.45593999997E+02  0.45594000000E+02  0.51100000000E-03 0. -1.
         11   -1    0    0    0    0 -0.00000000000E+00 -0.00000000000E+00 -0.45593999997E+02  0.45594000000E+02  0.51100000000E-03 0.  1.
    9900012    2    1    2    0    0 -0.15094915253E+02  0.39223479515E+02 -0.16210357483E+02  0.46142317615E+02  0.99999986709E+01 0.  0.
         12    1    1    2    0    0  0.15094915253E+02 -0.39223479515E+02  0.16210357483E+02  0.45045682385E+02  0.00000000000E+00 0. -1.
         11    1    3    3    0    0 -0.23967820811E+01  0.67387700590E+01  0.62486937119E+00  0.71795576636E+01  0.51100000000E-03 0. -1.
        -11    1    3    3    0    0 -0.12030323250E+02  0.26520142672E+02 -0.13527692100E+02  0.32109890978E+02  0.51100000000E-03 0.  1.
         12    1    3    3    0    0 -0.66780992212E+00  0.59645667844E+01 -0.33075347541E+01  0.68528689734E+01  0.00000000000E+00 0. -1.
</event>
<event>
 7    1  0.1503436E-008  0.4614232E+02  0.7816164E-02  0.1320468E+00
        -11   -1    0    0    0    0  0.00000000000E+00  0.00000000000E+00  0.45593999997E+02  0.45594000000E+02  0.51100000000E-03 0.  1.
         11   -1    0    0    0    0 -0.00000000000E+00 -0.00000000000E+00 -0.45593999997E+02  0.45594000000E+02  0.51100000000E-03 0. -1.
    9900012    2    1    2    0    0  0.37882624772E+02  0.13905332220E+01  0.24332827235E+02  0.46142319591E+02  0.10000016688E+02 0.  0.
         12    1    1    2    0    0 -0.37882624772E+02 -0.13905332220E+01 -0.24332827235E+02  0.45045680409E+02  0.00000000000E+00 0. -1.
         11    1    3    3    0    0  0.12853427350E+02  0.26856977816E+01  0.11062404519E+02  0.17169751344E+02  0.51100000000E-03 0. -1.
        -11    1    3    3    0    0  0.74241828294E+01 -0.65989864210E+00  0.71355535998E+01  0.10318434103E+02  0.51100000000E-03 0.  1.
         12    1    3    3    0    0  0.17605014593E+02 -0.63526591752E+00  0.61348691158E+01  0.18654134144E+02  0.00000000000E+00 0. -1.
</event>
<event>
 7    1  0.1503436E-008  0.4614232E+02  0.7816164E-02  0.1320468E+00
        -11   -1    0    0    0    0  0.00000000000E+00  0.00000000000E+00  0.45593999997E+02  0.45594000000E+02  0.51100000000E-03 0.  1.
         11   -1    0    0    0    0 -0.00000000000E+00 -0.00000000000E+00 -0.45593999997E+02  0.45594000000E+02  0.51100000000E-03 0. -1.
    9900012    2    1    2    0    0 -0.40326546648E+02 -0.34620204599E+01  0.19771128693E+02  0.46142317854E+02  0.10000000844E+02 0.  0.
         12    1    1    2    0    0  0.40326546648E+02  0.34620204599E+01 -0.19771128693E+02  0.45045682146E+02  0.00000000000E+00 0. -1.
         11    1    3    3    0    0 -0.12801817982E+00  0.38864791186E+00 -0.55790015599E+00  0.69187332579E+00  0.51100000000E-03 0. -1.
        -11    1    3    3    0    0 -0.30263707147E+02 -0.90847502581E+00  0.14662497375E+02  0.33640840160E+02  0.51100000000E-03 0.  1.
        -12    1    3    3    0    0 -0.99348213214E+01 -0.29421933459E+01  0.56665314741E+01  0.11809604368E+02  0.00000000000E+00 0.  1.
</event>
<event>
 7    1  0.1503436E-008  0.4614232E+02  0.7816164E-02  0.1320468E+00
        -11   -1    0    0    0    0  0.00000000000E+00  0.00000000000E+00  0.45593999997E+02  0.45594000000E+02  0.51100000000E-03 0.  1.
         11   -1    0    0    0    0 -0.00000000000E+00 -0.00000000000E+00 -0.45593999997E+02  0.45594000000E+02  0.51100000000E-03 0. -1.
    9900012    2    1    2    0    0 -0.16887779650E+02  0.30969050487E+02  0.28014896148E+02  0.46142316569E+02  0.99999891295E+01 0.  0.
         12    1    1    2    0    0  0.16887779650E+02 -0.30969050487E+02 -0.28014896148E+02  0.45045683431E+02  0.00000000000E+00 0. -1.
         11    1    3    3    0    0 -0.91529800132E+00  0.51561622330E+01  0.44521474717E+01  0.68735286990E+01  0.51100000000E-03 0. -1.
        -11    1    3    3    0    0 -0.16577837686E+02  0.23183397550E+02  0.20084437258E+02  0.34866592099E+02  0.51100000000E-03 0.  1.
        -12    1    3    3    0    0  0.60535603678E+00  0.26294907036E+01  0.34783114178E+01  0.44021957715E+01  0.00000000000E+00 0.  1.
</event>
<event>
 7    1  0.1503436E-008  0.4614232E+02  0.7816164E-02  0.1320468E+00
        -11   -1    0    0    0    0  0.00000000000E+00  0.00000000000E+00  0.45593999997E+02  0.45594000000E+02  0.51100000000E-03 0.  1.
         11   -1    0    0    0    0 -0.00000000000E+00 -0.00000000000E+00 -0.45593999997E+02  0.45594000000E+02  0.51100000000E-03 0. -1.
    9900012    2    1    2    0    0  0.12078713258E+02 -0.28476134850E+02  0.32746418222E+02  0.46142317894E+02  0.10000001215E+02 0.  0.
         12    1    1    2    0    0 -0.12078713258E+02  0.28476134850E+02 -0.32746418222E+02  0.45045682106E+02  0.00000000000E+00 0. -1.
         11    1    3    3    0    0  0.15659722906E+01  0.30319661536E+00  0.17766373944E+01  0.23876009078E+01  0.51100000000E-03 0. -1.
        -11    1    3    3    0    0  0.54854761365E+01 -0.20511690704E+02  0.21315923303E+02  0.30086350568E+02  0.51100000000E-03 0.  1.
        -12    1    3    3    0    0  0.50272648306E+01 -0.82676407619E+01  0.96538575245E+01  0.13668366418E+02  0.00000000000E+00 0.  1.
</event>
<event>
 7    1  0.1503436E-008  0.4614232E+02  0.7816164E-02  0.1320468E+00
        -11   -1    0    0    0    0  0.00000000000E+00  0.00000000000E+00  0.45593999997E+02  0.45594000000E+02  0.51100000000E-03 0.  1.
         11   -1    0    0    0    0 -0.00000000000E+00 -0.00000000000E+00 -0.45593999997E+02  0.45594000000E+02  0.51100000000E-03 0. -1.
    9900012    2    1    2    0    0 -0.16825136669E+02  0.23626439563E+02  0.34464758468E+02  0.46142318225E+02  0.10000004231E+02 0.  0.
         12    1    1    2    0    0  0.16825136669E+02 -0.23626439563E+02 -0.34464758468E+02  0.45045681775E+02  0.00000000000E+00 0. -1.
         11    1    3    3    0    0 -0.34496164253E+01  0.48120555482E+01  0.77458491993E+01  0.97495595880E+01  0.51100000000E-03 0.  1.
        -11    1    3    3    0    0 -0.13629111334E+02  0.19232115235E+02  0.24034700738E+02  0.33664428883E+02  0.51100000000E-03 0. -1.
        -12    1    3    3    0    0  0.25359109024E+00 -0.41773122088E+00  0.26842085304E+01  0.27283297544E+01  0.00000000000E+00 0.  1.
</event>
<event>
 7    1  0.1503436E-008  0.4614232E+02  0.7816164E-02  0.1320468E+00
        -11   -1    0    0    0    0  0.00000000000E+00  0.00000000000E+00  0.45593999997E+02  0.45594000000E+02  0.51100000000E-03 0.  1.
         11   -1    0    0    0    0 -0.00000000000E+00 -0.00000000000E+00 -0.45593999997E+02  0.45594000000E+02  0.51100000000E-03 0. -1.
    9900012    2    1    2    0    0  0.42544426280E+02 -0.38734535078E+01  0.14285713470E+02  0.46142318088E+02  0.10000002984E+02 0.  0.
         12    1    1    2    0    0 -0.42544426280E+02  0.38734535078E+01 -0.14285713470E+02  0.45045681912E+02  0.00000000000E+00 0. -1.
         11    1    3    3    0    0  0.18260468758E+02 -0.32300971452E+01  0.10210637294E+02  0.21169207851E+02  0.51100000000E-03 0. -1.
        -11    1    3    3    0    0  0.37175709326E+01 -0.91747549206E+00 -0.61173837903E+00  0.38776692771E+01  0.51100000000E-03 0.  1.
        -12    1    3    3    0    0  0.20566386589E+02  0.27411912948E+00  0.46868145547E+01  0.21095440960E+02  0.00000000000E+00 0.  1.
</event>
<event>
 7    1  0.1503436E-008  0.4614232E+02  0.7816164E-02  0.1320468E+00
        -11   -1    0    0    0    0  0.00000000000E+00  0.00000000000E+00  0.45593999997E+02  0.45594000000E+02  0.51100000000E-03 0.  1.
         11   -1    0    0    0    0 -0.00000000000E+00 -0.00000000000E+00 -0.45593999997E+02  0.45594000000E+02  0.51100000000E-03 0. -1.
    9900012    2    1    2    0    0 -0.10998947266E+02 -0.29330764431E+00  0.43681238967E+02  0.46142317543E+02  0.99999980075E+01 0.  0.
         12    1    1    2    0    0  0.10998947266E+02  0.29330764431E+00 -0.43681238967E+02  0.45045682457E+02  0.00000000000E+00 0. -1.
         11    1    3    3    0    0 -0.69873331190E+01 -0.50593850513E+00  0.16214662287E+02  0.17663353906E+02  0.51100000000E-03 0. -1.
        -11    1    3    3    0    0 -0.47443443992E+01 -0.11265128153E+01  0.25635050338E+02  0.26094705229E+02  0.51100000000E-03 0.  1.
         12    1    3    3    0    0  0.73273025257E+00  0.13391436762E+01  0.18315263428E+01  0.23842584073E+01  0.00000000000E+00 0. -1.
</event>
<event>
 7    1  0.1503436E-008  0.4614232E+02  0.7816164E-02  0.1320468E+00
        -11   -1    0    0    0    0  0.00000000000E+00  0.00000000000E+00  0.45593999997E+02  0.45594000000E+02  0.51100000000E-03 0.  1.
         11   -1    0    0    0    0 -0.00000000000E+00 -0.00000000000E+00 -0.45593999997E+02  0.45594000000E+02  0.51100000000E-03 0. -1.
    9900012    2    1    2    0    0 -0.32567166805E+01 -0.21025978596E+02  0.39704092258E+02  0.46142324053E+02  0.10000057376E+02 0.  0.
         12    1    1    2    0    0  0.32567166805E+01  0.21025978596E+02 -0.39704092258E+02  0.45045675947E+02  0.00000000000E+00 0. -1.
         11    1    3    3    0    0 -0.15696947257E+00 -0.40025726285E+01  0.66798885930E+01  0.77888470866E+01  0.51100000000E-03 0. -1.
        -11    1    3    3    0    0 -0.23707106655E+01 -0.17880219098E+02  0.32359657159E+02  0.37046861078E+02  0.51100000000E-03 0.  1.
         12    1    3    3    0    0 -0.72903654237E+00  0.85681313052E+00  0.66454650663E+00  0.13066158886E+01  0.00000000000E+00 0. -1.
</event>
<event>
 7    1  0.1503436E-008  0.4614233E+02  0.7816164E-02  0.1320468E+00
        -11   -1    0    0    0    0  0.00000000000E+00  0.00000000000E+00  0.45593999997E+02  0.45594000000E+02  0.51100000000E-03 0. -1.
         11   -1    0    0    0    0 -0.00000000000E+00 -0.00000000000E+00 -0.45593999997E+02  0.45594000000E+02  0.51100000000E-03 0.  1.
    9900012    2    1    2    0    0 -0.18281649794E+02  0.61275999514E+01 -0.40710514632E+02  0.46142332039E+02  0.10000130201E+02 0.  0.
         12    1    1    2    0    0  0.18281649794E+02 -0.61275999514E+01  0.40710514632E+02  0.45045667961E+02  0.00000000000E+00 0. -1.
         11    1    3    3    0    0 -0.89290129563E+01  0.12996837403E+01 -0.21819248695E+02  0.23611354558E+02  0.51100000000E-03 0.  1.
        -11    1    3    3    0    0 -0.39293153432E+01  0.57559809841E+00 -0.12558972114E+02  0.13171887224E+02  0.51100000000E-03 0. -1.
         12    1    3    3    0    0 -0.54233214949E+01  0.42523181127E+01 -0.63322938241E+01  0.93590902572E+01  0.00000000000E+00 0. -1.
</event>
<event>
 7    1  0.1503436E-008  0.4614232E+02  0.7816164E-02  0.1320468E+00
        -11   -1    0    0    0    0  0.00000000000E+00  0.00000000000E+00  0.45593999997E+02  0.45594000000E+02  0.51100000000E-03 0.  1.
         11   -1    0    0    0    0 -0.00000000000E+00 -0.00000000000E+00 -0.45593999997E+02  0.45594000000E+02  0.51100000000E-03 0. -1.
    9900012    2    1    2    0    0 -0.23272572611E+02  0.21537307486E+02  0.31994455737E+02  0.46142318214E+02  0.10000004132E+02 0.  0.
         12    1    1    2    0    0  0.23272572611E+02 -0.21537307486E+02 -0.31994455737E+02  0.45045681786E+02  0.00000000000E+00 0. -1.
         11    1    3    3    0    0 -0.45760793639E+01  0.26626136058E+00  0.36476599093E+01  0.58580560369E+01  0.51100000000E-03 0. -1.
        -11    1    3    3    0    0 -0.33340111321E+01  0.54601767671E+01  0.83641508104E+01  0.10530345654E+02  0.51100000000E-03 0.  1.
        -12    1    3    3    0    0 -0.15362482115E+02  0.15810869358E+02  0.19982645017E+02  0.29753916523E+02  0.00000000000E+00 0.  1.
</event>
<event>
 7    1  0.1503436E-008  0.4614232E+02  0.7816164E-02  0.1320468E+00
        -11   -1    0    0    0    0  0.00000000000E+00  0.00000000000E+00  0.45593999997E+02  0.45594000000E+02  0.51100000000E-03 0.  1.
         11   -1    0    0    0    0 -0.00000000000E+00 -0.00000000000E+00 -0.45593999997E+02  0.45594000000E+02  0.51100000000E-03 0. -1.
    9900012    2    1    2    0    0 -0.89855311261E+01  0.13596198169E+01  0.44119441081E+02  0.46142318554E+02  0.10000007227E+02 0.  0.
         12    1    1    2    0    0  0.89855311261E+01 -0.13596198169E+01 -0.44119441081E+02  0.45045681446E+02  0.00000000000E+00 0. -1.
         11    1    3    3    0    0 -0.59338559253E+01  0.24486673021E+01  0.21672157313E+02  0.22602854257E+02  0.51100000000E-03 0. -1.
        -11    1    3    3    0    0  0.13004022773E+01  0.14899084253E+01  0.51143320242E+01  0.54833626101E+01  0.51100000000E-03 0.  1.
        -12    1    3    3    0    0 -0.43520774781E+01 -0.25789559104E+01  0.17332951744E+02  0.18056101687E+02  0.00000000000E+00 0.  1.
</event>
<event>
 7    1  0.1503436E-008  0.4614232E+02  0.7816164E-02  0.1320468E+00
        -11   -1    0    0    0    0  0.00000000000E+00  0.00000000000E+00  0.45593999997E+02  0.45594000000E+02  0.51100000000E-03 0.  1.
         11   -1    0    0    0    0 -0.00000000000E+00 -0.00000000000E+00 -0.45593999997E+02  0.45594000000E+02  0.51100000000E-03 0. -1.
    9900012    2    1    2    0    0  0.39422885331E+02 -0.51477351048E+01  0.21176650021E+02  0.46142316848E+02  0.99999916738E+01 0.  0.
         12    1    1    2    0    0 -0.39422885331E+02  0.51477351048E+01 -0.21176650021E+02  0.45045683152E+02  0.00000000000E+00 0. -1.
         11    1    3    3    0    0  0.16755175442E+02 -0.46067605879E+01  0.13929821449E+02  0.22271014190E+02  0.51100000000E-03 0. -1.
        -11    1    3    3    0    0  0.18811010112E+02 -0.32575924922E+00  0.66941042590E+01  0.19969257688E+02  0.51100000000E-03 0.  1.
         12    1    3    3    0    0  0.38566997772E+01 -0.21521526777E+00  0.55272431372E+00  0.39020449702E+01  0.00000000000E+00 0. -1.
</event>
<event>
 7    1  0.1503436E-008  0.4614232E+02  0.7816164E-02  0.1320468E+00
        -11   -1    0    0    0    0  0.00000000000E+00  0.00000000000E+00  0.45593999997E+02  0.45594000000E+02  0.51100000000E-03 0.  1.
         11   -1    0    0    0    0 -0.00000000000E+00 -0.00000000000E+00 -0.45593999997E+02  0.45594000000E+02  0.51100000000E-03 0. -1.
    9900012    2    1    2    0    0 -0.20708633083E+01  0.37515541355E+00  0.44996492157E+02  0.46142317378E+02  0.99999965058E+01 0.  0.
         12    1    1    2    0    0  0.20708633083E+01 -0.37515541355E+00 -0.44996492157E+02  0.45045682622E+02  0.00000000000E+00 0. -1.
         11    1    3    3    0    0  0.38687960314E-01  0.32103675856E+01  0.17108355024E+02  0.17407003438E+02  0.51100000000E-03 0. -1.
        -11    1    3    3    0    0 -0.28310337501E+01 -0.12574494292E+01  0.57675517484E+01  0.65467995687E+01  0.51100000000E-03 0.  1.
        -12    1    3    3    0    0  0.72148248145E+00 -0.15777627429E+01  0.22120585385E+02  0.22188514371E+02  0.00000000000E+00 0.  1.
</event>
<event>
 7    1  0.1503436E-008  0.4614232E+02  0.7816164E-02  0.1320468E+00
        -11   -1    0    0    0    0  0.00000000000E+00  0.00000000000E+00  0.45593999997E+02  0.45594000000E+02  0.51100000000E-03 0.  1.
         11   -1    0    0    0    0 -0.00000000000E+00 -0.00000000000E+00 -0.45593999997E+02  0.45594000000E+02  0.51100000000E-03 0. -1.
    9900012    2    1    2    0    0 -0.17194803000E+02  0.40807925896E+02  0.82562418343E+01  0.46142316573E+02  0.99999891679E+01 0.  0.
         12    1    1    2    0    0  0.17194803000E+02 -0.40807925896E+02 -0.82562418343E+01  0.45045683427E+02  0.00000000000E+00 0. -1.
         11    1    3    3    0    0 -0.18825460185E+00  0.26668666415E+01 -0.57801589746E+00  0.27352733168E+01  0.51100000000E-03 0. -1.
        -11    1    3    3    0    0 -0.29514102286E+01  0.24756541329E+01 -0.67345503113E+00  0.39106556564E+01  0.51100000000E-03 0.  1.
        -12    1    3    3    0    0 -0.14055138169E+02  0.35665405122E+02  0.95077127629E+01  0.39496387600E+02  0.00000000000E+00 0.  1.
</event>
<event>
 7    1  0.1503436E-008  0.4614232E+02  0.7816164E-02  0.1320468E+00
        -11   -1    0    0    0    0  0.00000000000E+00  0.00000000000E+00  0.45593999997E+02  0.45594000000E+02  0.51100000000E-03 0. -1.
         11   -1    0    0    0    0 -0.00000000000E+00 -0.00000000000E+00 -0.45593999997E+02  0.45594000000E+02  0.51100000000E-03 0.  1.
    9900012    2    1    2    0    0 -0.23493319617E+02 -0.11497845785E+02 -0.36673927268E+02  0.46142318013E+02  0.10000002301E+02 0.  0.
         12    1    1    2    0    0  0.23493319617E+02  0.11497845785E+02  0.36673927268E+02  0.45045681987E+02  0.00000000000E+00 0. -1.
         11    1    3    3    0    0 -0.13182953698E+02 -0.52269291691E+01 -0.14294962245E+02  0.20135962917E+02  0.51100000000E-03 0. -1.
        -11    1    3    3    0    0 -0.31266975514E+01 -0.27483892500E+01 -0.32819024570E+01  0.53010154731E+01  0.51100000000E-03 0.  1.
         12    1    3    3    0    0 -0.71836683683E+01 -0.35225273661E+01 -0.19097062566E+02  0.20705339623E+02  0.00000000000E+00 0. -1.
</event>
<event>
 7    1  0.1503436E-008  0.4614232E+02  0.7816164E-02  0.1320468E+00
        -11   -1    0    0    0    0  0.00000000000E+00  0.00000000000E+00  0.45593999997E+02  0.45594000000E+02  0.51100000000E-03 0.  1.
         11   -1    0    0    0    0 -0.00000000000E+00 -0.00000000000E+00 -0.45593999997E+02  0.45594000000E+02  0.51100000000E-03 0. -1.
    9900012    2    1    2    0    0 -0.10434407429E+02  0.16602548423E+02  0.40553570030E+02  0.46142317469E+02  0.99999973320E+01 0.  0.
         12    1    1    2    0    0  0.10434407429E+02 -0.16602548423E+02 -0.40553570030E+02  0.45045682531E+02  0.00000000000E+00 0. -1.
         11    1    3    3    0    0  0.96867879293E+00  0.28138928922E+01  0.32265998867E+01  0.43894508657E+01  0.51100000000E-03 0. -1.
        -11    1    3    3    0    0 -0.48842927592E+01  0.92161856143E+01  0.24867044252E+02  0.26965983815E+02  0.51100000000E-03 0.  1.
        -12    1    3    3    0    0 -0.65187934632E+01  0.45724699162E+01  0.12459925892E+02  0.14786882788E+02  0.00000000000E+00 0.  1.
</event>
<event>
 7    1  0.1503436E-008  0.4614232E+02  0.7816164E-02  0.1320468E+00
        -11   -1    0    0    0    0  0.00000000000E+00  0.00000000000E+00  0.45593999997E+02  0.45594000000E+02  0.51100000000E-03 0. -1.
         11   -1    0    0    0    0 -0.00000000000E+00 -0.00000000000E+00 -0.45593999997E+02  0.45594000000E+02  0.51100000000E-03 0.  1.
    9900012    2    1    2    0    0  0.94608120435E+01 -0.30094620177E+02 -0.32154634855E+02  0.46142315737E+02  0.99999815392E+01 0.  0.
         12    1    1    2    0    0 -0.94608120435E+01  0.30094620177E+02  0.32154634855E+02  0.45045684263E+02  0.00000000000E+00 0. -1.
         11    1    3    3    0    0  0.41824311547E+01 -0.88279458781E+01 -0.11449264888E+02  0.15050283237E+02  0.51100000000E-03 0. -1.
        -11    1    3    3    0    0  0.14420420521E+01  0.13682047232E+00 -0.13874256854E+01  0.20057805003E+01  0.51100000000E-03 0.  1.
        -12    1    3    3    0    0  0.38363388367E+01 -0.21403494771E+02 -0.19317944281E+02  0.29086251999E+02  0.00000000000E+00 0.  1.
</event>
<event>
 7    1  0.1503436E-008  0.4614232E+02  0.7816164E-02  0.1320468E+00
        -11   -1    0    0    0    0  0.00000000000E+00  0.00000000000E+00  0.45593999997E+02  0.45594000000E+02  0.51100000000E-03 0.  1.
         11   -1    0    0    0    0 -0.00000000000E+00 -0.00000000000E+00 -0.45593999997E+02  0.45594000000E+02  0.51100000000E-03 0. -1.
    9900012    2    1    2    0    0 -0.29390012484E+02 -0.33795118421E+02 -0.48198175106E+01  0.46142317591E+02  0.99999984492E+01 0.  0.
         12    1    1    2    0    0  0.29390012484E+02  0.33795118421E+02  0.48198175106E+01  0.45045682409E+02  0.00000000000E+00 0. -1.
         11    1    3    3    0    0 -0.20620378168E+02 -0.18348215818E+02 -0.43004111239E+01  0.27934755334E+02  0.51100000000E-03 0. -1.
        -11    1    3    3    0    0 -0.78012502462E+01 -0.10483304159E+02 -0.11172827222E+01  0.13115162692E+02  0.51100000000E-03 0.  1.
         12    1    3    3    0    0 -0.96838406969E+00 -0.49635984437E+01  0.59787633553E+00  0.50923995650E+01  0.00000000000E+00 0. -1.
</event>
<event>
 7    1  0.1503436E-008  0.4614232E+02  0.7816164E-02  0.1320468E+00
        -11   -1    0    0    0    0  0.00000000000E+00  0.00000000000E+00  0.45593999997E+02  0.45594000000E+02  0.51100000000E-03 0. -1.
         11   -1    0    0    0    0 -0.00000000000E+00 -0.00000000000E+00 -0.45593999997E+02  0.45594000000E+02  0.51100000000E-03 0.  1.
    9900012    2    1    2    0    0  0.28053316888E+02  0.12861991969E+02 -0.32813018240E+02  0.46142316612E+02  0.99999895234E+01 0.  0.
         12    1    1    2    0    0 -0.28053316888E+02 -0.12861991969E+02  0.32813018240E+02  0.45045683388E+02  0.00000000000E+00 0. -1.
         11    1    3    3    0    0  0.64241824783E+01  0.31535406645E+01 -0.32662488501E+01  0.78665952641E+01  0.51100000000E-03 0. -1.
        -11    1    3    3    0    0  0.85791592542E+01  0.98780038793E+00 -0.10506991456E+02  0.13600536491E+02  0.51100000000E-03 0.  1.
        -12    1    3    3    0    0  0.13049975156E+02  0.87206509161E+01 -0.19039777934E+02  0.24675184857E+02  0.00000000000E+00 0.  1.
</event>
<event>
 7    1  0.1503436E-008  0.4614231E+02  0.7816164E-02  0.1320468E+00
        -11   -1    0    0    0    0  0.00000000000E+00  0.00000000000E+00  0.45593999997E+02  0.45594000000E+02  0.51100000000E-03 0. -1.
         11   -1    0    0    0    0 -0.00000000000E+00 -0.00000000000E+00 -0.45593999997E+02  0.45594000000E+02  0.51100000000E-03 0.  1.
    9900012    2    1    2    0    0  0.43715036467E+02  0.15538999740E+01 -0.10756174909E+02  0.46142308562E+02  0.99999161184E+01 0.  0.
         12    1    1    2    0    0 -0.43715036467E+02 -0.15538999740E+01  0.10756174909E+02  0.45045691438E+02  0.00000000000E+00 0. -1.
         11    1    3    3    0    0  0.17247858572E+02  0.22066544823E+01 -0.70670599634E+01  0.18769690624E+02  0.51100000000E-03 0. -1.
        -11    1    3    3    0    0  0.18265808790E+02 -0.21580082834E+01 -0.36606470577E+00  0.18396488092E+02  0.51100000000E-03 0.  1.
        -12    1    3    3    0    0  0.82013691049E+01  0.15052537752E+01 -0.33230502397E+01  0.89761298464E+01  0.00000000000E+00 0.  1.
</event>
<event>
 7    1  0.1503436E-008  0.4614232E+02  0.7816164E-02  0.1320468E+00
        -11   -1    0    0    0    0  0.00000000000E+00  0.00000000000E+00  0.45593999997E+02  0.45594000000E+02  0.51100000000E-03 0.  1.
         11   -1    0    0    0    0 -0.00000000000E+00 -0.00000000000E+00 -0.45593999997E+02  0.45594000000E+02  0.51100000000E-03 0. -1.
    9900012    2    1    2    0    0  0.26004949549E+02  0.34094218240E+02  0.13800012996E+02  0.46142317886E+02  0.10000001139E+02 0.  0.
         12    1    1    2    0    0 -0.26004949549E+02 -0.34094218240E+02 -0.13800012996E+02  0.45045682114E+02  0.00000000000E+00 0. -1.
         11    1    3    3    0    0  0.74735816545E+01  0.17224630716E+02  0.55398879977E+01  0.19576329721E+02  0.51100000000E-03 0. -1.
        -11    1    3    3    0    0  0.12545067427E+02  0.11011834828E+02  0.69805921855E+01  0.18093310657E+02  0.51100000000E-03 0.  1.
         12    1    3    3    0    0  0.59863004678E+01  0.58577526954E+01  0.12795328129E+01  0.84726775078E+01  0.00000000000E+00 0. -1.
</event>
<event>
 7    1  0.1503436E-008  0.4614232E+02  0.7816164E-02  0.1320468E+00
        -11   -1    0    0    0    0  0.00000000000E+00  0.00000000000E+00  0.45593999997E+02  0.45594000000E+02  0.51100000000E-03 0. -1.
         11   -1    0    0    0    0 -0.00000000000E+00 -0.00000000000E+00 -0.45593999997E+02  0.45594000000E+02  0.51100000000E-03 0.  1.
    9900012    2    1    2    0    0 -0.10547083714E+02  0.42850246398E+01 -0.43583381123E+02  0.46142317398E+02  0.99999966856E+01 0.  0.
         12    1    1    2    0    0  0.10547083714E+02 -0.42850246398E+01  0.43583381123E+02  0.45045682602E+02  0.00000000000E+00 0. -1.
         11    1    3    3    0    0 -0.98079040211E+01  0.28210748632E+01 -0.38287741938E+02  0.39624545772E+02  0.51100000000E-03 0.  1.
        -11    1    3    3    0    0 -0.10530561722E+00 -0.32048752151E+00  0.39551167669E+00  0.51983773620E+00  0.51100000000E-03 0. -1.
         12    1    3    3    0    0 -0.63387407546E+00  0.17844372981E+01 -0.56911508611E+01  0.59979338891E+01  0.00000000000E+00 0. -1.
</event>
<event>
 7    1  0.1503436E-008  0.4614232E+02  0.7816164E-02  0.1320468E+00
        -11   -1    0    0    0    0  0.00000000000E+00  0.00000000000E+00  0.45593999997E+02  0.45594000000E+02  0.51100000000E-03 0. -1.
         11   -1    0    0    0    0 -0.00000000000E+00 -0.00000000000E+00 -0.45593999997E+02  0.45594000000E+02  0.51100000000E-03 0.  1.
    9900012    2    1    2    0    0  0.29302379624E+02  0.26347303869E+02 -0.21824383102E+02  0.46142316849E+02  0.99999916794E+01 0.  0.
         12    1    1    2    0    0 -0.29302379624E+02 -0.26347303869E+02  0.21824383102E+02  0.45045683151E+02  0.00000000000E+00 0. -1.
         11    1    3    3    0    0  0.43344089986E+01  0.47711404796E+01 -0.52449844370E+01  0.83102794688E+01  0.51100000000E-03 0. -1.
        -11    1    3    3    0    0  0.53016664063E+01  0.84777774567E+00 -0.34878756153E+01  0.64024737687E+01  0.51100000000E-03 0.  1.
        -12    1    3    3    0    0  0.19666304219E+02  0.20728385644E+02 -0.13091523050E+02  0.31429563611E+02  0.00000000000E+00 0.  1.
</event>
<event>
 7    1  0.1643269E-008  0.4614232E+02  0.7816164E-02  0.1320468E+00
        -11   -1    0    0    0    0  0.00000000000E+00  0.00000000000E+00  0.45593999997E+02  0.45594000000E+02  0.51100000000E-03 0. -1.
         11   -1    0    0    0    0 -0.00000000000E+00 -0.00000000000E+00 -0.45593999997E+02  0.45594000000E+02  0.51100000000E-03 0.  1.
    9900012    2    1    2    0    0 -0.35498466892E+02 -0.36349639926E+01 -0.27491077634E+02  0.46142318027E+02  0.10000002424E+02 0.  0.
         12    1    1    2    0    0  0.35498466892E+02  0.36349639926E+01  0.27491077634E+02  0.45045681973E+02  0.00000000000E+00 0. -1.
         11    1    3    3    0    0 -0.93978454225E+01 -0.41668000491E+01 -0.66125730526E+01  0.12223250135E+02  0.51100000000E-03 0. -1.
        -11    1    3    3    0    0 -0.26278435533E+02  0.68317176303E+00 -0.20057438463E+02  0.33065446249E+02  0.51100000000E-03 0.  1.
        -12    1    3    3    0    0  0.17781406304E+00 -0.15133570648E+00 -0.82106611855E+00  0.85362164224E+00  0.00000000000E+00 0.  1.
</event>
<event>
 7    1  0.1572933E-008  0.4614232E+02  0.7816164E-02  0.1320468E+00
        -11   -1    0    0    0    0  0.00000000000E+00  0.00000000000E+00  0.45593999997E+02  0.45594000000E+02  0.51100000000E-03 0. -1.
         11   -1    0    0    0    0 -0.00000000000E+00 -0.00000000000E+00 -0.45593999997E+02  0.45594000000E+02  0.51100000000E-03 0.  1.
    9900012    2    1    2    0    0 -0.26346034514E+02  0.78844614123E+01 -0.35676816587E+02  0.46142317541E+02  0.99999979968E+01 0.  0.
         12    1    1    2    0    0  0.26346034514E+02 -0.78844614123E+01  0.35676816587E+02  0.45045682459E+02  0.00000000000E+00 0. -1.
         11    1    3    3    0    0 -0.84575274489E+00  0.17695824360E-01 -0.44318916067E+01  0.45119036251E+01  0.51100000000E-03 0. -1.
        -11    1    3    3    0    0 -0.17380861139E+02  0.67132726479E+01 -0.17151698331E+02  0.25324753098E+02  0.51100000000E-03 0.  1.
        -12    1    3    3    0    0 -0.81194206300E+01  0.11534929400E+01 -0.14093226650E+02  0.16305660818E+02  0.00000000000E+00 0.  1.
</event>
<event>
 7    1  0.1503436E-008  0.4614232E+02  0.7816164E-02  0.1320468E+00
        -11   -1    0    0    0    0  0.00000000000E+00  0.00000000000E+00  0.45593999997E+02  0.45594000000E+02  0.51100000000E-03 0. -1.
         11   -1    0    0    0    0 -0.00000000000E+00 -0.00000000000E+00 -0.45593999997E+02  0.45594000000E+02  0.51100000000E-03 0.  1.
    9900012    2    1    2    0    0  0.20991095724E+02  0.32116834310E+02 -0.23600773643E+02  0.46142315831E+02  0.99999823958E+01 0.  0.
         12    1    1    2    0    0 -0.20991095724E+02 -0.32116834310E+02  0.23600773643E+02  0.45045684169E+02  0.00000000000E+00 0. -1.
         11    1    3    3    0    0  0.38614903212E+01  0.22721062737E+01 -0.33869764607E+01  0.56165099685E+01  0.51100000000E-03 0.  1.
        -11    1    3    3    0    0  0.12583328506E+02  0.15806260992E+02 -0.97288712275E+01  0.22423848431E+02  0.51100000000E-03 0. -1.
         12    1    3    3    0    0  0.45462768967E+01  0.14038467044E+02 -0.10484925955E+02  0.18101957431E+02  0.00000000000E+00 0. -1.
</event>
<event>
 7    1  0.1503436E-008  0.4614232E+02  0.7816164E-02  0.1320468E+00
        -11   -1    0    0    0    0  0.00000000000E+00  0.00000000000E+00  0.45593999997E+02  0.45594000000E+02  0.51100000000E-03 0.  1.
         11   -1    0    0    0    0 -0.00000000000E+00 -0.00000000000E+00 -0.45593999997E+02  0.45594000000E+02  0.51100000000E-03 0. -1.
    9900012    2    1    2    0    0 -0.44125614141E+02  0.49703046591E+01  0.75723004319E+01  0.46142317793E+02  0.10000000289E+02 0.  0.
         12    1    1    2    0    0  0.44125614141E+02 -0.49703046591E+01 -0.75723004319E+01  0.45045682207E+02  0.00000000000E+00 0. -1.
         11    1    3    3    0    0 -0.75629246945E+01  0.17727776203E+01  0.48044593428E+01  0.91336411285E+01  0.51100000000E-03 0. -1.
        -11    1    3    3    0    0 -0.21207406004E+02  0.97354397634E+00 -0.10204984605E+00  0.21229985203E+02  0.51100000000E-03 0.  1.
        -12    1    3    3    0    0 -0.15355283442E+02  0.22239830624E+01  0.28698909351E+01  0.15778691461E+02  0.00000000000E+00 0.  1.
</event>
<event>
 7    1  0.1503436E-008  0.4614232E+02  0.7816164E-02  0.1320468E+00
        -11   -1    0    0    0    0  0.00000000000E+00  0.00000000000E+00  0.45593999997E+02  0.45594000000E+02  0.51100000000E-03 0.  1.
         11   -1    0    0    0    0 -0.00000000000E+00 -0.00000000000E+00 -0.45593999997E+02  0.45594000000E+02  0.51100000000E-03 0. -1.
    9900012    2    1    2    0    0 -0.37154110768E+01 -0.25295786632E+02  0.37086821869E+02  0.46142318108E+02  0.10000003162E+02 0.  0.
         12    1    1    2    0    0  0.37154110768E+01  0.25295786632E+02 -0.37086821869E+02  0.45045681892E+02  0.00000000000E+00 0. -1.
         11    1    3    3    0    0  0.34959295092E+00 -0.58141440757E+01  0.51778784804E+01  0.77933890178E+01  0.51100000000E-03 0. -1.
        -11    1    3    3    0    0 -0.56202379350E+01 -0.18224783108E+02  0.27075207026E+02  0.33117920067E+02  0.51100000000E-03 0.  1.
        -12    1    3    3    0    0  0.15552339073E+01 -0.12568594478E+01  0.48337363625E+01  0.52310090232E+01  0.00000000000E+00 0.  1.
</event>
<event>
 7    1  0.1503436E-008  0.4614232E+02  0.7816164E-02  0.1320468E+00
        -11   -1    0    0    0    0  0.00000000000E+00  0.00000000000E+00  0.45593999997E+02  0.45594000000E+02  0.51100000000E-03 0. -1.
         11   -1    0    0    0    0 -0.00000000000E+00 -0.00000000000E+00 -0.45593999997E+02  0.45594000000E+02  0.51100000000E-03 0.  1.
    9900012    2    1    2    0    0  0.13797827125E+02 -0.29464213235E+02 -0.31154352955E+02  0.46142316489E+02  0.99999884034E+01 0.  0.
         12    1    1    2    0    0 -0.13797827125E+02  0.29464213235E+02  0.31154352955E+02  0.45045683511E+02  0.00000000000E+00 0. -1.
         11    1    3    3    0    0  0.30977803982E+01 -0.15814992310E+02 -0.14049201161E+02  0.21379669752E+02  0.51100000000E-03 0. -1.
        -11    1    3    3    0    0  0.10213284580E+02 -0.13801479781E+02 -0.17128128836E+02  0.24252109676E+02  0.51100000000E-03 0.  1.
         12    1    3    3    0    0  0.48676214664E+00  0.15225885697E+00  0.22977041650E-01  0.51053706170E+00  0.00000000000E+00 0. -1.
</event>
<event>
 7    1  0.1503436E-008  0.4614232E+02  0.7816164E-02  0.1320468E+00
        -11   -1    0    0    0    0  0.00000000000E+00  0.00000000000E+00  0.45593999997E+02  0.45594000000E+02  0.51100000000E-03 0. -1.
         11   -1    0    0    0    0 -0.00000000000E+00 -0.00000000000E+00 -0.45593999997E+02  0.45594000000E+02  0.51100000000E-03 0.  1.
    9900012    2    1    2    0    0 -0.27574959881E+02 -0.91501838662E+01 -0.34423962517E+02  0.46142317936E+02  0.10000001597E+02 0.  0.
         12    1    1    2    0    0  0.27574959881E+02  0.91501838662E+01  0.34423962517E+02  0.45045682064E+02  0.00000000000E+00 0. -1.
         11    1    3    3    0    0 -0.14554856760E+01 -0.73646818429E+00 -0.41666366481E+00  0.16835773847E+01  0.51100000000E-03 0. -1.
        -11    1    3    3    0    0 -0.10712372847E+02 -0.45931196452E+01 -0.85396515592E+01  0.14449129008E+02  0.51100000000E-03 0.  1.
        -12    1    3    3    0    0 -0.15407101358E+02 -0.38205960367E+01 -0.25467647293E+02  0.30009611543E+02  0.00000000000E+00 0.  1.
</event>
<event>
 7    1  0.1503436E-008  0.4614232E+02  0.7816164E-02  0.1320468E+00
        -11   -1    0    0    0    0  0.00000000000E+00  0.00000000000E+00  0.45593999997E+02  0.45594000000E+02  0.51100000000E-03 0. -1.
         11   -1    0    0    0    0 -0.00000000000E+00 -0.00000000000E+00 -0.45593999997E+02  0.45594000000E+02  0.51100000000E-03 0.  1.
    9900012    2    1    2    0    0 -0.20071210083E+02 -0.16851865244E+02 -0.36637066581E+02  0.46142317809E+02  0.10000000435E+02 0.  0.
         12    1    1    2    0    0  0.20071210083E+02  0.16851865244E+02  0.36637066581E+02  0.45045682191E+02  0.00000000000E+00 0. -1.
         11    1    3    3    0    0 -0.70928965651E+00 -0.34318438710E+01 -0.76188447742E+01  0.83861457253E+01  0.51100000000E-03 0. -1.
        -11    1    3    3    0    0 -0.19627825697E+02 -0.13395709626E+02 -0.28994119633E+02  0.37488072123E+02  0.51100000000E-03 0.  1.
         12    1    3    3    0    0  0.26590527046E+00 -0.24311747813E-01 -0.24102173917E-01  0.26809996033E+00  0.00000000000E+00 0. -1.
</event>
<event>
 7    1  0.1503436E-008  0.4614232E+02  0.7816164E-02  0.1320468E+00
        -11   -1    0    0    0    0  0.00000000000E+00  0.00000000000E+00  0.45593999997E+02  0.45594000000E+02  0.51100000000E-03 0. -1.
         11   -1    0    0    0    0 -0.00000000000E+00 -0.00000000000E+00 -0.45593999997E+02  0.45594000000E+02  0.51100000000E-03 0.  1.
    9900012    2    1    2    0    0 -0.38236831665E+02 -0.20615047272E+02 -0.11919651627E+02  0.46142316913E+02  0.99999922685E+01 0.  0.
         12    1    1    2    0    0  0.38236831665E+02  0.20615047272E+02  0.11919651627E+02  0.45045683087E+02  0.00000000000E+00 0. -1.
         11    1    3    3    0    0 -0.66350265263E+01 -0.29324196681E+01 -0.56134283141E+01  0.91724173374E+01  0.51100000000E-03 0. -1.
        -11    1    3    3    0    0 -0.25805304202E+02 -0.12628559614E+02 -0.52891468544E+01  0.29212485646E+02  0.51100000000E-03 0.  1.
         12    1    3    3    0    0 -0.57965009367E+01 -0.50540679900E+01 -0.10170764589E+01  0.77574139299E+01  0.00000000000E+00 0. -1.
</event>
<event>
 7    1  0.1503436E-008  0.4614232E+02  0.7816164E-02  0.1320468E+00
        -11   -1    0    0    0    0  0.00000000000E+00  0.00000000000E+00  0.45593999997E+02  0.45594000000E+02  0.51100000000E-03 0.  1.
         11   -1    0    0    0    0 -0.00000000000E+00 -0.00000000000E+00 -0.45593999997E+02  0.45594000000E+02  0.51100000000E-03 0. -1.
    9900012    2    1    2    0    0  0.13440307697E+02 -0.42768118335E+02  0.43999195788E+01  0.46142321969E+02  0.10000038375E+02 0.  0.
         12    1    1    2    0    0 -0.13440307697E+02  0.42768118335E+02 -0.43999195788E+01  0.45045678031E+02  0.00000000000E+00 0. -1.
         11    1    3    3    0    0  0.73907652432E+01 -0.18543582101E+02 -0.58371349290E+00  0.19970692770E+02  0.51100000000E-03 0.  1.
        -11    1    3    3    0    0  0.17951514470E+01 -0.15732465850E+02  0.98215038300E+00  0.15864982511E+02  0.51100000000E-03 0. -1.
         12    1    3    3    0    0  0.42543910064E+01 -0.84920703849E+01  0.40014826887E+01  0.10306646689E+02  0.00000000000E+00 0. -1.
</event>
<event>
 7    1  0.1503436E-008  0.4614232E+02  0.7816164E-02  0.1320468E+00
        -11   -1    0    0    0    0  0.00000000000E+00  0.00000000000E+00  0.45593999997E+02  0.45594000000E+02  0.51100000000E-03 0.  1.
         11   -1    0    0    0    0 -0.00000000000E+00 -0.00000000000E+00 -0.45593999997E+02  0.45594000000E+02  0.51100000000E-03 0. -1.
    9900012    2    1    2    0    0  0.37360709750E+02 -0.25147727010E+02  0.93949983320E+00  0.46142318001E+02  0.10000002188E+02 0.  0.
         12    1    1    2    0    0 -0.37360709750E+02  0.25147727010E+02 -0.93949983320E+00  0.45045681999E+02  0.00000000000E+00 0. -1.
         11    1    3    3    0    0  0.17132295843E+02 -0.77679202751E+01 -0.30378698821E+01  0.19054784175E+02  0.51100000000E-03 0. -1.
        -11    1    3    3    0    0  0.16653399747E+02 -0.14012578427E+02  0.22450626705E+01  0.21879862521E+02  0.51100000000E-03 0.  1.
         12    1    3    3    0    0  0.35750141602E+01 -0.33672283084E+01  0.17323070448E+01  0.52076713053E+01  0.00000000000E+00 0. -1.
</event>
<event>
 7    1  0.1503436E-008  0.4614232E+02  0.7816164E-02  0.1320468E+00
        -11   -1    0    0    0    0  0.00000000000E+00  0.00000000000E+00  0.45593999997E+02  0.45594000000E+02  0.51100000000E-03 0.  1.
         11   -1    0    0    0    0 -0.00000000000E+00 -0.00000000000E+00 -0.45593999997E+02  0.45594000000E+02  0.51100000000E-03 0. -1.
    9900012    2    1    2    0    0  0.31306247015E+02 -0.12909519603E+02  0.29704827603E+02  0.46142316728E+02  0.99999905771E+01 0.  0.
         12    1    1    2    0    0 -0.31306247015E+02  0.12909519603E+02 -0.29704827603E+02  0.45045683272E+02  0.00000000000E+00 0. -1.
         11    1    3    3    0    0  0.16612676570E+02 -0.26784042120E+01  0.16098070899E+02  0.23287394850E+02  0.51100000000E-03 0. -1.
        -11    1    3    3    0    0  0.10718968663E+02 -0.51019904306E+01  0.89942763511E+01  0.14893743750E+02  0.51100000000E-03 0.  1.
         12    1    3    3    0    0  0.39746017816E+01 -0.51291249602E+01  0.46124803531E+01  0.79611781281E+01  0.00000000000E+00 0. -1.
</event>
<event>
 7    1  0.1503436E-008  0.4614232E+02  0.7816164E-02  0.1320468E+00
        -11   -1    0    0    0    0  0.00000000000E+00  0.00000000000E+00  0.45593999997E+02  0.45594000000E+02  0.51100000000E-03 0.  1.
         11   -1    0    0    0    0 -0.00000000000E+00 -0.00000000000E+00 -0.45593999997E+02  0.45594000000E+02  0.51100000000E-03 0. -1.
    9900012    2    1    2    0    0  0.43803196663E+02  0.79311901827E+01  0.68912748678E+01  0.46142317799E+02  0.10000000349E+02 0.  0.
         12    1    1    2    0    0 -0.43803196663E+02 -0.79311901827E+01 -0.68912748678E+01  0.45045682201E+02  0.00000000000E+00 0. -1.
         11    1    3    3    0    0  0.97817857252E+01 -0.55304256748E+00  0.38534559552E+01  0.10527977542E+02  0.51100000000E-03 0. -1.
        -11    1    3    3    0    0  0.99527601274E+01  0.31251081263E+01 -0.15094230046E+01  0.10540497760E+02  0.51100000000E-03 0.  1.
         12    1    3    3    0    0  0.24068650810E+02  0.53591246238E+01  0.45472419172E+01  0.25073842498E+02  0.00000000000E+00 0. -1.
</event>
<event>
 7    1  0.1503436E-008  0.4614232E+02  0.7816164E-02  0.1320468E+00
        -11   -1    0    0    0    0  0.00000000000E+00  0.00000000000E+00  0.45593999997E+02  0.45594000000E+02  0.51100000000E-03 0.  1.
         11   -1    0    0    0    0 -0.00000000000E+00 -0.00000000000E+00 -0.45593999997E+02  0.45594000000E+02  0.51100000000E-03 0. -1.
    9900012    2    1    2    0    0 -0.66330548840E+01  0.44331942335E+02  0.44491543003E+01  0.46142317607E+02  0.99999985927E+01 0.  0.
         12    1    1    2    0    0  0.66330548840E+01 -0.44331942335E+02 -0.44491543003E+01  0.45045682393E+02  0.00000000000E+00 0. -1.
         11    1    3    3    0    0 -0.74340242729E+00  0.81537558239E+01 -0.25725688974E+01  0.85822195380E+01  0.51100000000E-03 0.  1.
        -11    1    3    3    0    0 -0.85896310516E+00  0.18353129796E+02  0.37497039005E+01  0.18751945779E+02  0.51100000000E-03 0. -1.
         12    1    3    3    0    0 -0.50306893516E+01  0.17825056715E+02  0.32720192973E+01  0.18808152289E+02  0.00000000000E+00 0. -1.
</event>
<event>
 7    1  0.1503436E-008  0.4614232E+02  0.7816164E-02  0.1320468E+00
        -11   -1    0    0    0    0  0.00000000000E+00  0.00000000000E+00  0.45593999997E+02  0.45594000000E+02  0.51100000000E-03 0.  1.
         11   -1    0    0    0    0 -0.00000000000E+00 -0.00000000000E+00 -0.45593999997E+02  0.45594000000E+02  0.51100000000E-03 0. -1.
    9900012    2    1    2    0    0 -0.44174508990E+02  0.79964274358E+01 -0.37125950936E+01  0.46142318092E+02  0.10000003017E+02 0.  0.
         12    1    1    2    0    0  0.44174508990E+02 -0.79964274358E+01  0.37125950936E+01  0.45045681908E+02  0.00000000000E+00 0. -1.
         11    1    3    3    0    0 -0.28461136816E+02  0.64868095109E+01 -0.20239049469E+01  0.29261086753E+02  0.51100000000E-03 0.  1.
        -11    1    3    3    0    0 -0.55740680063E+01  0.30203662680E+01 -0.19303445445E+01  0.66271469618E+01  0.51100000000E-03 0. -1.
        -12    1    3    3    0    0 -0.10139304168E+02 -0.15107483431E+01  0.24165439790E+00  0.10254084377E+02  0.00000000000E+00 0.  1.
</event>
<event>
 7    1  0.1503436E-008  0.4614230E+02  0.7816164E-02  0.1320468E+00
        -11   -1    0    0    0    0  0.00000000000E+00  0.00000000000E+00  0.45593999997E+02  0.45594000000E+02  0.51100000000E-03 0.  1.
         11   -1    0    0    0    0 -0.00000000000E+00 -0.00000000000E+00 -0.45593999997E+02  0.45594000000E+02  0.51100000000E-03 0. -1.
    9900012    2    1    2    0    0  0.13051539481E+02  0.22853988611E+02  0.36557724804E+02  0.46142304078E+02  0.99998752262E+01 0.  0.
         12    1    1    2    0    0 -0.13051539481E+02 -0.22853988611E+02 -0.36557724804E+02  0.45045695922E+02  0.00000000000E+00 0. -1.
         11    1    3    3    0    0  0.24284857885E+01  0.32725630904E+01  0.12938111933E+02  0.13564731957E+02  0.51100000000E-03 0. -1.
        -11    1    3    3    0    0  0.69974999839E+01  0.14756496940E+02  0.18354954747E+02  0.24568751942E+02  0.51100000000E-03 0.  1.
         12    1    3    3    0    0  0.36255537091E+01  0.48249285802E+01  0.52646581240E+01  0.80088201793E+01  0.00000000000E+00 0. -1.
</event>
<event>
 7    1  0.1503436E-008  0.4614232E+02  0.7816164E-02  0.1320468E+00
        -11   -1    0    0    0    0  0.00000000000E+00  0.00000000000E+00  0.45593999997E+02  0.45594000000E+02  0.51100000000E-03 0.  1.
         11   -1    0    0    0    0 -0.00000000000E+00 -0.00000000000E+00 -0.45593999997E+02  0.45594000000E+02  0.51100000000E-03 0. -1.
    9900012    2    1    2    0    0  0.27221340148E+02 -0.17658558616E+02  0.31245600353E+02  0.46142316597E+02  0.99999893884E+01 0.  0.
         12    1    1    2    0    0 -0.27221340148E+02  0.17658558616E+02 -0.31245600353E+02  0.45045683403E+02  0.00000000000E+00 0. -1.
         11    1    3    3    0    0  0.25665968794E+01 -0.12457743371E+01  0.76846804606E+01  0.81971755674E+01  0.51100000000E-03 0. -1.
        -11    1    3    3    0    0  0.17749151445E+02 -0.13089501268E+02  0.18179460222E+02  0.28580766167E+02  0.51100000000E-03 0.  1.
         12    1    3    3    0    0  0.69055918235E+01 -0.33232830111E+01  0.53814596696E+01  0.93643748633E+01  0.00000000000E+00 0. -1.
</event>
<event>
 7    1  0.1503436E-008  0.4614232E+02  0.7816164E-02  0.1320468E+00
        -11   -1    0    0    0    0  0.00000000000E+00  0.00000000000E+00  0.45593999997E+02  0.45594000000E+02  0.51100000000E-03 0.  1.
         11   -1    0    0    0    0 -0.00000000000E+00 -0.00000000000E+00 -0.45593999997E+02  0.45594000000E+02  0.51100000000E-03 0. -1.
    9900012    2    1    2    0    0  0.22665537486E+02 -0.35511948107E+02  0.15946426603E+02  0.46142316862E+02  0.99999918054E+01 0.  0.
         12    1    1    2    0    0 -0.22665537486E+02  0.35511948107E+02 -0.15946426603E+02  0.45045683138E+02  0.00000000000E+00 0. -1.
         11    1    3    3    0    0  0.34470431370E+01 -0.38918669335E+01 -0.36371474200E+00  0.52116238632E+01  0.51100000000E-03 0. -1.
        -11    1    3    3    0    0  0.19395522456E+02 -0.31800236290E+02  0.16023534204E+02  0.40548674061E+02  0.51100000000E-03 0.  1.
        -12    1    3    3    0    0 -0.17702810665E+00  0.18015511584E+00  0.28660714089E+00  0.38201893869E+00  0.00000000000E+00 0.  1.
</event>
<event>
 7    1  0.1503436E-008  0.4614232E+02  0.7816164E-02  0.1320468E+00
        -11   -1    0    0    0    0  0.00000000000E+00  0.00000000000E+00  0.45593999997E+02  0.45594000000E+02  0.51100000000E-03 0. -1.
         11   -1    0    0    0    0 -0.00000000000E+00 -0.00000000000E+00 -0.45593999997E+02  0.45594000000E+02  0.51100000000E-03 0.  1.
    9900012    2    1    2    0    0 -0.24764208696E+02 -0.29208649913E+02  0.23721345193E+02  0.46142317856E+02  0.10000000863E+02 0.  0.
         12    1    1    2    0    0  0.24764208696E+02  0.29208649913E+02 -0.23721345193E+02  0.45045682144E+02  0.00000000000E+00 0. -1.
         11    1    3    3    0    0 -0.43723878485E+01 -0.93048699811E+01  0.96659204963E+01  0.14111286269E+02  0.51100000000E-03 0. -1.
        -11    1    3    3    0    0 -0.20350247932E+02 -0.18998860399E+02  0.13312879384E+02  0.30859715571E+02  0.51100000000E-03 0.  1.
        -12    1    3    3    0    0 -0.41572915780E-01 -0.90491953314E+00  0.74254531214E+00  0.11713160160E+01  0.00000000000E+00 0.  1.
</event>
<event>
 7    1  0.1503436E-008  0.4614232E+02  0.7816164E-02  0.1320468E+00
        -11   -1    0    0    0    0  0.00000000000E+00  0.00000000000E+00  0.45593999997E+02  0.45594000000E+02  0.51100000000E-03 0.  1.
         11   -1    0    0    0    0 -0.00000000000E+00 -0.00000000000E+00 -0.45593999997E+02  0.45594000000E+02  0.51100000000E-03 0. -1.
    9900012    2    1    2    0    0  0.30930108832E+02  0.16902602197E+02  0.28048955784E+02  0.46142317477E+02  0.99999974101E+01 0.  0.
         12    1    1    2    0    0 -0.30930108832E+02 -0.16902602197E+02 -0.28048955784E+02  0.45045682523E+02  0.00000000000E+00 0. -1.
         11    1    3    3    0    0  0.88139656232E+01  0.11334757639E+01  0.89545508007E+01  0.12615654467E+02  0.51100000000E-03 0. -1.
        -11    1    3    3    0    0  0.16420626446E+02  0.10064625760E+02  0.15399113522E+02  0.24659001644E+02  0.51100000000E-03 0.  1.
         12    1    3    3    0    0  0.56955167628E+01  0.57045006733E+01  0.36952914615E+01  0.88676613666E+01  0.00000000000E+00 0. -1.
</event>
<event>
 7    1  0.1503436E-008  0.4614232E+02  0.7816164E-02  0.1320468E+00
        -11   -1    0    0    0    0  0.00000000000E+00  0.00000000000E+00  0.45593999997E+02  0.45594000000E+02  0.51100000000E-03 0.  1.
         11   -1    0    0    0    0 -0.00000000000E+00 -0.00000000000E+00 -0.45593999997E+02  0.45594000000E+02  0.51100000000E-03 0. -1.
    9900012    2    1    2    0    0 -0.86589289145E+01 -0.24413623165E+02  0.36852560534E+02  0.46142320253E+02  0.10000022719E+02 0.  0.
         12    1    1    2    0    0  0.86589289145E+01  0.24413623165E+02 -0.36852560534E+02  0.45045679747E+02  0.00000000000E+00 0. -1.
         11    1    3    3    0    0 -0.55887355183E+01 -0.18922458505E+02  0.26228400372E+02  0.32821066206E+02  0.51100000000E-03 0. -1.
        -11    1    3    3    0    0  0.33059117597E+00 -0.29277947229E+01  0.16238268375E+01  0.33642363657E+01  0.51100000000E-03 0.  1.
        -12    1    3    3    0    0 -0.34007845722E+01 -0.25633699368E+01  0.90003333246E+01  0.99570176807E+01  0.00000000000E+00 0.  1.
</event>
<event>
 7    1  0.1503436E-008  0.4614232E+02  0.7816164E-02  0.1320468E+00
        -11   -1    0    0    0    0  0.00000000000E+00  0.00000000000E+00  0.45593999997E+02  0.45594000000E+02  0.51100000000E-03 0.  1.
         11   -1    0    0    0    0 -0.00000000000E+00 -0.00000000000E+00 -0.45593999997E+02  0.45594000000E+02  0.51100000000E-03 0. -1.
    9900012    2    1    2    0    0 -0.23122267755E+02  0.30311723935E+02  0.23993198951E+02  0.46142317966E+02  0.10000001864E+02 0.  0.
         12    1    1    2    0    0  0.23122267755E+02 -0.30311723935E+02 -0.23993198951E+02  0.45045682034E+02  0.00000000000E+00 0. -1.
         11    1    3    3    0    0 -0.72728613013E+01  0.16235677183E+02  0.12042610168E+02  0.21482927757E+02  0.51100000000E-03 0. -1.
        -11    1    3    3    0    0 -0.64263685972E+01  0.33712578453E+01  0.32321220497E+01  0.79441932260E+01  0.51100000000E-03 0.  1.
        -12    1    3    3    0    0 -0.94230378566E+01  0.10704788907E+02  0.87184667333E+01  0.16715196982E+02  0.00000000000E+00 0.  1.
</event>
<event>
 7    1  0.1503436E-008  0.4614232E+02  0.7816164E-02  0.1320468E+00
        -11   -1    0    0    0    0  0.00000000000E+00  0.00000000000E+00  0.45593999997E+02  0.45594000000E+02  0.51100000000E-03 0.  1.
         11   -1    0    0    0    0 -0.00000000000E+00 -0.00000000000E+00 -0.45593999997E+02  0.45594000000E+02  0.51100000000E-03 0. -1.
    9900012    2    1    2    0    0  0.17028314810E+02 -0.66670360170E+01  0.41166739991E+02  0.46142319230E+02  0.10000013397E+02 0.  0.
         12    1    1    2    0    0 -0.17028314810E+02  0.66670360170E+01 -0.41166739991E+02  0.45045680770E+02  0.00000000000E+00 0. -1.
         11    1    3    3    0    0  0.85414457548E+01 -0.56543416548E+01  0.13474883061E+02  0.16926321186E+02  0.51100000000E-03 0. -1.
        -11    1    3    3    0    0  0.74638215950E+01 -0.21534006067E+01  0.23670245197E+02  0.24912371925E+02  0.51100000000E-03 0.  1.
        -12    1    3    3    0    0  0.10230474598E+01  0.11407062446E+01  0.40216117334E+01  0.43036261194E+01  0.00000000000E+00 0.  1.
</event>
<event>
 7    1  0.1503436E-008  0.4614232E+02  0.7816164E-02  0.1320468E+00
        -11   -1    0    0    0    0  0.00000000000E+00  0.00000000000E+00  0.45593999997E+02  0.45594000000E+02  0.51100000000E-03 0. -1.
         11   -1    0    0    0    0 -0.00000000000E+00 -0.00000000000E+00 -0.45593999997E+02  0.45594000000E+02  0.51100000000E-03 0.  1.
    9900012    2    1    2    0    0  0.29639020393E+01  0.44797028684E+02 -0.36817111529E+01  0.46142317729E+02  0.99999997063E+01 0.  0.
         12    1    1    2    0    0 -0.29639020393E+01 -0.44797028684E+02  0.36817111529E+01  0.45045682271E+02  0.00000000000E+00 0. -1.
         11    1    3    3    0    0  0.15231385702E+01  0.16402190588E+02  0.18661206863E+01  0.16578124558E+02  0.51100000000E-03 0. -1.
        -11    1    3    3    0    0  0.31344298842E+01  0.10347454452E+02 -0.88823099472E+00  0.10848198878E+02  0.51100000000E-03 0.  1.
         12    1    3    3    0    0 -0.16936664150E+01  0.18047383645E+02 -0.46596008446E+01  0.18715994293E+02  0.00000000000E+00 0. -1.
</event>
<event>
 7    1  0.1503436E-008  0.4614232E+02  0.7816164E-02  0.1320468E+00
        -11   -1    0    0    0    0  0.00000000000E+00  0.00000000000E+00  0.45593999997E+02  0.45594000000E+02  0.51100000000E-03 0.  1.
         11   -1    0    0    0    0 -0.00000000000E+00 -0.00000000000E+00 -0.45593999997E+02  0.45594000000E+02  0.51100000000E-03 0. -1.
    9900012    2    1    2    0    0 -0.42680558898E+00 -0.76932337411E+00  0.45037089112E+02  0.46142318552E+02  0.10000007210E+02 0.  0.
         12    1    1    2    0    0  0.42680558898E+00  0.76932337411E+00 -0.45037089112E+02  0.45045681448E+02  0.00000000000E+00 0. -1.
         11    1    3    3    0    0 -0.64731693292E+00  0.18411794539E+01  0.26684132809E+01  0.33059628993E+01  0.51100000000E-03 0. -1.
        -11    1    3    3    0    0 -0.18479322278E+01 -0.23525130328E+01  0.11031334275E+02  0.11429764093E+02  0.51100000000E-03 0.  1.
         12    1    3    3    0    0  0.20684435717E+01 -0.25798979521E+00  0.31337341556E+02  0.31406591559E+02  0.00000000000E+00 0. -1.
</event>
<event>
 7    1  0.1503436E-008  0.4614232E+02  0.7816164E-02  0.1320468E+00
        -11   -1    0    0    0    0  0.00000000000E+00  0.00000000000E+00  0.45593999997E+02  0.45594000000E+02  0.51100000000E-03 0. -1.
         11   -1    0    0    0    0 -0.00000000000E+00 -0.00000000000E+00 -0.45593999997E+02  0.45594000000E+02  0.51100000000E-03 0.  1.
    9900012    2    1    2    0    0  0.35990931483E+02 -0.26238231638E+02 -0.67321228237E+01  0.46142318451E+02  0.10000006291E+02 0.  0.
         12    1    1    2    0    0 -0.35990931483E+02  0.26238231638E+02  0.67321228237E+01  0.45045681549E+02  0.00000000000E+00 0. -1.
         11    1    3    3    0    0  0.12545139144E+02 -0.13427484873E+02 -0.20127553299E+01  0.18485914920E+02  0.51100000000E-03 0. -1.
        -11    1    3    3    0    0  0.75253572466E+01 -0.43562695885E+01 -0.41159803470E+01  0.96202588787E+01  0.51100000000E-03 0.  1.
        -12    1    3    3    0    0  0.15920435093E+02 -0.84544771767E+01 -0.60338714692E+00  0.18036144652E+02  0.00000000000E+00 0.  1.
</event>
<event>
 7    1  0.1503436E-008  0.4614232E+02  0.7816164E-02  0.1320468E+00
        -11   -1    0    0    0    0  0.00000000000E+00  0.00000000000E+00  0.45593999997E+02  0.45594000000E+02  0.51100000000E-03 0.  1.
         11   -1    0    0    0    0 -0.00000000000E+00 -0.00000000000E+00 -0.45593999997E+02  0.45594000000E+02  0.51100000000E-03 0. -1.
    9900012    2    1    2    0    0  0.44713670216E+01 -0.59333118070E+01  0.44428775788E+02  0.46142318408E+02  0.10000005900E+02 0.  0.
         12    1    1    2    0    0 -0.44713670216E+01  0.59333118070E+01 -0.44428775788E+02  0.45045681592E+02  0.00000000000E+00 0. -1.
         11    1    3    3    0    0  0.65913352403E+01 -0.44827822170E+01  0.22131691883E+02  0.23523452606E+02  0.51100000000E-03 0. -1.
        -11    1    3    3    0    0 -0.17530451606E+00 -0.81803432870E+00  0.15457446135E+02  0.15480069545E+02  0.51100000000E-03 0.  1.
         12    1    3    3    0    0 -0.19446637027E+01 -0.63249526137E+00  0.68396377699E+01  0.71387962568E+01  0.00000000000E+00 0. -1.
</event>
<event>
 7    1  0.1503436E-008  0.4614232E+02  0.7816164E-02  0.1320468E+00
        -11   -1    0    0    0    0  0.00000000000E+00  0.00000000000E+00  0.45593999997E+02  0.45594000000E+02  0.51100000000E-03 0.  1.
         11   -1    0    0    0    0 -0.00000000000E+00 -0.00000000000E+00 -0.45593999997E+02  0.45594000000E+02  0.51100000000E-03 0. -1.
    9900012    2    1    2    0    0 -0.35680774553E+02 -0.58727538553E+01  0.26860875954E+02  0.46142316882E+02  0.99999919809E+01 0.  0.
         12    1    1    2    0    0  0.35680774553E+02  0.58727538553E+01 -0.26860875954E+02  0.45045683118E+02  0.00000000000E+00 0. -1.
         11    1    3    3    0    0 -0.24051051980E+02 -0.46137868897E+01  0.16567993388E+02  0.29567525023E+02  0.51100000000E-03 0.  1.
        -11    1    3    3    0    0 -0.16419737092E+00  0.12447669234E+01  0.96253944052E+00  0.15820518026E+01  0.51100000000E-03 0. -1.
         12    1    3    3    0    0 -0.11465525202E+02 -0.25037338890E+01  0.93303431260E+01  0.14992740056E+02  0.00000000000E+00 0. -1.
</event>
<event>
 7    1  0.1503436E-008  0.4614232E+02  0.7816164E-02  0.1320468E+00
        -11   -1    0    0    0    0  0.00000000000E+00  0.00000000000E+00  0.45593999997E+02  0.45594000000E+02  0.51100000000E-03 0.  1.
         11   -1    0    0    0    0 -0.00000000000E+00 -0.00000000000E+00 -0.45593999997E+02  0.45594000000E+02  0.51100000000E-03 0. -1.
    9900012    2    1    2    0    0  0.14445818654E+02 -0.20521503335E+02  0.37407216087E+02  0.46142316621E+02  0.99999896045E+01 0.  0.
         12    1    1    2    0    0 -0.14445818654E+02  0.20521503335E+02 -0.37407216087E+02  0.45045683379E+02  0.00000000000E+00 0. -1.
         11    1    3    3    0    0  0.83841415147E+01 -0.87964927322E+01  0.10152413334E+02  0.15834885857E+02  0.51100000000E-03 0. -1.
        -11    1    3    3    0    0  0.36856880997E+01 -0.76072490030E+01  0.16170755118E+02  0.18246858785E+02  0.51100000000E-03 0.  1.
         12    1    3    3    0    0  0.23759890393E+01 -0.41177615997E+01  0.11084047635E+02  0.12060571980E+02  0.00000000000E+00 0. -1.
</event>
<event>
 7    1  0.1503436E-008  0.4614233E+02  0.7816164E-02  0.1320468E+00
        -11   -1    0    0    0    0  0.00000000000E+00  0.00000000000E+00  0.45593999997E+02  0.45594000000E+02  0.51100000000E-03 0.  1.
         11   -1    0    0    0    0 -0.00000000000E+00 -0.00000000000E+00 -0.45593999997E+02  0.45594000000E+02  0.51100000000E-03 0. -1.
    9900012    2    1    2    0    0 -0.18498903362E+02 -0.39180460975E+02  0.12320505178E+02  0.46142325450E+02  0.10000070115E+02 0.  0.
         12    1    1    2    0    0  0.18498903362E+02  0.39180460975E+02 -0.12320505178E+02  0.45045674550E+02  0.00000000000E+00 0. -1.
         11    1    3    3    0    0 -0.11590506210E+01 -0.63906671727E+00 -0.76877193611E-01  0.13257884353E+01  0.51100000000E-03 0. -1.
        -11    1    3    3    0    0 -0.62398463327E+01 -0.20048498506E+02  0.27057534188E+01  0.21170712705E+02  0.51100000000E-03 0.  1.
        -12    1    3    3    0    0 -0.11100006409E+02 -0.18492895751E+02  0.96916289529E+01  0.23645824310E+02  0.00000000000E+00 0.  1.
</event>
<event>
 7    1  0.1503436E-008  0.4614232E+02  0.7816164E-02  0.1320468E+00
        -11   -1    0    0    0    0  0.00000000000E+00  0.00000000000E+00  0.45593999997E+02  0.45594000000E+02  0.51100000000E-03 0. -1.
         11   -1    0    0    0    0 -0.00000000000E+00 -0.00000000000E+00 -0.45593999997E+02  0.45594000000E+02  0.51100000000E-03 0.  1.
    9900012    2    1    2    0    0  0.11291781111E+02  0.24871820526E+02 -0.35819011899E+02  0.46142318849E+02  0.10000009923E+02 0.  0.
         12    1    1    2    0    0 -0.11291781111E+02 -0.24871820526E+02  0.35819011899E+02  0.45045681151E+02  0.00000000000E+00 0. -1.
         11    1    3    3    0    0  0.14695984732E+01  0.11436294274E+02 -0.13397128147E+02  0.17675734475E+02  0.51100000000E-03 0. -1.
        -11    1    3    3    0    0  0.88819520315E+01  0.95166040221E+01 -0.19666940835E+02  0.23584812615E+02  0.51100000000E-03 0.  1.
         12    1    3    3    0    0  0.94023060650E+00  0.39189222296E+01 -0.27549429168E+01  0.48817717593E+01  0.00000000000E+00 0. -1.
</event>
<event>
 7    1  0.1503436E-008  0.4614232E+02  0.7816164E-02  0.1320468E+00
        -11   -1    0    0    0    0  0.00000000000E+00  0.00000000000E+00  0.45593999997E+02  0.45594000000E+02  0.51100000000E-03 0.  1.
         11   -1    0    0    0    0 -0.00000000000E+00 -0.00000000000E+00 -0.45593999997E+02  0.45594000000E+02  0.51100000000E-03 0. -1.
    9900012    2    1    2    0    0  0.24375476476E+02 -0.24064375606E+02  0.29254999108E+02  0.46142323187E+02  0.10000049478E+02 0.  0.
         12    1    1    2    0    0 -0.24375476476E+02  0.24064375606E+02 -0.29254999108E+02  0.45045676813E+02  0.00000000000E+00 0. -1.
         11    1    3    3    0    0  0.40700102402E+01 -0.73124072898E+01  0.59420638140E+01  0.10263742317E+02  0.51100000000E-03 0. -1.
        -11    1    3    3    0    0  0.10215159573E+02 -0.11981853127E+02  0.16477033772E+02  0.22790500908E+02  0.51100000000E-03 0.  1.
         12    1    3    3    0    0  0.10090306663E+02 -0.47701151894E+01  0.68359015223E+01  0.13088079962E+02  0.00000000000E+00 0. -1.
</event>
<event>
 7    1  0.1503436E-008  0.4614232E+02  0.7816164E-02  0.1320468E+00
        -11   -1    0    0    0    0  0.00000000000E+00  0.00000000000E+00  0.45593999997E+02  0.45594000000E+02  0.51100000000E-03 0.  1.
         11   -1    0    0    0    0 -0.00000000000E+00 -0.00000000000E+00 -0.45593999997E+02  0.45594000000E+02  0.51100000000E-03 0. -1.
    9900012    2    1    2    0    0 -0.26993314752E+02 -0.29958674899E+02  0.20073670610E+02  0.46142317690E+02  0.99999993496E+01 0.  0.
         12    1    1    2    0    0  0.26993314752E+02  0.29958674899E+02 -0.20073670610E+02  0.45045682310E+02  0.00000000000E+00 0. -1.
         11    1    3    3    0    0 -0.85305009715E+01 -0.14222476579E+02  0.10104603022E+02  0.19420383348E+02  0.51100000000E-03 0. -1.
        -11    1    3    3    0    0 -0.12987547345E+02 -0.13324745065E+02  0.89697369081E+01  0.20656267755E+02  0.51100000000E-03 0.  1.
         12    1    3    3    0    0 -0.54752664355E+01 -0.24114532547E+01  0.99933067950E+00  0.60656665871E+01  0.00000000000E+00 0. -1.
</event>
<event>
 7    1  0.1503436E-008  0.4614232E+02  0.7816164E-02  0.1320468E+00
        -11   -1    0    0    0    0  0.00000000000E+00  0.00000000000E+00  0.45593999997E+02  0.45594000000E+02  0.51100000000E-03 0.  1.
         11   -1    0    0    0    0 -0.00000000000E+00 -0.00000000000E+00 -0.45593999997E+02  0.45594000000E+02  0.51100000000E-03 0. -1.
    9900012    2    1    2    0    0 -0.23525017251E+02  0.23358614048E+02  0.30496923782E+02  0.46142316000E+02  0.99999839381E+01 0.  0.
         12    1    1    2    0    0  0.23525017251E+02 -0.23358614048E+02 -0.30496923782E+02  0.45045684000E+02  0.00000000000E+00 0. -1.
         11    1    3    3    0    0 -0.79039604739E+01  0.96833899546E+01  0.17240904112E+02  0.21295290724E+02  0.51100000000E-03 0. -1.
        -11    1    3    3    0    0 -0.12695954792E+02  0.11918190686E+02  0.12246212146E+02  0.21288500405E+02  0.51100000000E-03 0.  1.
         12    1    3    3    0    0 -0.29251019851E+01  0.17570334074E+01  0.10098075244E+01  0.35585248705E+01  0.00000000000E+00 0. -1.
</event>
<event>
 7    1  0.1503436E-008  0.4614232E+02  0.7816164E-02  0.1320468E+00
        -11   -1    0    0    0    0  0.00000000000E+00  0.00000000000E+00  0.45593999997E+02  0.45594000000E+02  0.51100000000E-03 0.  1.
         11   -1    0    0    0    0 -0.00000000000E+00 -0.00000000000E+00 -0.45593999997E+02  0.45594000000E+02  0.51100000000E-03 0. -1.
    9900012    2    1    2    0    0 -0.14713398337E+02  0.42475070721E+02  0.29151014201E+01  0.46142317192E+02  0.99999948080E+01 0.  0.
         12    1    1    2    0    0  0.14713398337E+02 -0.42475070721E+02 -0.29151014201E+01  0.45045682808E+02  0.00000000000E+00 0. -1.
         11    1    3    3    0    0 -0.13235801133E+02  0.41087043082E+02  0.35731954028E+01  0.43313961565E+02  0.51100000000E-03 0.  1.
        -11    1    3    3    0    0 -0.66957683140E+00  0.10024776045E+01 -0.12644653442E+01  0.17470453195E+01  0.51100000000E-03 0. -1.
         12    1    3    3    0    0 -0.80802037247E+00  0.38555003458E+00  0.60637136143E+00  0.10813103067E+01  0.00000000000E+00 0. -1.
</event>
<event>
 7    1  0.1503436E-008  0.4614232E+02  0.7816164E-02  0.1320468E+00
        -11   -1    0    0    0    0  0.00000000000E+00  0.00000000000E+00  0.45593999997E+02  0.45594000000E+02  0.51100000000E-03 0.  1.
         11   -1    0    0    0    0 -0.00000000000E+00 -0.00000000000E+00 -0.45593999997E+02  0.45594000000E+02  0.51100000000E-03 0. -1.
    9900012    2    1    2    0    0 -0.66827827108E+01 -0.26246494800E+02  0.35994102608E+02  0.46142317669E+02  0.99999991643E+01 0.  0.
         12    1    1    2    0    0  0.66827827108E+01  0.26246494800E+02 -0.35994102608E+02  0.45045682331E+02  0.00000000000E+00 0. -1.
         11    1    3    3    0    0 -0.83393390546E+01 -0.16912553190E+02  0.26503534575E+02  0.32527163671E+02  0.51100000000E-03 0. -1.
        -11    1    3    3    0    0 -0.22364729356E+00 -0.39298624344E+01  0.29113085217E+01  0.48958711620E+01  0.51100000000E-03 0.  1.
         12    1    3    3    0    0  0.18802036374E+01 -0.54040791758E+01  0.65792595114E+01  0.87192828360E+01  0.00000000000E+00 0. -1.
</event>
<event>
 7    1  0.1503436E-008  0.4614232E+02  0.7816164E-02  0.1320468E+00
        -11   -1    0    0    0    0  0.00000000000E+00  0.00000000000E+00  0.45593999997E+02  0.45594000000E+02  0.51100000000E-03 0. -1.
         11   -1    0    0    0    0 -0.00000000000E+00 -0.00000000000E+00 -0.45593999997E+02  0.45594000000E+02  0.51100000000E-03 0.  1.
    9900012    2    1    2    0    0  0.37993952250E+02  0.23915061790E+02 -0.36936594214E+01  0.46142315324E+02  0.99999777739E+01 0.  0.
         12    1    1    2    0    0 -0.37993952250E+02 -0.23915061790E+02  0.36936594214E+01  0.45045684676E+02  0.00000000000E+00 0. -1.
         11    1    3    3    0    0  0.42334124441E+01  0.48097575002E+01 -0.19252881537E+01  0.66904620819E+01  0.51100000000E-03 0. -1.
        -11    1    3    3    0    0  0.29122085188E+02  0.18546341017E+02 -0.28902785810E+01  0.34647024711E+02  0.51100000000E-03 0.  1.
        -12    1    3    3    0    0  0.46384546184E+01  0.55896327278E+00  0.11219073133E+01  0.48048285305E+01  0.00000000000E+00 0.  1.
</event>
<event>
 7    1  0.1503436E-008  0.4614232E+02  0.7816164E-02  0.1320468E+00
        -11   -1    0    0    0    0  0.00000000000E+00  0.00000000000E+00  0.45593999997E+02  0.45594000000E+02  0.51100000000E-03 0.  1.
         11   -1    0    0    0    0 -0.00000000000E+00 -0.00000000000E+00 -0.45593999997E+02  0.45594000000E+02  0.51100000000E-03 0. -1.
    9900012    2    1    2    0    0  0.35382674773E+02  0.11284993824E+02  0.25491738089E+02  0.46142317960E+02  0.10000001811E+02 0.  0.
         12    1    1    2    0    0 -0.35382674773E+02 -0.11284993824E+02 -0.25491738089E+02  0.45045682040E+02  0.00000000000E+00 0. -1.
         11    1    3    3    0    0  0.16400994417E+02  0.21155729856E+01  0.13492909374E+02  0.21343075471E+02  0.51100000000E-03 0. -1.
        -11    1    3    3    0    0  0.11639140630E+02  0.73330847339E+01  0.98885336004E+01  0.16941865993E+02  0.51100000000E-03 0.  1.
         12    1    3    3    0    0  0.73425397262E+01  0.18363361041E+01  0.21102951146E+01  0.78573764953E+01  0.00000000000E+00 0. -1.
</event>
<event>
 7    1  0.1503436E-008  0.4614232E+02  0.7816164E-02  0.1320468E+00
        -11   -1    0    0    0    0  0.00000000000E+00  0.00000000000E+00  0.45593999997E+02  0.45594000000E+02  0.51100000000E-03 0. -1.
         11   -1    0    0    0    0 -0.00000000000E+00 -0.00000000000E+00 -0.45593999997E+02  0.45594000000E+02  0.51100000000E-03 0.  1.
    9900012    2    1    2    0    0  0.41266408781E+02  0.11364966204E+02 -0.14036898524E+02  0.46142317958E+02  0.10000001793E+02 0.  0.
         12    1    1    2    0    0 -0.41266408781E+02 -0.11364966204E+02  0.14036898524E+02  0.45045682042E+02  0.00000000000E+00 0. -1.
         11    1    3    3    0    0  0.26316253546E+02  0.35608903928E+01 -0.91857256887E+01  0.28099870067E+02  0.51100000000E-03 0.  1.
        -11    1    3    3    0    0  0.66624681858E+00 -0.94687572737E-01 -0.11080027853E+01  0.12963491015E+01  0.51100000000E-03 0. -1.
         12    1    3    3    0    0  0.14283908417E+02  0.78987633838E+01 -0.37431700496E+01  0.16746098790E+02  0.00000000000E+00 0. -1.
</event>
<event>
 7    1  0.1503436E-008  0.4614232E+02  0.7816164E-02  0.1320468E+00
        -11   -1    0    0    0    0  0.00000000000E+00  0.00000000000E+00  0.45593999997E+02  0.45594000000E+02  0.51100000000E-03 0. -1.
         11   -1    0    0    0    0 -0.00000000000E+00 -0.00000000000E+00 -0.45593999997E+02  0.45594000000E+02  0.51100000000E-03 0.  1.
    9900012    2    1    2    0    0  0.27560165291E+02  0.31582940472E+01 -0.35490506301E+02  0.46142316859E+02  0.99999917729E+01 0.  0.
         12    1    1    2    0    0 -0.27560165291E+02 -0.31582940472E+01  0.35490506301E+02  0.45045683141E+02  0.00000000000E+00 0. -1.
         11    1    3    3    0    0  0.20821256935E+02  0.46339218478E+01 -0.22598367923E+02  0.31075459853E+02  0.51100000000E-03 0. -1.
        -11    1    3    3    0    0  0.42657928371E+01  0.65935438960E+00 -0.55528164203E+01  0.70331719159E+01  0.51100000000E-03 0.  1.
         12    1    3    3    0    0  0.24731155187E+01 -0.21349821902E+01 -0.73393219579E+01  0.80336850899E+01  0.00000000000E+00 0. -1.
</event>
<event>
 7    1  0.1503436E-008  0.4614232E+02  0.7816164E-02  0.1320468E+00
        -11   -1    0    0    0    0  0.00000000000E+00  0.00000000000E+00  0.45593999997E+02  0.45594000000E+02  0.51100000000E-03 0. -1.
         11   -1    0    0    0    0 -0.00000000000E+00 -0.00000000000E+00 -0.45593999997E+02  0.45594000000E+02  0.51100000000E-03 0.  1.
    9900012    2    1    2    0    0 -0.22408968207E+02 -0.37307245793E+02 -0.11624147112E+02  0.46142320508E+02  0.10000025052E+02 0.  0.
         12    1    1    2    0    0  0.22408968207E+02  0.37307245793E+02  0.11624147112E+02  0.45045679492E+02  0.00000000000E+00 0. -1.
         11    1    3    3    0    0 -0.44824769376E+01 -0.11218351910E+02 -0.29315320762E+01  0.12431327349E+02  0.51100000000E-03 0. -1.
        -11    1    3    3    0    0 -0.16494517402E+02 -0.23790156133E+02 -0.54010463410E+01  0.29448462353E+02  0.51100000000E-03 0.  1.
        -12    1    3    3    0    0 -0.14319738675E+01 -0.22987377500E+01 -0.32915686948E+01  0.42625308061E+01  0.00000000000E+00 0.  1.
</event>
<event>
 7    1  0.1503436E-008  0.4614232E+02  0.7816164E-02  0.1320468E+00
        -11   -1    0    0    0    0  0.00000000000E+00  0.00000000000E+00  0.45593999997E+02  0.45594000000E+02  0.51100000000E-03 0. -1.
         11   -1    0    0    0    0 -0.00000000000E+00 -0.00000000000E+00 -0.45593999997E+02  0.45594000000E+02  0.51100000000E-03 0.  1.
    9900012    2    1    2    0    0  0.24828334545E+02  0.32011819863E+02 -0.19695446550E+02  0.46142318498E+02  0.10000006716E+02 0.  0.
         12    1    1    2    0    0 -0.24828334545E+02 -0.32011819863E+02  0.19695446550E+02  0.45045681502E+02  0.00000000000E+00 0. -1.
         11    1    3    3    0    0  0.97585866537E+00  0.19539862057E+00 -0.59243482972E+00  0.11582141617E+01  0.51100000000E-03 0. -1.
        -11    1    3    3    0    0  0.21246600393E+02  0.23205394284E+02 -0.16930430669E+02  0.35728809594E+02  0.51100000000E-03 0.  1.
        -12    1    3    3    0    0  0.26058754870E+01  0.86110269585E+01 -0.21725810513E+01  0.92552947419E+01  0.00000000000E+00 0.  1.
</event>
<event>
 7    1  0.1503436E-008  0.4614232E+02  0.7816164E-02  0.1320468E+00
        -11   -1    0    0    0    0  0.00000000000E+00  0.00000000000E+00  0.45593999997E+02  0.45594000000E+02  0.51100000000E-03 0. -1.
         11   -1    0    0    0    0 -0.00000000000E+00 -0.00000000000E+00 -0.45593999997E+02  0.45594000000E+02  0.51100000000E-03 0.  1.
    9900012    2    1    2    0    0 -0.16612214139E+02 -0.41796629056E+02 -0.24879358479E+01  0.46142315592E+02  0.99999802164E+01 0.  0.
         12    1    1    2    0    0  0.16612214139E+02  0.41796629056E+02  0.24879358479E+01  0.45045684408E+02  0.00000000000E+00 0. -1.
         11    1    3    3    0    0 -0.17277144358E+01 -0.63252135802E+01  0.16993371639E+00  0.65591311723E+01  0.51100000000E-03 0. -1.
        -11    1    3    3    0    0 -0.12102459799E+02 -0.33328601755E+02 -0.42794534588E+01  0.35715248149E+02  0.51100000000E-03 0.  1.
        -12    1    3    3    0    0 -0.27820399035E+01 -0.21428137206E+01  0.16215838945E+01  0.38679362706E+01  0.00000000000E+00 0.  1.
</event>
<event>
 7    1  0.1503436E-008  0.4614232E+02  0.7816164E-02  0.1320468E+00
        -11   -1    0    0    0    0  0.00000000000E+00  0.00000000000E+00  0.45593999997E+02  0.45594000000E+02  0.51100000000E-03 0. -1.
         11   -1    0    0    0    0 -0.00000000000E+00 -0.00000000000E+00 -0.45593999997E+02  0.45594000000E+02  0.51100000000E-03 0.  1.
    9900012    2    1    2    0    0  0.16861882430E+02  0.41644580106E+02  0.32433478731E+01  0.46142318335E+02  0.10000005230E+02 0.  0.
         12    1    1    2    0    0 -0.16861882430E+02 -0.41644580106E+02 -0.32433478731E+01  0.45045681665E+02  0.00000000000E+00 0. -1.
         11    1    3    3    0    0  0.85594571845E+00  0.44429301818E+01  0.18864451496E+01  0.49021370071E+01  0.51100000000E-03 0. -1.
        -11    1    3    3    0    0  0.57395155434E+01  0.17702340618E+02  0.40327295545E+01  0.19041476044E+02  0.51100000000E-03 0.  1.
        -12    1    3    3    0    0  0.10266421169E+02  0.19499309306E+02 -0.26758268309E+01  0.22198705284E+02  0.00000000000E+00 0.  1.
</event>
<event>
 7    1  0.1503436E-008  0.4614232E+02  0.7816164E-02  0.1320468E+00
        -11   -1    0    0    0    0  0.00000000000E+00  0.00000000000E+00  0.45593999997E+02  0.45594000000E+02  0.51100000000E-03 0.  1.
         11   -1    0    0    0    0 -0.00000000000E+00 -0.00000000000E+00 -0.45593999997E+02  0.45594000000E+02  0.51100000000E-03 0. -1.
    9900012    2    1    2    0    0 -0.78376147248E+01 -0.21456987983E+02  0.38823742341E+02  0.46142317552E+02  0.99999980942E+01 0.  0.
         12    1    1    2    0    0  0.78376147248E+01  0.21456987983E+02 -0.38823742341E+02  0.45045682448E+02  0.00000000000E+00 0. -1.
         11    1    3    3    0    0 -0.60751699336E+01 -0.13245067153E+02  0.19927078404E+02  0.24686594491E+02  0.51100000000E-03 0. -1.
        -11    1    3    3    0    0 -0.34369333277E+01 -0.26186539217E+01  0.82725540815E+01  0.93330065013E+01  0.51100000000E-03 0.  1.
         12    1    3    3    0    0  0.16744885365E+01 -0.55932669086E+01  0.10624109855E+02  0.12122716559E+02  0.00000000000E+00 0. -1.
</event>
<event>
 7    1  0.1503436E-008  0.4614232E+02  0.7816164E-02  0.1320468E+00
        -11   -1    0    0    0    0  0.00000000000E+00  0.00000000000E+00  0.45593999997E+02  0.45594000000E+02  0.51100000000E-03 0.  1.
         11   -1    0    0    0    0 -0.00000000000E+00 -0.00000000000E+00 -0.45593999997E+02  0.45594000000E+02  0.51100000000E-03 0. -1.
    9900012    2    1    2    0    0 -0.81381253493E+01  0.46011185760E+01  0.44064885203E+02  0.46142317806E+02  0.10000000410E+02 0.  0.
         12    1    1    2    0    0  0.81381253493E+01 -0.46011185760E+01 -0.44064885203E+02  0.45045682194E+02  0.00000000000E+00 0. -1.
         11    1    3    3    0    0 -0.93998109943E+01  0.59380400357E+01  0.37881234112E+02  0.39479167472E+02  0.51100000000E-03 0.  1.
        -11    1    3    3    0    0  0.52705794216E+00 -0.99948183390E+00  0.13414186966E+01  0.17538980561E+01  0.51100000000E-03 0. -1.
        -12    1    3    3    0    0  0.73462770285E+00 -0.33743962581E+00  0.48422323948E+01  0.49092522779E+01  0.00000000000E+00 0.  1.
</event>
<event>
 7    1  0.1503436E-008  0.4614232E+02  0.7816164E-02  0.1320468E+00
        -11   -1    0    0    0    0  0.00000000000E+00  0.00000000000E+00  0.45593999997E+02  0.45594000000E+02  0.51100000000E-03 0.  1.
         11   -1    0    0    0    0 -0.00000000000E+00 -0.00000000000E+00 -0.45593999997E+02  0.45594000000E+02  0.51100000000E-03 0. -1.
    9900012    2    1    2    0    0  0.42161134676E+02 -0.11282146945E+02  0.11147441362E+02  0.46142316902E+02  0.99999921652E+01 0.  0.
         12    1    1    2    0    0 -0.42161134676E+02  0.11282146945E+02 -0.11147441362E+02  0.45045683098E+02  0.00000000000E+00 0. -1.
         11    1    3    3    0    0  0.21610209982E+02 -0.93143377129E+01  0.36487610830E+01  0.23813263535E+02  0.51100000000E-03 0. -1.
        -11    1    3    3    0    0  0.20282717609E+02 -0.23378073625E+01  0.68498051376E+01  0.21535408228E+02  0.51100000000E-03 0.  1.
         12    1    3    3    0    0  0.26820708527E+00  0.36999813063E+00  0.64887514122E+00  0.79364513868E+00  0.00000000000E+00 0. -1.
</event>
<event>
 7    1  0.1503436E-008  0.4614232E+02  0.7816164E-02  0.1320468E+00
        -11   -1    0    0    0    0  0.00000000000E+00  0.00000000000E+00  0.45593999997E+02  0.45594000000E+02  0.51100000000E-03 0.  1.
         11   -1    0    0    0    0 -0.00000000000E+00 -0.00000000000E+00 -0.45593999997E+02  0.45594000000E+02  0.51100000000E-03 0. -1.
    9900012    2    1    2    0    0  0.11908177766E+02  0.37148131289E+02  0.22523878922E+02  0.46142317880E+02  0.10000001080E+02 0.  0.
         12    1    1    2    0    0 -0.11908177766E+02 -0.37148131289E+02 -0.22523878922E+02  0.45045682120E+02  0.00000000000E+00 0. -1.
         11    1    3    3    0    0  0.42962232723E+01  0.26529457049E+02  0.14013336051E+02  0.30309127557E+02  0.51100000000E-03 0. -1.
        -11    1    3    3    0    0  0.75723192045E+01  0.10511056522E+02  0.78172797921E+01  0.15130505310E+02  0.51100000000E-03 0.  1.
        -12    1    3    3    0    0  0.39635289556E-01  0.10761771861E+00  0.69326307949E+00  0.70268501260E+00  0.00000000000E+00 0.  1.
</event>
<event>
 7    1  0.1503436E-008  0.4614231E+02  0.7816164E-02  0.1320468E+00
        -11   -1    0    0    0    0  0.00000000000E+00  0.00000000000E+00  0.45593999997E+02  0.45594000000E+02  0.51100000000E-03 0.  1.
         11   -1    0    0    0    0 -0.00000000000E+00 -0.00000000000E+00 -0.45593999997E+02  0.45594000000E+02  0.51100000000E-03 0. -1.
    9900012    2    1    2    0    0 -0.27576486901E+02  0.12933674691E+02  0.33186916998E+02  0.46142311742E+02  0.99999451103E+01 0.  0.
         12    1    1    2    0    0  0.27576486901E+02 -0.12933674691E+02 -0.33186916998E+02  0.45045688258E+02  0.00000000000E+00 0. -1.
         11    1    3    3    0    0 -0.72444242981E+01  0.16556649227E+01  0.11105181313E+02  0.13362184028E+02  0.51100000000E-03 0. -1.
        -11    1    3    3    0    0 -0.96966083396E+01  0.66229386281E+01  0.15463274570E+02  0.19416497883E+02  0.51100000000E-03 0.  1.
         12    1    3    3    0    0 -0.10635454263E+02  0.46550711406E+01  0.66184611154E+01  0.13363629831E+02  0.00000000000E+00 0. -1.
</event>
<event>
 7    1  0.1503436E-008  0.4614232E+02  0.7816164E-02  0.1320468E+00
        -11   -1    0    0    0    0  0.00000000000E+00  0.00000000000E+00  0.45593999997E+02  0.45594000000E+02  0.51100000000E-03 0.  1.
         11   -1    0    0    0    0 -0.00000000000E+00 -0.00000000000E+00 -0.45593999997E+02  0.45594000000E+02  0.51100000000E-03 0. -1.
    9900012    2    1    2    0    0  0.25041165434E+02  0.37335499210E+02 -0.28485188520E+01  0.46142317330E+02  0.99999960693E+01 0.  0.
         12    1    1    2    0    0 -0.25041165434E+02 -0.37335499210E+02  0.28485188520E+01  0.45045682670E+02  0.00000000000E+00 0. -1.
         11    1    3    3    0    0  0.59751755692E+01  0.70581435589E+01  0.29949220656E+01  0.97205798192E+01  0.51100000000E-03 0. -1.
        -11    1    3    3    0    0  0.16699535285E+02  0.27693930437E+02 -0.44190494127E+01  0.32639795645E+02  0.51100000000E-03 0.  1.
         12    1    3    3    0    0  0.23664545805E+01  0.25834252134E+01 -0.14243915050E+01  0.37819418655E+01  0.00000000000E+00 0. -1.
</event>
<event>
 7    1  0.1503436E-008  0.4614232E+02  0.7816164E-02  0.1320468E+00
        -11   -1    0    0    0    0  0.00000000000E+00  0.00000000000E+00  0.45593999997E+02  0.45594000000E+02  0.51100000000E-03 0. -1.
         11   -1    0    0    0    0 -0.00000000000E+00 -0.00000000000E+00 -0.45593999997E+02  0.45594000000E+02  0.51100000000E-03 0.  1.
    9900012    2    1    2    0    0 -0.88325494561E+01 -0.98940001095E+01 -0.43048907282E+02  0.46142316675E+02  0.99999900973E+01 0.  0.
         12    1    1    2    0    0  0.88325494561E+01  0.98940001095E+01  0.43048907282E+02  0.45045683325E+02  0.00000000000E+00 0. -1.
         11    1    3    3    0    0 -0.18339622788E+01 -0.31785867775E+01 -0.24206669755E+02  0.24483253305E+02  0.51100000000E-03 0. -1.
        -11    1    3    3    0    0 -0.19273331750E+01 -0.45247851895E+01 -0.66253671725E+01  0.82512898755E+01  0.51100000000E-03 0.  1.
         12    1    3    3    0    0 -0.50712540023E+01 -0.21906281425E+01 -0.12216870355E+02  0.13407773494E+02  0.00000000000E+00 0. -1.
</event>
<event>
 7    1  0.1503436E-008  0.4614232E+02  0.7816164E-02  0.1320468E+00
        -11   -1    0    0    0    0  0.00000000000E+00  0.00000000000E+00  0.45593999997E+02  0.45594000000E+02  0.51100000000E-03 0.  1.
         11   -1    0    0    0    0 -0.00000000000E+00 -0.00000000000E+00 -0.45593999997E+02  0.45594000000E+02  0.51100000000E-03 0. -1.
    9900012    2    1    2    0    0  0.16259532219E+02  0.25366853456E+02  0.33485279100E+02  0.46142316981E+02  0.99999928898E+01 0.  0.
         12    1    1    2    0    0 -0.16259532219E+02 -0.25366853456E+02 -0.33485279100E+02  0.45045683019E+02  0.00000000000E+00 0. -1.
         11    1    3    3    0    0  0.34109664674E+00  0.20213601595E+01  0.39795666753E+01  0.44765159445E+01  0.51100000000E-03 0. -1.
        -11    1    3    3    0    0  0.64527461902E+01  0.16458899787E+02  0.18728101827E+02  0.25754128095E+02  0.51100000000E-03 0.  1.
        -12    1    3    3    0    0  0.94656893824E+01  0.68865935093E+01  0.10777610597E+02  0.15911672942E+02  0.00000000000E+00 0.  1.
</event>
<event>
 7    1  0.1503436E-008  0.4614232E+02  0.7816164E-02  0.1320468E+00
        -11   -1    0    0    0    0  0.00000000000E+00  0.00000000000E+00  0.45593999997E+02  0.45594000000E+02  0.51100000000E-03 0.  1.
         11   -1    0    0    0    0 -0.00000000000E+00 -0.00000000000E+00 -0.45593999997E+02  0.45594000000E+02  0.51100000000E-03 0. -1.
    9900012    2    1    2    0    0  0.13628736135E+02  0.23868905097E+02  0.35688183682E+02  0.46142317258E+02  0.99999954147E+01 0.  0.
         12    1    1    2    0    0 -0.13628736135E+02 -0.23868905097E+02 -0.35688183682E+02  0.45045682742E+02  0.00000000000E+00 0. -1.
         11    1    3    3    0    0  0.33981162469E+01  0.12018809099E+02  0.13828449903E+02  0.18633974164E+02  0.51100000000E-03 0. -1.
        -11    1    3    3    0    0  0.81946168706E+01  0.12135418243E+02  0.19131095821E+02  0.24091885546E+02  0.51100000000E-03 0.  1.
         12    1    3    3    0    0  0.20360030170E+01 -0.28532224520E+00  0.27286379581E+01  0.34164575477E+01  0.00000000000E+00 0. -1.
</event>
<event>
 7    1  0.1503436E-008  0.4614232E+02  0.7816164E-02  0.1320468E+00
        -11   -1    0    0    0    0  0.00000000000E+00  0.00000000000E+00  0.45593999997E+02  0.45594000000E+02  0.51100000000E-03 0.  1.
         11   -1    0    0    0    0 -0.00000000000E+00 -0.00000000000E+00 -0.45593999997E+02  0.45594000000E+02  0.51100000000E-03 0. -1.
    9900012    2    1    2    0    0 -0.72288476445E+00 -0.30156290529E+02  0.33454285746E+02  0.46142315905E+02  0.99999830717E+01 0.  0.
         12    1    1    2    0    0  0.72288476445E+00  0.30156290529E+02 -0.33454285746E+02  0.45045684095E+02  0.00000000000E+00 0. -1.
         11    1    3    3    0    0 -0.48522250120E+01 -0.10248970839E+02  0.10674069470E+02  0.15573093788E+02  0.51100000000E-03 0. -1.
        -11    1    3    3    0    0  0.33998448361E+01 -0.13191441141E+02  0.15599548855E+02  0.20710359461E+02  0.51100000000E-03 0.  1.
         12    1    3    3    0    0  0.72949541147E+00 -0.67158785486E+01  0.71806674213E+01  0.98588626550E+01  0.00000000000E+00 0. -1.
</event>
<event>
 7    1  0.1503436E-008  0.4614232E+02  0.7816164E-02  0.1320468E+00
        -11   -1    0    0    0    0  0.00000000000E+00  0.00000000000E+00  0.45593999997E+02  0.45594000000E+02  0.51100000000E-03 0. -1.
         11   -1    0    0    0    0 -0.00000000000E+00 -0.00000000000E+00 -0.45593999997E+02  0.45594000000E+02  0.51100000000E-03 0.  1.
    9900012    2    1    2    0    0 -0.44663499979E+02  0.57180859981E+01 -0.12605266294E+01  0.46142315798E+02  0.99999820997E+01 0.  0.
         12    1    1    2    0    0  0.44663499979E+02 -0.57180859981E+01  0.12605266294E+01  0.45045684202E+02  0.00000000000E+00 0. -1.
         11    1    3    3    0    0 -0.95684540133E+01  0.34643223636E+01  0.16550390335E+01  0.10309994962E+02  0.51100000000E-03 0. -1.
        -11    1    3    3    0    0 -0.16896295471E+02  0.20497868599E+01 -0.43766104787E+01  0.17573876817E+02  0.51100000000E-03 0.  1.
        -12    1    3    3    0    0 -0.18198750494E+02  0.20397677463E+00  0.14610448158E+01  0.18258444020E+02  0.00000000000E+00 0.  1.
</event>
<event>
 7    1  0.1503436E-008  0.4614232E+02  0.7816164E-02  0.1320468E+00
        -11   -1    0    0    0    0  0.00000000000E+00  0.00000000000E+00  0.45593999997E+02  0.45594000000E+02  0.51100000000E-03 0. -1.
         11   -1    0    0    0    0 -0.00000000000E+00 -0.00000000000E+00 -0.45593999997E+02  0.45594000000E+02  0.51100000000E-03 0.  1.
    9900012    2    1    2    0    0 -0.42923469717E+02  0.47412818139E+01  0.12814427721E+02  0.46142316926E+02  0.99999923818E+01 0.  0.
         12    1    1    2    0    0  0.42923469717E+02 -0.47412818139E+01 -0.12814427721E+02  0.45045683074E+02  0.00000000000E+00 0. -1.
         11    1    3    3    0    0 -0.70694596402E+00 -0.90052269067E+00  0.16391661606E+01  0.19993948274E+01  0.51100000000E-03 0. -1.
        -11    1    3    3    0    0 -0.26953974472E+02  0.49956111737E+01  0.77488617721E+01  0.28487150259E+02  0.51100000000E-03 0.  1.
         12    1    3    3    0    0 -0.15262549281E+02  0.64619333086E+00  0.34263997884E+01  0.15655771840E+02  0.00000000000E+00 0. -1.
</event>
<event>
 7    1  0.1503436E-008  0.4614232E+02  0.7816164E-02  0.1320468E+00
        -11   -1    0    0    0    0  0.00000000000E+00  0.00000000000E+00  0.45593999997E+02  0.45594000000E+02  0.51100000000E-03 0.  1.
         11   -1    0    0    0    0 -0.00000000000E+00 -0.00000000000E+00 -0.45593999997E+02  0.45594000000E+02  0.51100000000E-03 0. -1.
    9900012    2    1    2    0    0 -0.22093195492E+01  0.25366061098E+02  0.37159049542E+02  0.46142321945E+02  0.10000038155E+02 0.  0.
         12    1    1    2    0    0  0.22093195492E+01 -0.25366061098E+02 -0.37159049542E+02  0.45045678055E+02  0.00000000000E+00 0. -1.
         11    1    3    3    0    0 -0.33841032340E+01  0.64065935705E+01  0.13787805584E+02  0.15575627723E+02  0.51100000000E-03 0. -1.
        -11    1    3    3    0    0  0.26253417176E+00  0.22610124521E+01  0.61678609990E+01  0.65744665992E+01  0.51100000000E-03 0.  1.
         12    1    3    3    0    0  0.91224951303E+00  0.16698455076E+02  0.17203382959E+02  0.23992227623E+02  0.00000000000E+00 0. -1.
</event>
<event>
 7    1  0.1503436E-008  0.4614232E+02  0.7816164E-02  0.1320468E+00
        -11   -1    0    0    0    0  0.00000000000E+00  0.00000000000E+00  0.45593999997E+02  0.45594000000E+02  0.51100000000E-03 0. -1.
         11   -1    0    0    0    0 -0.00000000000E+00 -0.00000000000E+00 -0.45593999997E+02  0.45594000000E+02  0.51100000000E-03 0.  1.
    9900012    2    1    2    0    0 -0.25217937676E+02 -0.35829590717E+02 -0.10459899997E+02  0.46142318082E+02  0.10000002922E+02 0.  0.
         12    1    1    2    0    0  0.25217937676E+02  0.35829590717E+02  0.10459899997E+02  0.45045681918E+02  0.00000000000E+00 0. -1.
         11    1    3    3    0    0 -0.26428882593E+01 -0.49948093158E+01  0.14627041218E+01  0.58371638714E+01  0.51100000000E-03 0. -1.
        -11    1    3    3    0    0 -0.59564377478E+01 -0.11715280568E+02 -0.47825133047E+01  0.13985684939E+02  0.51100000000E-03 0.  1.
         12    1    3    3    0    0 -0.16618611669E+02 -0.19119500832E+02 -0.71400908139E+01  0.26319469271E+02  0.00000000000E+00 0. -1.
</event>
<event>
 7    1  0.1503436E-008  0.4614232E+02  0.7816164E-02  0.1320468E+00
        -11   -1    0    0    0    0  0.00000000000E+00  0.00000000000E+00  0.45593999997E+02  0.45594000000E+02  0.51100000000E-03 0. -1.
         11   -1    0    0    0    0 -0.00000000000E+00 -0.00000000000E+00 -0.45593999997E+02  0.45594000000E+02  0.51100000000E-03 0.  1.
    9900012    2    1    2    0    0  0.25705246896E+02  0.27405226676E+02 -0.24845669839E+02  0.46142317889E+02  0.10000001165E+02 0.  0.
         12    1    1    2    0    0 -0.25705246896E+02 -0.27405226676E+02  0.24845669839E+02  0.45045682111E+02  0.00000000000E+00 0. -1.
         11    1    3    3    0    0  0.96423059273E+01  0.71150307473E+01 -0.12678815801E+02  0.17445632592E+02  0.51100000000E-03 0. -1.
        -11    1    3    3    0    0  0.62158100943E+01  0.94827392485E+01 -0.46254263449E+01  0.12245538286E+02  0.51100000000E-03 0.  1.
        -12    1    3    3    0    0  0.98471308743E+01  0.10807456680E+02 -0.75414276926E+01  0.16451147011E+02  0.00000000000E+00 0.  1.
</event>
<event>
 7    1  0.1503436E-008  0.4614232E+02  0.7816164E-02  0.1320468E+00
        -11   -1    0    0    0    0  0.00000000000E+00  0.00000000000E+00  0.45593999997E+02  0.45594000000E+02  0.51100000000E-03 0.  1.
         11   -1    0    0    0    0 -0.00000000000E+00 -0.00000000000E+00 -0.45593999997E+02  0.45594000000E+02  0.51100000000E-03 0. -1.
    9900012    2    1    2    0    0 -0.24818988827E+02  0.35044518259E+02  0.13601948764E+02  0.46142317892E+02  0.10000001196E+02 0.  0.
         12    1    1    2    0    0  0.24818988827E+02 -0.35044518259E+02 -0.13601948764E+02  0.45045682108E+02  0.00000000000E+00 0. -1.
         11    1    3    3    0    0 -0.44594981171E+01  0.77170368170E+01  0.40732068089E+01  0.97995303286E+01  0.51100000000E-03 0. -1.
        -11    1    3    3    0    0 -0.12982574820E+02  0.20931770444E+02  0.35270937468E+01  0.24882255795E+02  0.51100000000E-03 0.  1.
        -12    1    3    3    0    0 -0.73769158902E+01  0.63957109978E+01  0.60016482080E+01  0.11460531769E+02  0.00000000000E+00 0.  1.
</event>
<event>
 7    1  0.1503436E-008  0.4614232E+02  0.7816164E-02  0.1320468E+00
        -11   -1    0    0    0    0  0.00000000000E+00  0.00000000000E+00  0.45593999997E+02  0.45594000000E+02  0.51100000000E-03 0. -1.
         11   -1    0    0    0    0 -0.00000000000E+00 -0.00000000000E+00 -0.45593999997E+02  0.45594000000E+02  0.51100000000E-03 0.  1.
    9900012    2    1    2    0    0  0.32233257273E+02  0.21118089459E+02 -0.23327170858E+02  0.46142317887E+02  0.10000001146E+02 0.  0.
         12    1    1    2    0    0 -0.32233257273E+02 -0.21118089459E+02  0.23327170858E+02  0.45045682113E+02  0.00000000000E+00 0. -1.
         11    1    3    3    0    0  0.18467004090E+01  0.16285725831E+01  0.14319110412E+00  0.24663850089E+01  0.51100000000E-03 0. -1.
        -11    1    3    3    0    0  0.81218594019E+01  0.74085717661E+01 -0.38963880018E+01  0.11663334664E+02  0.51100000000E-03 0.  1.
         12    1    3    3    0    0  0.22264697462E+02  0.12080945110E+02 -0.19573973960E+02  0.32012598214E+02  0.00000000000E+00 0. -1.
</event>
<event>
 7    1  0.1503436E-008  0.4614232E+02  0.7816164E-02  0.1320468E+00
        -11   -1    0    0    0    0  0.00000000000E+00  0.00000000000E+00  0.45593999997E+02  0.45594000000E+02  0.51100000000E-03 0. -1.
         11   -1    0    0    0    0 -0.00000000000E+00 -0.00000000000E+00 -0.45593999997E+02  0.45594000000E+02  0.51100000000E-03 0.  1.
    9900012    2    1    2    0    0 -0.44618270072E+02 -0.61821733138E+01  0.32274497335E+00  0.46142318126E+02  0.10000003331E+02 0.  0.
         12    1    1    2    0    0  0.44618270072E+02  0.61821733138E+01 -0.32274497335E+00  0.45045681874E+02  0.00000000000E+00 0. -1.
         11    1    3    3    0    0 -0.13984065889E+01  0.79409042049E+00 -0.15014730184E+01  0.22001231943E+01  0.51100000000E-03 0. -1.
        -11    1    3    3    0    0 -0.41486744408E+02 -0.71595792137E+01  0.12914681092E+01  0.42119798507E+02  0.51100000000E-03 0.  1.
        -12    1    3    3    0    0 -0.17331190750E+01  0.18331547941E+00  0.53274988255E+00  0.18223964252E+01  0.00000000000E+00 0.  1.
</event>
<event>
 7    1  0.1503436E-008  0.4614232E+02  0.7816164E-02  0.1320468E+00
        -11   -1    0    0    0    0  0.00000000000E+00  0.00000000000E+00  0.45593999997E+02  0.45594000000E+02  0.51100000000E-03 0.  1.
         11   -1    0    0    0    0 -0.00000000000E+00 -0.00000000000E+00 -0.45593999997E+02  0.45594000000E+02  0.51100000000E-03 0. -1.
    9900012    2    1    2    0    0 -0.23502694835E+02 -0.18112623351E+02  0.33892030341E+02  0.46142317524E+02  0.99999978338E+01 0.  0.
         12    1    1    2    0    0  0.23502694835E+02  0.18112623351E+02 -0.33892030341E+02  0.45045682476E+02  0.00000000000E+00 0. -1.
         11    1    3    3    0    0 -0.45695735002E+01 -0.97868103984E+00  0.16792332625E+01  0.49657469893E+01  0.51100000000E-03 0. -1.
        -11    1    3    3    0    0 -0.72400649065E+01 -0.60158636629E+01  0.13656608894E+02  0.16586504219E+02  0.51100000000E-03 0.  1.
         12    1    3    3    0    0 -0.11693056428E+02 -0.11118078648E+02  0.18556188185E+02  0.24590066315E+02  0.00000000000E+00 0. -1.
</event>
<event>
 7    1  0.1503436E-008  0.4614232E+02  0.7816164E-02  0.1320468E+00
        -11   -1    0    0    0    0  0.00000000000E+00  0.00000000000E+00  0.45593999997E+02  0.45594000000E+02  0.51100000000E-03 0. -1.
         11   -1    0    0    0    0 -0.00000000000E+00 -0.00000000000E+00 -0.45593999997E+02  0.45594000000E+02  0.51100000000E-03 0.  1.
    9900012    2    1    2    0    0 -0.39692790824E+02  0.21092878405E+02  0.29472338165E+01  0.46142319297E+02  0.10000014010E+02 0.  0.
         12    1    1    2    0    0  0.39692790824E+02 -0.21092878405E+02 -0.29472338165E+01  0.45045680703E+02  0.00000000000E+00 0. -1.
         11    1    3    3    0    0 -0.14565285207E+02  0.55412400704E+01 -0.29663004127E+01  0.15863537218E+02  0.51100000000E-03 0.  1.
        -11    1    3    3    0    0 -0.22963307885E+02  0.14937305913E+02  0.59319900410E+01  0.28029005031E+02  0.51100000000E-03 0. -1.
         12    1    3    3    0    0 -0.21641977323E+01  0.61433242181E+00 -0.18455811746E-01  0.22497770480E+01  0.00000000000E+00 0. -1.
</event>
<event>
 7    1  0.1508424E-008  0.4614232E+02  0.7816164E-02  0.1320468E+00
        -11   -1    0    0    0    0  0.00000000000E+00  0.00000000000E+00  0.45593999997E+02  0.45594000000E+02  0.51100000000E-03 0. -1.
         11   -1    0    0    0    0 -0.00000000000E+00 -0.00000000000E+00 -0.45593999997E+02  0.45594000000E+02  0.51100000000E-03 0.  1.
    9900012    2    1    2    0    0  0.38603095665E+02 -0.22037795237E+02 -0.72972769560E+01  0.46142315803E+02  0.99999821438E+01 0.  0.
         12    1    1    2    0    0 -0.38603095665E+02  0.22037795237E+02  0.72972769560E+01  0.45045684197E+02  0.00000000000E+00 0. -1.
         11    1    3    3    0    0  0.84994562660E+01 -0.43785373668E+01 -0.41588262743E+01  0.10426321620E+02  0.51100000000E-03 0. -1.
        -11    1    3    3    0    0  0.14477583583E+02 -0.11566825373E+02  0.56817575361E+00  0.18539544211E+02  0.51100000000E-03 0.  1.
        -12    1    3    3    0    0  0.15626055816E+02 -0.60924324971E+01 -0.37066264353E+01  0.17176449971E+02  0.00000000000E+00 0.  1.
</event>
<event>
 7    1  0.1503436E-008  0.4614232E+02  0.7816164E-02  0.1320468E+00
        -11   -1    0    0    0    0  0.00000000000E+00  0.00000000000E+00  0.45593999997E+02  0.45594000000E+02  0.51100000000E-03 0.  1.
         11   -1    0    0    0    0 -0.00000000000E+00 -0.00000000000E+00 -0.45593999997E+02  0.45594000000E+02  0.51100000000E-03 0. -1.
    9900012    2    1    2    0    0  0.26322218710E+00 -0.18219128452E+02  0.41195966347E+02  0.46142316847E+02  0.99999916621E+01 0.  0.
         12    1    1    2    0    0 -0.26322218710E+00  0.18219128452E+02 -0.41195966347E+02  0.45045683153E+02  0.00000000000E+00 0. -1.
         11    1    3    3    0    0  0.73238642972E+00 -0.77376527401E+01  0.85310997952E+01  0.11540681253E+02  0.51100000000E-03 0. -1.
        -11    1    3    3    0    0 -0.23766995592E+01 -0.54936365629E+01  0.15106476186E+02  0.16249134331E+02  0.51100000000E-03 0.  1.
        -12    1    3    3    0    0  0.19075353166E+01 -0.49878391487E+01  0.17558390366E+02  0.18352501263E+02  0.00000000000E+00 0.  1.
</event>
<event>
 7    1  0.1503436E-008  0.4614232E+02  0.7816164E-02  0.1320468E+00
        -11   -1    0    0    0    0  0.00000000000E+00  0.00000000000E+00  0.45593999997E+02  0.45594000000E+02  0.51100000000E-03 0.  1.
         11   -1    0    0    0    0 -0.00000000000E+00 -0.00000000000E+00 -0.45593999997E+02  0.45594000000E+02  0.51100000000E-03 0. -1.
    9900012    2    1    2    0    0  0.30576410406E+02  0.33054150699E+02  0.12726983817E+01  0.46142317489E+02  0.99999975166E+01 0.  0.
         12    1    1    2    0    0 -0.30576410406E+02 -0.33054150699E+02 -0.12726983817E+01  0.45045682511E+02  0.00000000000E+00 0. -1.
         11    1    3    3    0    0  0.19177219797E+01  0.16111106620E+01 -0.17912927830E+01  0.30792962268E+01  0.51100000000E-03 0. -1.
        -11    1    3    3    0    0  0.19919886149E+02  0.18927040998E+02  0.40094676811E+01  0.27768877839E+02  0.51100000000E-03 0.  1.
         12    1    3    3    0    0  0.87388022775E+01  0.12515999039E+02 -0.94547651632E+00  0.15294143423E+02  0.00000000000E+00 0. -1.
</event>
<event>
 7    1  0.1503436E-008  0.4614232E+02  0.7816164E-02  0.1320468E+00
        -11   -1    0    0    0    0  0.00000000000E+00  0.00000000000E+00  0.45593999997E+02  0.45594000000E+02  0.51100000000E-03 0. -1.
         11   -1    0    0    0    0 -0.00000000000E+00 -0.00000000000E+00 -0.45593999997E+02  0.45594000000E+02  0.51100000000E-03 0.  1.
    9900012    2    1    2    0    0 -0.22257300502E+02 -0.25103991906E+01 -0.39082271583E+02  0.46142317834E+02  0.10000000661E+02 0.  0.
         12    1    1    2    0    0  0.22257300502E+02  0.25103991906E+01  0.39082271583E+02  0.45045682166E+02  0.00000000000E+00 0. -1.
         11    1    3    3    0    0 -0.12254750815E+02  0.10831080627E+01 -0.16711490632E+02  0.20751529101E+02  0.51100000000E-03 0. -1.
        -11    1    3    3    0    0  0.55770606373E+00 -0.48902751922E+00 -0.46602012765E+00  0.87599029023E+00  0.51100000000E-03 0.  1.
        -12    1    3    3    0    0 -0.10560255750E+02 -0.31044797341E+01 -0.21904760824E+02  0.24514798443E+02  0.00000000000E+00 0.  1.
</event>
<event>
 7    1  0.1503436E-008  0.4614232E+02  0.7816164E-02  0.1320468E+00
        -11   -1    0    0    0    0  0.00000000000E+00  0.00000000000E+00  0.45593999997E+02  0.45594000000E+02  0.51100000000E-03 0.  1.
         11   -1    0    0    0    0 -0.00000000000E+00 -0.00000000000E+00 -0.45593999997E+02  0.45594000000E+02  0.51100000000E-03 0. -1.
    9900012    2    1    2    0    0 -0.24729600929E+02  0.36595388627E+02  0.88508695253E+01  0.46142317385E+02  0.99999965715E+01 0.  0.
         12    1    1    2    0    0  0.24729600929E+02 -0.36595388627E+02 -0.88508695253E+01  0.45045682615E+02  0.00000000000E+00 0. -1.
         11    1    3    3    0    0 -0.50613495478E+00  0.40343366568E+01  0.24298287301E+01  0.47366773979E+01  0.51100000000E-03 0. -1.
        -11    1    3    3    0    0 -0.12694002075E+02  0.21253329183E+02  0.38945226739E+01  0.25060107685E+02  0.51100000000E-03 0.  1.
         12    1    3    3    0    0 -0.11529463899E+02  0.11307722787E+02  0.25265181213E+01  0.16345532302E+02  0.00000000000E+00 0. -1.
</event>
<event>
 7    1  0.1503436E-008  0.4614232E+02  0.7816164E-02  0.1320468E+00
        -11   -1    0    0    0    0  0.00000000000E+00  0.00000000000E+00  0.45593999997E+02  0.45594000000E+02  0.51100000000E-03 0. -1.
         11   -1    0    0    0    0 -0.00000000000E+00 -0.00000000000E+00 -0.45593999997E+02  0.45594000000E+02  0.51100000000E-03 0.  1.
    9900012    2    1    2    0    0 -0.14726768163E+02 -0.16564640248E+02 -0.39215411601E+02  0.46142317476E+02  0.99999973986E+01 0.  0.
         12    1    1    2    0    0  0.14726768163E+02  0.16564640248E+02  0.39215411601E+02  0.45045682524E+02  0.00000000000E+00 0. -1.
         11    1    3    3    0    0 -0.54893700720E+01 -0.74808808751E+01 -0.22824344632E+02  0.24638333357E+02  0.51100000000E-03 0. -1.
        -11    1    3    3    0    0 -0.83273113748E+01 -0.72815911966E+01 -0.15993510450E+02  0.19446286583E+02  0.51100000000E-03 0.  1.
         12    1    3    3    0    0 -0.91008671627E+00 -0.18021681760E+01 -0.39755651881E+00  0.20576975364E+01  0.00000000000E+00 0. -1.
</event>
<event>
 7    1  0.1503436E-008  0.4614232E+02  0.7816164E-02  0.1320468E+00
        -11   -1    0    0    0    0  0.00000000000E+00  0.00000000000E+00  0.45593999997E+02  0.45594000000E+02  0.51100000000E-03 0.  1.
         11   -1    0    0    0    0 -0.00000000000E+00 -0.00000000000E+00 -0.45593999997E+02  0.45594000000E+02  0.51100000000E-03 0. -1.
    9900012    2    1    2    0    0  0.15693040428E+02 -0.22518497936E+01  0.42163623520E+02  0.46142317702E+02  0.99999994596E+01 0.  0.
         12    1    1    2    0    0 -0.15693040428E+02  0.22518497936E+01 -0.42163623520E+02  0.45045682298E+02  0.00000000000E+00 0. -1.
         11    1    3    3    0    0  0.11982159365E+02 -0.29673355237E+01  0.19987850182E+02  0.23492368513E+02  0.51100000000E-03 0. -1.
        -11    1    3    3    0    0  0.14007798009E+01 -0.63054597930E+00  0.13064247996E+02  0.13154252097E+02  0.51100000000E-03 0.  1.
         12    1    3    3    0    0  0.23101012614E+01  0.13460317094E+01  0.91115253419E+01  0.94956970917E+01  0.00000000000E+00 0. -1.
</event>
<event>
 7    1  0.1503436E-008  0.4614232E+02  0.7816164E-02  0.1320468E+00
        -11   -1    0    0    0    0  0.00000000000E+00  0.00000000000E+00  0.45593999997E+02  0.45594000000E+02  0.51100000000E-03 0.  1.
         11   -1    0    0    0    0 -0.00000000000E+00 -0.00000000000E+00 -0.45593999997E+02  0.45594000000E+02  0.51100000000E-03 0. -1.
    9900012    2    1    2    0    0 -0.34711137477E+02  0.18636105968E+02  0.21839093110E+02  0.46142317649E+02  0.99999989747E+01 0.  0.
         12    1    1    2    0    0  0.34711137477E+02 -0.18636105968E+02 -0.21839093110E+02  0.45045682351E+02  0.00000000000E+00 0. -1.
         11    1    3    3    0    0 -0.17726896272E+01 -0.24946522596E+00 -0.53279363069E+00  0.18677608860E+01  0.51100000000E-03 0. -1.
        -11    1    3    3    0    0 -0.29220367476E+02  0.15620980362E+02  0.20618276252E+02  0.39025097294E+02  0.51100000000E-03 0.  1.
        -12    1    3    3    0    0 -0.37180803739E+01  0.32645908326E+01  0.17536104882E+01  0.52494594688E+01  0.00000000000E+00 0.  1.
</event>
<event>
 7    1  0.1503436E-008  0.4614232E+02  0.7816164E-02  0.1320468E+00
        -11   -1    0    0    0    0  0.00000000000E+00  0.00000000000E+00  0.45593999997E+02  0.45594000000E+02  0.51100000000E-03 0.  1.
         11   -1    0    0    0    0 -0.00000000000E+00 -0.00000000000E+00 -0.45593999997E+02  0.45594000000E+02  0.51100000000E-03 0. -1.
    9900012    2    1    2    0    0  0.29035018644E+02 -0.58057479213E+01  0.33946641809E+02  0.46142317557E+02  0.99999981432E+01 0.  0.
         12    1    1    2    0    0 -0.29035018644E+02  0.58057479213E+01 -0.33946641809E+02  0.45045682443E+02  0.00000000000E+00 0. -1.
         11    1    3    3    0    0  0.89286959821E+01 -0.31696659372E+01  0.15601158517E+02  0.18252795441E+02  0.51100000000E-03 0. -1.
        -11    1    3    3    0    0  0.53114991214E+01  0.39315716627E+00  0.78985567139E+01  0.95264785676E+01  0.51100000000E-03 0.  1.
        -12    1    3    3    0    0  0.14794823541E+02 -0.30292391504E+01  0.10446926578E+02  0.18363043549E+02  0.00000000000E+00 0.  1.
</event>
<event>
 7    1  0.1503436E-008  0.4614232E+02  0.7816164E-02  0.1320468E+00
        -11   -1    0    0    0    0  0.00000000000E+00  0.00000000000E+00  0.45593999997E+02  0.45594000000E+02  0.51100000000E-03 0.  1.
         11   -1    0    0    0    0 -0.00000000000E+00 -0.00000000000E+00 -0.45593999997E+02  0.45594000000E+02  0.51100000000E-03 0. -1.
    9900012    2    1    2    0    0  0.33808787999E+02  0.29503646726E+02 -0.39514949250E+01  0.46142316209E+02  0.99999858435E+01 0.  0.
         12    1    1    2    0    0 -0.33808787999E+02 -0.29503646726E+02  0.39514949250E+01  0.45045683791E+02  0.00000000000E+00 0. -1.
         11    1    3    3    0    0  0.15862787090E+02  0.88813078655E+01 -0.14002842078E+01  0.18233662270E+02  0.51100000000E-03 0. -1.
        -11    1    3    3    0    0  0.17353772769E+02  0.18327896645E+02 -0.14125837214E+01  0.25279648292E+02  0.51100000000E-03 0.  1.
         12    1    3    3    0    0  0.59222813945E+00  0.22944422158E+01 -0.11386269958E+01  0.26290056459E+01  0.00000000000E+00 0. -1.
</event>
<event>
 7    1  0.1788738E-008  0.4614232E+02  0.7816164E-02  0.1320468E+00
        -11   -1    0    0    0    0  0.00000000000E+00  0.00000000000E+00  0.45593999997E+02  0.45594000000E+02  0.51100000000E-03 0. -1.
         11   -1    0    0    0    0 -0.00000000000E+00 -0.00000000000E+00 -0.45593999997E+02  0.45594000000E+02  0.51100000000E-03 0.  1.
    9900012    2    1    2    0    0  0.13103414467E+02 -0.18799986238E+01 -0.43056702178E+02  0.46142317988E+02  0.10000002070E+02 0.  0.
         12    1    1    2    0    0 -0.13103414467E+02  0.18799986238E+01  0.43056702178E+02  0.45045682012E+02  0.00000000000E+00 0. -1.
         11    1    3    3    0    0  0.50317109474E+00 -0.54107602277E+00 -0.11398277031E+00  0.74762072340E+00  0.51100000000E-03 0. -1.
        -11    1    3    3    0    0  0.73339118202E+01  0.25682090893E+01 -0.18025695811E+02  0.19629255469E+02  0.51100000000E-03 0.  1.
        -12    1    3    3    0    0  0.52663315516E+01 -0.39071316903E+01 -0.24917023596E+02  0.25765441796E+02  0.00000000000E+00 0.  1.
</event>
<event>
 7    1  0.1503436E-008  0.4614232E+02  0.7816164E-02  0.1320468E+00
        -11   -1    0    0    0    0  0.00000000000E+00  0.00000000000E+00  0.45593999997E+02  0.45594000000E+02  0.51100000000E-03 0.  1.
         11   -1    0    0    0    0 -0.00000000000E+00 -0.00000000000E+00 -0.45593999997E+02  0.45594000000E+02  0.51100000000E-03 0. -1.
    9900012    2    1    2    0    0  0.22738498464E+01  0.43310415542E+02  0.12171727407E+02  0.46142318346E+02  0.10000005336E+02 0.  0.
         12    1    1    2    0    0 -0.22738498464E+01 -0.43310415542E+02 -0.12171727407E+02  0.45045681654E+02  0.00000000000E+00 0. -1.
         11    1    3    3    0    0 -0.23723844380E+01  0.18232006249E+02  0.25787365004E+01  0.18565671062E+02  0.51100000000E-03 0. -1.
        -11    1    3    3    0    0  0.53956293064E+01  0.21416451101E+02  0.77223464391E+01  0.23396833721E+02  0.51100000000E-03 0.  1.
         12    1    3    3    0    0 -0.74939502194E+00  0.36619581931E+01  0.18706444671E+01  0.41798135639E+01  0.00000000000E+00 0. -1.
</event>
<event>
 7    1  0.1503436E-008  0.4614232E+02  0.7816164E-02  0.1320468E+00
        -11   -1    0    0    0    0  0.00000000000E+00  0.00000000000E+00  0.45593999997E+02  0.45594000000E+02  0.51100000000E-03 0.  1.
         11   -1    0    0    0    0 -0.00000000000E+00 -0.00000000000E+00 -0.45593999997E+02  0.45594000000E+02  0.51100000000E-03 0. -1.
    9900012    2    1    2    0    0 -0.12586035379E+02 -0.42044022461E+02  0.10149161371E+02  0.46142316657E+02  0.99999899314E+01 0.  0.
         12    1    1    2    0    0  0.12586035379E+02  0.42044022461E+02 -0.10149161371E+02  0.45045683343E+02  0.00000000000E+00 0. -1.
         11    1    3    3    0    0 -0.46539017650E+01 -0.16315726062E+02  0.88859371954E+01  0.19152587258E+02  0.51100000000E-03 0. -1.
        -11    1    3    3    0    0 -0.43626355583E+01 -0.11770307377E+02  0.53953171910E+00  0.12564386953E+02  0.51100000000E-03 0.  1.
         12    1    3    3    0    0 -0.35694980558E+01 -0.13957989022E+02  0.72369245687E+00  0.14425342446E+02  0.00000000000E+00 0. -1.
</event>
<event>
 7    1  0.1503436E-008  0.4614232E+02  0.7816164E-02  0.1320468E+00
        -11   -1    0    0    0    0  0.00000000000E+00  0.00000000000E+00  0.45593999997E+02  0.45594000000E+02  0.51100000000E-03 0.  1.
         11   -1    0    0    0    0 -0.00000000000E+00 -0.00000000000E+00 -0.45593999997E+02  0.45594000000E+02  0.51100000000E-03 0. -1.
    9900012    2    1    2    0    0  0.13436452674E+02 -0.10138668660E+01  0.42983104663E+02  0.46142317932E+02  0.10000001557E+02 0.  0.
         12    1    1    2    0    0 -0.13436452674E+02  0.10138668660E+01 -0.42983104663E+02  0.45045682068E+02  0.00000000000E+00 0. -1.
         11    1    3    3    0    0  0.25047671145E+01 -0.17900053512E+01  0.14988016209E+02  0.15300934860E+02  0.51100000000E-03 0. -1.
        -11    1    3    3    0    0  0.41351575060E+01  0.27623320249E+01  0.17410144678E+02  0.18106439290E+02  0.51100000000E-03 0.  1.
         12    1    3    3    0    0  0.67965280537E+01 -0.19861935396E+01  0.10584943777E+02  0.12734943782E+02  0.00000000000E+00 0. -1.
</event>
<event>
 7    1  0.1503436E-008  0.4614232E+02  0.7816164E-02  0.1320468E+00
        -11   -1    0    0    0    0  0.00000000000E+00  0.00000000000E+00  0.45593999997E+02  0.45594000000E+02  0.51100000000E-03 0. -1.
         11   -1    0    0    0    0 -0.00000000000E+00 -0.00000000000E+00 -0.45593999997E+02  0.45594000000E+02  0.51100000000E-03 0.  1.
    9900012    2    1    2    0    0  0.36527220840E+02 -0.15890808555E+02 -0.21032309584E+02  0.46142315353E+02  0.99999780439E+01 0.  0.
         12    1    1    2    0    0 -0.36527220840E+02  0.15890808555E+02  0.21032309584E+02  0.45045684647E+02  0.00000000000E+00 0. -1.
         11    1    3    3    0    0  0.62992268888E+01 -0.21335679600E+01 -0.59019087361E+01  0.88918445008E+01  0.51100000000E-03 0.  1.
        -11    1    3    3    0    0  0.27095640859E+00 -0.20109241142E+00  0.68470942336E+00  0.76333661569E+00  0.51100000000E-03 0. -1.
        -12    1    3    3    0    0  0.29957037543E+02 -0.13556148184E+02 -0.15815110272E+02  0.36487134237E+02  0.00000000000E+00 0.  1.
</event>
<event>
 7    1  0.1503436E-008  0.4614231E+02  0.7816164E-02  0.1320468E+00
        -11   -1    0    0    0    0  0.00000000000E+00  0.00000000000E+00  0.45593999997E+02  0.45594000000E+02  0.51100000000E-03 0. -1.
         11   -1    0    0    0    0 -0.00000000000E+00 -0.00000000000E+00 -0.45593999997E+02  0.45594000000E+02  0.51100000000E-03 0.  1.
    9900012    2    1    2    0    0  0.17514537515E+02 -0.15501144913E+02 -0.38497652611E+02  0.46142314585E+02  0.99999710354E+01 0.  0.
         12    1    1    2    0    0 -0.17514537515E+02  0.15501144913E+02  0.38497652611E+02  0.45045685415E+02  0.00000000000E+00 0. -1.
         11    1    3    3    0    0  0.84141220336E+01 -0.56043256343E+01 -0.12099794813E+02  0.15767401504E+02  0.51100000000E-03 0. -1.
        -11    1    3    3    0    0  0.58569386940E+01 -0.23646759939E+01 -0.77105570694E+01  0.99673524069E+01  0.51100000000E-03 0.  1.
        -12    1    3    3    0    0  0.32434767871E+01 -0.75321432848E+01 -0.18687300729E+02  0.20407560674E+02  0.00000000000E+00 0.  1.
</event>
<event>
 7    1  0.1503436E-008  0.4614232E+02  0.7816164E-02  0.1320468E+00
        -11   -1    0    0    0    0  0.00000000000E+00  0.00000000000E+00  0.45593999997E+02  0.45594000000E+02  0.51100000000E-03 0. -1.
         11   -1    0    0    0    0 -0.00000000000E+00 -0.00000000000E+00 -0.45593999997E+02  0.45594000000E+02  0.51100000000E-03 0.  1.
    9900012    2    1    2    0    0  0.37834451525E+02 -0.15189911549E+01 -0.24400008227E+02  0.46142318100E+02  0.10000003091E+02 0.  0.
         12    1    1    2    0    0 -0.37834451525E+02  0.15189911549E+01  0.24400008227E+02  0.45045681900E+02  0.00000000000E+00 0. -1.
         11    1    3    3    0    0  0.37574408946E+01 -0.22995201230E+01 -0.34073018864E+01  0.55691885655E+01  0.51100000000E-03 0. -1.
        -11    1    3    3    0    0  0.19996724485E+02  0.35482813197E+01 -0.13481528124E+02  0.24376441316E+02  0.51100000000E-03 0.  1.
        -12    1    3    3    0    0  0.14080286146E+02 -0.27677523516E+01 -0.75111782174E+01  0.16196688218E+02  0.00000000000E+00 0.  1.
</event>
<event>
 7    1  0.1503436E-008  0.4614232E+02  0.7816164E-02  0.1320468E+00
        -11   -1    0    0    0    0  0.00000000000E+00  0.00000000000E+00  0.45593999997E+02  0.45594000000E+02  0.51100000000E-03 0.  1.
         11   -1    0    0    0    0 -0.00000000000E+00 -0.00000000000E+00 -0.45593999997E+02  0.45594000000E+02  0.51100000000E-03 0. -1.
    9900012    2    1    2    0    0 -0.87526033353E+01 -0.33599018231E+02  0.28698629738E+02  0.46142318297E+02  0.10000004888E+02 0.  0.
         12    1    1    2    0    0  0.87526033353E+01  0.33599018231E+02 -0.28698629738E+02  0.45045681703E+02  0.00000000000E+00 0. -1.
         11    1    3    3    0    0 -0.29593316423E+01 -0.13530551227E+02  0.17079689895E+02  0.21989753692E+02  0.51100000000E-03 0. -1.
        -11    1    3    3    0    0 -0.17031859479E+01 -0.11851419267E+02  0.71247578439E+01  0.13932665058E+02  0.51100000000E-03 0.  1.
         12    1    3    3    0    0 -0.40900857451E+01 -0.82170477373E+01  0.44941819994E+01  0.10219899548E+02  0.00000000000E+00 0. -1.
</event>
<event>
 7    1  0.1503436E-008  0.4614232E+02  0.7816164E-02  0.1320468E+00
        -11   -1    0    0    0    0  0.00000000000E+00  0.00000000000E+00  0.45593999997E+02  0.45594000000E+02  0.51100000000E-03 0.  1.
         11   -1    0    0    0    0 -0.00000000000E+00 -0.00000000000E+00 -0.45593999997E+02  0.45594000000E+02  0.51100000000E-03 0. -1.
    9900012    2    1    2    0    0 -0.18589986552E+02 -0.45518190438E+00  0.41028263911E+02  0.46142320628E+02  0.10000026143E+02 0.  0.
         12    1    1    2    0    0  0.18589986552E+02  0.45518190438E+00 -0.41028263911E+02  0.45045679372E+02  0.00000000000E+00 0. -1.
         11    1    3    3    0    0 -0.14234070590E+01  0.16634688673E+01  0.94398773191E+00  0.23841831782E+01  0.51100000000E-03 0. -1.
        -11    1    3    3    0    0 -0.66921033155E+01 -0.88107566228E+00  0.19385375160E+02  0.20526892397E+02  0.51100000000E-03 0.  1.
         12    1    3    3    0    0 -0.10474476177E+02 -0.12375751094E+01  0.20698901019E+02  0.23231245053E+02  0.00000000000E+00 0. -1.
</event>
<event>
 7    1  0.1503436E-008  0.4614232E+02  0.7816164E-02  0.1320468E+00
        -11   -1    0    0    0    0  0.00000000000E+00  0.00000000000E+00  0.45593999997E+02  0.45594000000E+02  0.51100000000E-03 0. -1.
         11   -1    0    0    0    0 -0.00000000000E+00 -0.00000000000E+00 -0.45593999997E+02  0.45594000000E+02  0.51100000000E-03 0.  1.
    9900012    2    1    2    0    0  0.30041924723E+02 -0.29754295686E+02  0.15533111939E+02  0.46142324077E+02  0.10000057598E+02 0.  0.
         12    1    1    2    0    0 -0.30041924723E+02  0.29754295686E+02 -0.15533111939E+02  0.45045675923E+02  0.00000000000E+00 0. -1.
         11    1    3    3    0    0  0.82427855767E+01 -0.65477163862E+01  0.12814435235E+00  0.10527702749E+02  0.51100000000E-03 0. -1.
        -11    1    3    3    0    0  0.27420448116E+01 -0.32416377399E+01  0.58105449656E+00  0.42853995817E+01  0.51100000000E-03 0.  1.
         12    1    3    3    0    0  0.19057094335E+02 -0.19964941560E+02  0.14823913090E+02  0.31329221747E+02  0.00000000000E+00 0. -1.
</event>
<event>
 7    1  0.1503436E-008  0.4614232E+02  0.7816164E-02  0.1320468E+00
        -11   -1    0    0    0    0  0.00000000000E+00  0.00000000000E+00  0.45593999997E+02  0.45594000000E+02  0.51100000000E-03 0.  1.
         11   -1    0    0    0    0 -0.00000000000E+00 -0.00000000000E+00 -0.45593999997E+02  0.45594000000E+02  0.51100000000E-03 0. -1.
    9900012    2    1    2    0    0  0.32530153848E+01 -0.44802261003E+02 -0.33598655463E+01  0.46142318780E+02  0.10000009288E+02 0.  0.
         12    1    1    2    0    0 -0.32530153848E+01  0.44802261003E+02  0.33598655463E+01  0.45045681220E+02  0.00000000000E+00 0. -1.
         11    1    3    3    0    0 -0.23943520759E+01 -0.19596987495E+02  0.10195912507E+01  0.19769026463E+02  0.51100000000E-03 0. -1.
        -11    1    3    3    0    0  0.43230768524E+01 -0.13387294598E+02 -0.31638088843E+01  0.14419373670E+02  0.51100000000E-03 0.  1.
         12    1    3    3    0    0  0.13242906084E+01 -0.11817978911E+02 -0.12156479127E+01  0.11953918646E+02  0.00000000000E+00 0. -1.
</event>
<event>
 7    1  0.1503436E-008  0.4614232E+02  0.7816164E-02  0.1320468E+00
        -11   -1    0    0    0    0  0.00000000000E+00  0.00000000000E+00  0.45593999997E+02  0.45594000000E+02  0.51100000000E-03 0. -1.
         11   -1    0    0    0    0 -0.00000000000E+00 -0.00000000000E+00 -0.45593999997E+02  0.45594000000E+02  0.51100000000E-03 0.  1.
    9900012    2    1    2    0    0 -0.36256854285E+02 -0.25371144343E+02 -0.84177810261E+01  0.46142317794E+02  0.10000000304E+02 0.  0.
         12    1    1    2    0    0  0.36256854285E+02  0.25371144343E+02  0.84177810261E+01  0.45045682206E+02  0.00000000000E+00 0. -1.
         11    1    3    3    0    0 -0.13335807895E+02 -0.69718493443E+01  0.10515912245E+01  0.15084969335E+02  0.51100000000E-03 0. -1.
        -11    1    3    3    0    0 -0.13434849777E+02 -0.86735156328E+01 -0.49828264884E+01  0.16749734984E+02  0.51100000000E-03 0.  1.
         12    1    3    3    0    0 -0.94861966134E+01 -0.97257793661E+01 -0.44865457622E+01  0.14307613475E+02  0.00000000000E+00 0. -1.
</event>
<event>
 7    1  0.1503436E-008  0.4614232E+02  0.7816164E-02  0.1320468E+00
        -11   -1    0    0    0    0  0.00000000000E+00  0.00000000000E+00  0.45593999997E+02  0.45594000000E+02  0.51100000000E-03 0.  1.
         11   -1    0    0    0    0 -0.00000000000E+00 -0.00000000000E+00 -0.45593999997E+02  0.45594000000E+02  0.51100000000E-03 0. -1.
    9900012    2    1    2    0    0  0.92543728195E+01  0.18425800480E+02  0.40049468638E+02  0.46142317878E+02  0.10000001069E+02 0.  0.
         12    1    1    2    0    0 -0.92543728195E+01 -0.18425800480E+02 -0.40049468638E+02  0.45045682122E+02  0.00000000000E+00 0. -1.
         11    1    3    3    0    0  0.29274927067E+01  0.30101516816E+00  0.79486378925E+01  0.84759464537E+01  0.51100000000E-03 0. -1.
        -11    1    3    3    0    0  0.63170589525E+01  0.16118519400E+02  0.30611087554E+02  0.35167464835E+02  0.51100000000E-03 0.  1.
        -12    1    3    3    0    0  0.98211602967E-02  0.20062659120E+01  0.14897431921E+01  0.24989065895E+01  0.00000000000E+00 0.  1.
</event>
<event>
 7    1  0.1503436E-008  0.4614232E+02  0.7816164E-02  0.1320468E+00
        -11   -1    0    0    0    0  0.00000000000E+00  0.00000000000E+00  0.45593999997E+02  0.45594000000E+02  0.51100000000E-03 0.  1.
         11   -1    0    0    0    0 -0.00000000000E+00 -0.00000000000E+00 -0.45593999997E+02  0.45594000000E+02  0.51100000000E-03 0. -1.
    9900012    2    1    2    0    0  0.24766459227E+02  0.36384900299E+02  0.95851410460E+01  0.46142318727E+02  0.10000008812E+02 0.  0.
         12    1    1    2    0    0 -0.24766459227E+02 -0.36384900299E+02 -0.95851410460E+01  0.45045681273E+02  0.00000000000E+00 0. -1.
         11    1    3    3    0    0  0.42403513132E+01  0.11633058736E+02  0.25845020076E+01  0.12648647584E+02  0.51100000000E-03 0. -1.
        -11    1    3    3    0    0  0.49944923904E+00  0.18191676085E+01  0.17980489704E+01  0.26061083422E+01  0.51100000000E-03 0.  1.
         12    1    3    3    0    0  0.20026658675E+02  0.22932673955E+02  0.52025900679E+01  0.30887562802E+02  0.00000000000E+00 0. -1.
</event>
<event>
 7    1  0.1503436E-008  0.4614232E+02  0.7816164E-02  0.1320468E+00
        -11   -1    0    0    0    0  0.00000000000E+00  0.00000000000E+00  0.45593999997E+02  0.45594000000E+02  0.51100000000E-03 0.  1.
         11   -1    0    0    0    0 -0.00000000000E+00 -0.00000000000E+00 -0.45593999997E+02  0.45594000000E+02  0.51100000000E-03 0. -1.
    9900012    2    1    2    0    0  0.31069988268E+02 -0.30669342940E+02  0.11097783310E+02  0.46142316946E+02  0.99999925674E+01 0.  0.
         12    1    1    2    0    0 -0.31069988268E+02  0.30669342940E+02 -0.11097783310E+02  0.45045683054E+02  0.00000000000E+00 0. -1.
         11    1    3    3    0    0 -0.58698585195E+00 -0.28573052283E+00  0.57010936811E-01  0.65532040263E+00  0.51100000000E-03 0. -1.
        -11    1    3    3    0    0  0.18532070196E+02 -0.15066897049E+02  0.72761268447E+01  0.24967799954E+02  0.51100000000E-03 0.  1.
        -12    1    3    3    0    0  0.13124903925E+02 -0.15316715369E+02  0.37646455288E+01  0.20519196590E+02  0.00000000000E+00 0.  1.
</event>
<event>
 7    1  0.1503436E-008  0.4614232E+02  0.7816164E-02  0.1320468E+00
        -11   -1    0    0    0    0  0.00000000000E+00  0.00000000000E+00  0.45593999997E+02  0.45594000000E+02  0.51100000000E-03 0.  1.
         11   -1    0    0    0    0 -0.00000000000E+00 -0.00000000000E+00 -0.45593999997E+02  0.45594000000E+02  0.51100000000E-03 0. -1.
    9900012    2    1    2    0    0  0.39428424567E+02 -0.18132935782E+02  0.12071019822E+02  0.46142317150E+02  0.99999944244E+01 0.  0.
         12    1    1    2    0    0 -0.39428424567E+02  0.18132935782E+02 -0.12071019822E+02  0.45045682850E+02  0.00000000000E+00 0. -1.
         11    1    3    3    0    0  0.68767548603E+01 -0.37830270067E+01  0.16149453997E+01  0.80130580709E+01  0.51100000000E-03 0. -1.
        -11    1    3    3    0    0  0.13548958445E+02 -0.13580808209E+01  0.46506266550E+01  0.14389127389E+02  0.51100000000E-03 0.  1.
        -12    1    3    3    0    0  0.19002711262E+02 -0.12991827954E+02  0.58054477676E+01  0.23740131690E+02  0.00000000000E+00 0.  1.
</event>
<event>
 7    1  0.1503436E-008  0.4614232E+02  0.7816164E-02  0.1320468E+00
        -11   -1    0    0    0    0  0.00000000000E+00  0.00000000000E+00  0.45593999997E+02  0.45594000000E+02  0.51100000000E-03 0.  1.
         11   -1    0    0    0    0 -0.00000000000E+00 -0.00000000000E+00 -0.45593999997E+02  0.45594000000E+02  0.51100000000E-03 0. -1.
    9900012    2    1    2    0    0 -0.25368835102E+02 -0.23921871169E+02  0.28518062522E+02  0.46142316470E+02  0.99999882239E+01 0.  0.
         12    1    1    2    0    0  0.25368835102E+02  0.23921871169E+02 -0.28518062522E+02  0.45045683530E+02  0.00000000000E+00 0. -1.
         11    1    3    3    0    0 -0.12046831969E+01  0.12241309061E+00  0.85886481854E+00  0.14845523255E+01  0.51100000000E-03 0. -1.
        -11    1    3    3    0    0 -0.11038404067E+02 -0.13833667516E+02  0.18784070964E+02  0.25808100347E+02  0.51100000000E-03 0.  1.
        -12    1    3    3    0    0 -0.13125747838E+02 -0.10210616744E+02  0.88751267393E+01  0.18849663797E+02  0.00000000000E+00 0.  1.
</event>
<event>
 7    1  0.1503436E-008  0.4614232E+02  0.7816164E-02  0.1320468E+00
        -11   -1    0    0    0    0  0.00000000000E+00  0.00000000000E+00  0.45593999997E+02  0.45594000000E+02  0.51100000000E-03 0.  1.
         11   -1    0    0    0    0 -0.00000000000E+00 -0.00000000000E+00 -0.45593999997E+02  0.45594000000E+02  0.51100000000E-03 0. -1.
    9900012    2    1    2    0    0 -0.34953664870E+02 -0.66197011544E+01  0.27632126761E+02  0.46142316960E+02  0.99999926961E+01 0.  0.
         12    1    1    2    0    0  0.34953664870E+02  0.66197011544E+01 -0.27632126761E+02  0.45045683040E+02  0.00000000000E+00 0. -1.
         11    1    3    3    0    0 -0.26486240968E+01 -0.15470567235E+01  0.25975734654E+01  0.40194504949E+01  0.51100000000E-03 0. -1.
        -11    1    3    3    0    0 -0.27698001886E+02 -0.38221481875E+01  0.16842377194E+02  0.32641289727E+02  0.51100000000E-03 0.  1.
        -12    1    3    3    0    0 -0.46070388866E+01 -0.12504962434E+01  0.81921761014E+01  0.94815767377E+01  0.00000000000E+00 0.  1.
</event>
<event>
 7    1  0.1503436E-008  0.4614233E+02  0.7816164E-02  0.1320468E+00
        -11   -1    0    0    0    0  0.00000000000E+00  0.00000000000E+00  0.45593999997E+02  0.45594000000E+02  0.51100000000E-03 0.  1.
         11   -1    0    0    0    0 -0.00000000000E+00 -0.00000000000E+00 -0.45593999997E+02  0.45594000000E+02  0.51100000000E-03 0. -1.
    9900012    2    1    2    0    0 -0.15152144956E+02  0.32289176172E+02  0.27512438505E+02  0.46142326877E+02  0.10000083123E+02 0.  0.
         12    1    1    2    0    0  0.15152144956E+02 -0.32289176172E+02 -0.27512438505E+02  0.45045673123E+02  0.00000000000E+00 0. -1.
         11    1    3    3    0    0 -0.13926234857E+02  0.28696639051E+02  0.23532943163E+02  0.39638825970E+02  0.51100000000E-03 0. -1.
        -11    1    3    3    0    0 -0.11607384421E+01  0.30709393414E+00  0.27398085985E+01  0.29913495002E+01  0.51100000000E-03 0.  1.
         12    1    3    3    0    0 -0.65171656372E-01  0.32854431866E+01  0.12396867438E+01  0.35121514062E+01  0.00000000000E+00 0. -1.
</event>
<event>
 7    1  0.1503436E-008  0.4614232E+02  0.7816164E-02  0.1320468E+00
        -11   -1    0    0    0    0  0.00000000000E+00  0.00000000000E+00  0.45593999997E+02  0.45594000000E+02  0.51100000000E-03 0.  1.
         11   -1    0    0    0    0 -0.00000000000E+00 -0.00000000000E+00 -0.45593999997E+02  0.45594000000E+02  0.51100000000E-03 0. -1.
    9900012    2    1    2    0    0 -0.11551140896E+02 -0.57729346014E+01  0.43155040436E+02  0.46142321573E+02  0.10000034761E+02 0.  0.
         12    1    1    2    0    0  0.11551140896E+02  0.57729346014E+01 -0.43155040436E+02  0.45045678427E+02  0.00000000000E+00 0. -1.
         11    1    3    3    0    0 -0.15253524415E+01  0.15992198564E+01  0.27701608318E+01  0.35437262190E+01  0.51100000000E-03 0. -1.
        -11    1    3    3    0    0 -0.63831107743E+01 -0.23457076332E+01  0.27016774451E+02  0.27859514523E+02  0.51100000000E-03 0.  1.
         12    1    3    3    0    0 -0.36426776802E+01 -0.50264468245E+01  0.13368105153E+02  0.14739080831E+02  0.00000000000E+00 0. -1.
</event>
<event>
 7    1  0.1503436E-008  0.4614232E+02  0.7816164E-02  0.1320468E+00
        -11   -1    0    0    0    0  0.00000000000E+00  0.00000000000E+00  0.45593999997E+02  0.45594000000E+02  0.51100000000E-03 0.  1.
         11   -1    0    0    0    0 -0.00000000000E+00 -0.00000000000E+00 -0.45593999997E+02  0.45594000000E+02  0.51100000000E-03 0. -1.
    9900012    2    1    2    0    0  0.44882773728E+02  0.30894695407E+01 -0.22594881543E+01  0.46142317785E+02  0.10000000214E+02 0.  0.
         12    1    1    2    0    0 -0.44882773728E+02 -0.30894695407E+01  0.22594881543E+01  0.45045682215E+02  0.00000000000E+00 0. -1.
         11    1    3    3    0    0  0.13755522049E+02 -0.28541665989E+01 -0.31486432949E+00  0.14052038771E+02  0.51100000000E-03 0. -1.
        -11    1    3    3    0    0  0.12434784544E+01  0.10418005253E+01  0.52900130276E+00  0.17062911945E+01  0.51100000000E-03 0.  1.
         12    1    3    3    0    0  0.29883773224E+02  0.49018356144E+01 -0.24736251275E+01  0.30383987819E+02  0.00000000000E+00 0. -1.
</event>
<event>
 7    1  0.1503436E-008  0.4614232E+02  0.7816164E-02  0.1320468E+00
        -11   -1    0    0    0    0  0.00000000000E+00  0.00000000000E+00  0.45593999997E+02  0.45594000000E+02  0.51100000000E-03 0.  1.
         11   -1    0    0    0    0 -0.00000000000E+00 -0.00000000000E+00 -0.45593999997E+02  0.45594000000E+02  0.51100000000E-03 0. -1.
    9900012    2    1    2    0    0  0.19456597439E+02 -0.17395736781E+02  0.36714336960E+02  0.46142318959E+02  0.10000010921E+02 0.  0.
         12    1    1    2    0    0 -0.19456597439E+02  0.17395736781E+02 -0.36714336960E+02  0.45045681041E+02  0.00000000000E+00 0. -1.
         11    1    3    3    0    0  0.53415468462E+01 -0.14834889547E+01  0.86760522101E+01  0.10295957673E+02  0.51100000000E-03 0. -1.
        -11    1    3    3    0    0  0.14874198120E+02 -0.14910730923E+02  0.26758087689E+02  0.34052414355E+02  0.51100000000E-03 0.  1.
         12    1    3    3    0    0 -0.75914752714E+00 -0.10015169036E+01  0.12801970611E+01  0.17939469310E+01  0.00000000000E+00 0. -1.
</event>
<event>
 7    1  0.1503436E-008  0.4614232E+02  0.7816164E-02  0.1320468E+00
        -11   -1    0    0    0    0  0.00000000000E+00  0.00000000000E+00  0.45593999997E+02  0.45594000000E+02  0.51100000000E-03 0.  1.
         11   -1    0    0    0    0 -0.00000000000E+00 -0.00000000000E+00 -0.45593999997E+02  0.45594000000E+02  0.51100000000E-03 0. -1.
    9900012    2    1    2    0    0  0.15044586682E+01 -0.18410041715E+02  0.41084310143E+02  0.46142316835E+02  0.99999915571E+01 0.  0.
         12    1    1    2    0    0 -0.15044586682E+01  0.18410041715E+02 -0.41084310143E+02  0.45045683165E+02  0.00000000000E+00 0. -1.
         11    1    3    3    0    0 -0.90386986668E+00 -0.60174064207E+01  0.12734763531E+02  0.14113835879E+02  0.51100000000E-03 0. -1.
        -11    1    3    3    0    0 -0.18928283924E+01 -0.83651365259E+01  0.20430641129E+02  0.22157829443E+02  0.51100000000E-03 0.  1.
        -12    1    3    3    0    0  0.43011569273E+01 -0.40274987685E+01  0.79189054827E+01  0.98706515128E+01  0.00000000000E+00 0.  1.
</event>
<event>
 7    1  0.1503436E-008  0.4614232E+02  0.7816164E-02  0.1320468E+00
        -11   -1    0    0    0    0  0.00000000000E+00  0.00000000000E+00  0.45593999997E+02  0.45594000000E+02  0.51100000000E-03 0. -1.
         11   -1    0    0    0    0 -0.00000000000E+00 -0.00000000000E+00 -0.45593999997E+02  0.45594000000E+02  0.51100000000E-03 0.  1.
    9900012    2    1    2    0    0  0.11885423184E+02  0.34405005986E+02 -0.26535744177E+02  0.46142318296E+02  0.10000004876E+02 0.  0.
         12    1    1    2    0    0 -0.11885423184E+02 -0.34405005986E+02  0.26535744177E+02  0.45045681704E+02  0.00000000000E+00 0. -1.
         11    1    3    3    0    0  0.29071741857E+01  0.21141518121E+02 -0.16359456277E+02  0.26889538117E+02  0.51100000000E-03 0.  1.
        -11    1    3    3    0    0  0.89648326722E+01  0.11850673162E+02 -0.87462252256E+01  0.17242480541E+02  0.51100000000E-03 0. -1.
         12    1    3    3    0    0  0.13416326497E-01  0.14128147031E+01 -0.14300626745E+01  0.20102996384E+01  0.00000000000E+00 0. -1.
</event>
<event>
 7    1  0.1503436E-008  0.4614232E+02  0.7816164E-02  0.1320468E+00
        -11   -1    0    0    0    0  0.00000000000E+00  0.00000000000E+00  0.45593999997E+02  0.45594000000E+02  0.51100000000E-03 0. -1.
         11   -1    0    0    0    0 -0.00000000000E+00 -0.00000000000E+00 -0.45593999997E+02  0.45594000000E+02  0.51100000000E-03 0.  1.
    9900012    2    1    2    0    0 -0.33580014719E+02  0.60002563160E+01 -0.29419262867E+02  0.46142317721E+02  0.99999996326E+01 0.  0.
         12    1    1    2    0    0  0.33580014719E+02 -0.60002563160E+01  0.29419262867E+02  0.45045682279E+02  0.00000000000E+00 0. -1.
         11    1    3    3    0    0 -0.81132167050E+01 -0.89914166514E+00 -0.49659020045E+01  0.95547330688E+01  0.51100000000E-03 0. -1.
        -11    1    3    3    0    0 -0.12705684208E+02  0.45161976431E+01 -0.81838408261E+01  0.15773576109E+02  0.51100000000E-03 0.  1.
        -12    1    3    3    0    0 -0.12761113806E+02  0.23832003380E+01 -0.16269520036E+02  0.20814008543E+02  0.00000000000E+00 0.  1.
</event>
<event>
 7    1  0.1503436E-008  0.4614232E+02  0.7816164E-02  0.1320468E+00
        -11   -1    0    0    0    0  0.00000000000E+00  0.00000000000E+00  0.45593999997E+02  0.45594000000E+02  0.51100000000E-03 0.  1.
         11   -1    0    0    0    0 -0.00000000000E+00 -0.00000000000E+00 -0.45593999997E+02  0.45594000000E+02  0.51100000000E-03 0. -1.
    9900012    2    1    2    0    0  0.74547209693E+01  0.12861343839E+02  0.42522072063E+02  0.46142316049E+02  0.99999843842E+01 0.  0.
         12    1    1    2    0    0 -0.74547209693E+01 -0.12861343839E+02 -0.42522072063E+02  0.45045683951E+02  0.00000000000E+00 0. -1.
         11    1    3    3    0    0 -0.80698453867E-01  0.13619620343E+01  0.20837086901E+01  0.24906414816E+01  0.51100000000E-03 0. -1.
        -11    1    3    3    0    0  0.91492965970E+01  0.99294771793E+01  0.28937189920E+02  0.31932195446E+02  0.51100000000E-03 0.  1.
        -12    1    3    3    0    0 -0.16138771739E+01  0.15699046256E+01  0.11501173453E+02  0.11719479121E+02  0.00000000000E+00 0.  1.
</event>
<event>
 7    1  0.1503436E-008  0.4614232E+02  0.7816164E-02  0.1320468E+00
        -11   -1    0    0    0    0  0.00000000000E+00  0.00000000000E+00  0.45593999997E+02  0.45594000000E+02  0.51100000000E-03 0.  1.
         11   -1    0    0    0    0 -0.00000000000E+00 -0.00000000000E+00 -0.45593999997E+02  0.45594000000E+02  0.51100000000E-03 0. -1.
    9900012    2    1    2    0    0  0.20404361765E+02 -0.39727239917E+02 -0.58755236139E+01  0.46142319317E+02  0.10000014184E+02 0.  0.
         12    1    1    2    0    0 -0.20404361765E+02  0.39727239917E+02  0.58755236139E+01  0.45045680683E+02  0.00000000000E+00 0. -1.
         11    1    3    3    0    0  0.78567521859E+01 -0.14068023585E+02  0.77515246820E+00  0.16131915699E+02  0.51100000000E-03 0.  1.
        -11    1    3    3    0    0  0.14404025387E+01 -0.11250183251E+01 -0.19487156625E+01  0.26716883613E+01  0.51100000000E-03 0. -1.
         12    1    3    3    0    0  0.11107207041E+02 -0.24534198007E+02 -0.47019604195E+01  0.27338715256E+02  0.00000000000E+00 0. -1.
</event>
<event>
 7    1  0.1503436E-008  0.4614232E+02  0.7816164E-02  0.1320468E+00
        -11   -1    0    0    0    0  0.00000000000E+00  0.00000000000E+00  0.45593999997E+02  0.45594000000E+02  0.51100000000E-03 0.  1.
         11   -1    0    0    0    0 -0.00000000000E+00 -0.00000000000E+00 -0.45593999997E+02  0.45594000000E+02  0.51100000000E-03 0. -1.
    9900012    2    1    2    0    0 -0.23614518162E+02 -0.34036011186E+02  0.17692315323E+02  0.46142317110E+02  0.99999940635E+01 0.  0.
         12    1    1    2    0    0  0.23614518162E+02  0.34036011186E+02 -0.17692315323E+02  0.45045682890E+02  0.00000000000E+00 0. -1.
         11    1    3    3    0    0 -0.91518987245E+01 -0.85070622540E+01  0.62929323979E+01  0.13990295096E+02  0.51100000000E-03 0. -1.
        -11    1    3    3    0    0 -0.29274596667E+01 -0.71452457328E+01  0.60232353968E+01  0.97930547628E+01  0.51100000000E-03 0.  1.
         12    1    3    3    0    0 -0.11535159771E+02 -0.18383703200E+02  0.53761475284E+01  0.22358967251E+02  0.00000000000E+00 0. -1.
</event>
<event>
 7    1  0.1503436E-008  0.4614232E+02  0.7816164E-02  0.1320468E+00
        -11   -1    0    0    0    0  0.00000000000E+00  0.00000000000E+00  0.45593999997E+02  0.45594000000E+02  0.51100000000E-03 0. -1.
         11   -1    0    0    0    0 -0.00000000000E+00 -0.00000000000E+00 -0.45593999997E+02  0.45594000000E+02  0.51100000000E-03 0.  1.
    9900012    2    1    2    0    0  0.25121803079E+02 -0.24726949428E+02 -0.28046144584E+02  0.46142320474E+02  0.10000024736E+02 0.  0.
         12    1    1    2    0    0 -0.25121803079E+02  0.24726949428E+02  0.28046144584E+02  0.45045679526E+02  0.00000000000E+00 0. -1.
         11    1    3    3    0    0  0.29699511321E+01 -0.60483805088E+01 -0.48039069572E+01  0.82753271126E+01  0.51100000000E-03 0.  1.
        -11    1    3    3    0    0  0.54499684223E+00 -0.32775745087E+01 -0.20045098902E+01  0.38804093056E+01  0.51100000000E-03 0. -1.
        -12    1    3    3    0    0  0.21606855105E+02 -0.15400994410E+02 -0.21237727737E+02  0.33986584055E+02  0.00000000000E+00 0.  1.
</event>
<event>
 7    1  0.1503436E-008  0.4614232E+02  0.7816164E-02  0.1320468E+00
        -11   -1    0    0    0    0  0.00000000000E+00  0.00000000000E+00  0.45593999997E+02  0.45594000000E+02  0.51100000000E-03 0.  1.
         11   -1    0    0    0    0 -0.00000000000E+00 -0.00000000000E+00 -0.45593999997E+02  0.45594000000E+02  0.51100000000E-03 0. -1.
    9900012    2    1    2    0    0  0.62977997442E+01 -0.36467536666E+02  0.25682098101E+02  0.46142315690E+02  0.99999811148E+01 0.  0.
         12    1    1    2    0    0 -0.62977997442E+01  0.36467536666E+02 -0.25682098101E+02  0.45045684310E+02  0.00000000000E+00 0. -1.
         11    1    3    3    0    0  0.41552520001E+01 -0.26617127309E+02  0.13623757791E+02  0.30188480617E+02  0.51100000000E-03 0. -1.
        -11    1    3    3    0    0  0.21890429448E+01 -0.37329869451E+01  0.48855993749E+01  0.65265750635E+01  0.51100000000E-03 0.  1.
         12    1    3    3    0    0 -0.46495200753E-01 -0.61174224117E+01  0.71727409346E+01  0.94272600093E+01  0.00000000000E+00 0. -1.
</event>
<event>
 7    1  0.1503436E-008  0.4614232E+02  0.7816164E-02  0.1320468E+00
        -11   -1    0    0    0    0  0.00000000000E+00  0.00000000000E+00  0.45593999997E+02  0.45594000000E+02  0.51100000000E-03 0.  1.
         11   -1    0    0    0    0 -0.00000000000E+00 -0.00000000000E+00 -0.45593999997E+02  0.45594000000E+02  0.51100000000E-03 0. -1.
    9900012    2    1    2    0    0 -0.29433046148E+00 -0.34226300621E+02  0.29284588407E+02  0.46142318711E+02  0.10000008659E+02 0.  0.
         12    1    1    2    0    0  0.29433046148E+00  0.34226300621E+02 -0.29284588407E+02  0.45045681289E+02  0.00000000000E+00 0. -1.
         11    1    3    3    0    0  0.10653007563E+00 -0.35470552377E-01  0.24137022888E+01  0.24163124419E+01  0.51100000000E-03 0. -1.
        -11    1    3    3    0    0 -0.11979196597E+01 -0.30501636725E+02  0.22327047740E+02  0.37819068146E+02  0.51100000000E-03 0.  1.
         12    1    3    3    0    0  0.79705912254E+00 -0.36891933439E+01  0.45438383784E+01  0.59069381225E+01  0.00000000000E+00 0. -1.
</event>
<event>
 7    1  0.1503436E-008  0.4614232E+02  0.7816164E-02  0.1320468E+00
        -11   -1    0    0    0    0  0.00000000000E+00  0.00000000000E+00  0.45593999997E+02  0.45594000000E+02  0.51100000000E-03 0.  1.
         11   -1    0    0    0    0 -0.00000000000E+00 -0.00000000000E+00 -0.45593999997E+02  0.45594000000E+02  0.51100000000E-03 0. -1.
    9900012    2    1    2    0    0 -0.68975698499E+01  0.24461247755E+02  0.37191186308E+02  0.46142318181E+02  0.10000003828E+02 0.  0.
         12    1    1    2    0    0  0.68975698499E+01 -0.24461247755E+02 -0.37191186308E+02  0.45045681819E+02  0.00000000000E+00 0. -1.
         11    1    3    3    0    0 -0.28848184296E+01  0.20455484152E+02  0.24565099954E+02  0.32096622023E+02  0.51100000000E-03 0. -1.
        -11    1    3    3    0    0 -0.22528241274E+01  0.29649226045E+01  0.55756801078E+01  0.67047887011E+01  0.51100000000E-03 0.  1.
         12    1    3    3    0    0 -0.17599272929E+01  0.10408409988E+01  0.70504062460E+01  0.73409074571E+01  0.00000000000E+00 0. -1.
</event>
<event>
 7    1  0.1503436E-008  0.4614233E+02  0.7816164E-02  0.1320468E+00
        -11   -1    0    0    0    0  0.00000000000E+00  0.00000000000E+00  0.45593999997E+02  0.45594000000E+02  0.51100000000E-03 0.  1.
         11   -1    0    0    0    0 -0.00000000000E+00 -0.00000000000E+00 -0.45593999997E+02  0.45594000000E+02  0.51100000000E-03 0. -1.
    9900012    2    1    2    0    0 -0.39886748151E+01  0.25275819933E+02  0.37072031177E+02  0.46142333220E+02  0.10000140964E+02 0.  0.
         12    1    1    2    0    0  0.39886748151E+01 -0.25275819933E+02 -0.37072031177E+02  0.45045666780E+02  0.00000000000E+00 0. -1.
         11    1    3    3    0    0 -0.27006846166E+00  0.11748300765E+02  0.12904264866E+02  0.17453239236E+02  0.51100000000E-03 0. -1.
        -11    1    3    3    0    0 -0.33443484683E+01  0.13371941785E+02  0.24535248654E+02  0.28141995675E+02  0.51100000000E-03 0.  1.
         12    1    3    3    0    0 -0.37425788517E+00  0.15557738345E+00 -0.36748234334E+00  0.54709830882E+00  0.00000000000E+00 0. -1.
</event>
<event>
 7    1  0.1503436E-008  0.4614232E+02  0.7816164E-02  0.1320468E+00
        -11   -1    0    0    0    0  0.00000000000E+00  0.00000000000E+00  0.45593999997E+02  0.45594000000E+02  0.51100000000E-03 0.  1.
         11   -1    0    0    0    0 -0.00000000000E+00 -0.00000000000E+00 -0.45593999997E+02  0.45594000000E+02  0.51100000000E-03 0. -1.
    9900012    2    1    2    0    0 -0.22304158856E+02  0.38596537570E+02  0.64765135968E+01  0.46142318264E+02  0.10000004589E+02 0.  0.
         12    1    1    2    0    0  0.22304158856E+02 -0.38596537570E+02 -0.64765135968E+01  0.45045681736E+02  0.00000000000E+00 0. -1.
         11    1    3    3    0    0 -0.20324987258E+01  0.28263628922E+00 -0.48429874198E+00  0.21084306664E+01  0.51100000000E-03 0. -1.
        -11    1    3    3    0    0 -0.14318494176E+02  0.30138489710E+02  0.53865754381E+01  0.33798861411E+02  0.51100000000E-03 0.  1.
        -12    1    3    3    0    0 -0.59531659541E+01  0.81754115701E+01  0.15742369007E+01  0.10235026186E+02  0.00000000000E+00 0.  1.
</event>
<event>
 7    1  0.1503436E-008  0.4614232E+02  0.7816164E-02  0.1320468E+00
        -11   -1    0    0    0    0  0.00000000000E+00  0.00000000000E+00  0.45593999997E+02  0.45594000000E+02  0.51100000000E-03 0.  1.
         11   -1    0    0    0    0 -0.00000000000E+00 -0.00000000000E+00 -0.45593999997E+02  0.45594000000E+02  0.51100000000E-03 0. -1.
    9900012    2    1    2    0    0 -0.14410086280E+02  0.10159668513E+02  0.41451704100E+02  0.46142320699E+02  0.10000026787E+02 0.  0.
         12    1    1    2    0    0  0.14410086280E+02 -0.10159668513E+02 -0.41451704100E+02  0.45045679301E+02  0.00000000000E+00 0. -1.
         11    1    3    3    0    0 -0.17729710878E+01  0.26312713973E+00  0.13092801604E+01  0.22196569936E+01  0.51100000000E-03 0. -1.
        -11    1    3    3    0    0 -0.98500190864E+01  0.54918370094E+01  0.18542409725E+02  0.21702629067E+02  0.51100000000E-03 0.  1.
        -12    1    3    3    0    0 -0.27870961059E+01  0.44047043636E+01  0.21600014215E+02  0.22220034638E+02  0.00000000000E+00 0.  1.
</event>
<event>
 7    1  0.1503436E-008  0.4614231E+02  0.7816164E-02  0.1320468E+00
        -11   -1    0    0    0    0  0.00000000000E+00  0.00000000000E+00  0.45593999997E+02  0.45594000000E+02  0.51100000000E-03 0. -1.
         11   -1    0    0    0    0 -0.00000000000E+00 -0.00000000000E+00 -0.45593999997E+02  0.45594000000E+02  0.51100000000E-03 0.  1.
    9900012    2    1    2    0    0 -0.11610736191E+02 -0.24733508397E+02 -0.35812823830E+02  0.46142312268E+02  0.99999499117E+01 0.  0.
         12    1    1    2    0    0  0.11610736191E+02  0.24733508397E+02  0.35812823830E+02  0.45045687732E+02  0.00000000000E+00 0. -1.
         11    1    3    3    0    0 -0.89377569388E+00  0.15978390518E+00 -0.45194682494E+01  0.46097678256E+01  0.51100000000E-03 0. -1.
        -11    1    3    3    0    0 -0.63069908197E+01 -0.18292550375E+02 -0.22892138334E+02  0.29974080973E+02  0.51100000000E-03 0.  1.
         12    1    3    3    0    0 -0.44099696777E+01 -0.66007419277E+01 -0.84012172464E+01  0.11558463469E+02  0.00000000000E+00 0. -1.
</event>
<event>
 7    1  0.1503436E-008  0.4614232E+02  0.7816164E-02  0.1320468E+00
        -11   -1    0    0    0    0  0.00000000000E+00  0.00000000000E+00  0.45593999997E+02  0.45594000000E+02  0.51100000000E-03 0.  1.
         11   -1    0    0    0    0 -0.00000000000E+00 -0.00000000000E+00 -0.45593999997E+02  0.45594000000E+02  0.51100000000E-03 0. -1.
    9900012    2    1    2    0    0  0.11672829011E+02 -0.37836677750E+02  0.21476595464E+02  0.46142320152E+02  0.10000021800E+02 0.  0.
         12    1    1    2    0    0 -0.11672829011E+02  0.37836677750E+02 -0.21476595464E+02  0.45045679848E+02  0.00000000000E+00 0. -1.
         11    1    3    3    0    0  0.38800644003E+01 -0.17713014150E+02  0.84892944776E+01  0.20021835355E+02  0.51100000000E-03 0. -1.
        -11    1    3    3    0    0  0.13692381659E+01 -0.67475123157E+01  0.77936212090E+01  0.10399243598E+02  0.51100000000E-03 0.  1.
        -12    1    3    3    0    0  0.64235264446E+01 -0.13376151285E+02  0.51936797772E+01  0.15721241198E+02  0.00000000000E+00 0.  1.
</event>
<event>
 7    1  0.1503436E-008  0.4614232E+02  0.7816164E-02  0.1320468E+00
        -11   -1    0    0    0    0  0.00000000000E+00  0.00000000000E+00  0.45593999997E+02  0.45594000000E+02  0.51100000000E-03 0.  1.
         11   -1    0    0    0    0 -0.00000000000E+00 -0.00000000000E+00 -0.45593999997E+02  0.45594000000E+02  0.51100000000E-03 0. -1.
    9900012    2    1    2    0    0  0.26857402654E+02  0.29738749252E+02  0.20576691995E+02  0.46142317212E+02  0.99999949931E+01 0.  0.
         12    1    1    2    0    0 -0.26857402654E+02 -0.29738749252E+02 -0.20576691995E+02  0.45045682788E+02  0.00000000000E+00 0. -1.
         11    1    3    3    0    0  0.14406957353E+02  0.19533847470E+02  0.10552809069E+02  0.26466835788E+02  0.51100000000E-03 0.  1.
        -11    1    3    3    0    0 -0.45557383288E+00  0.54356509134E+00  0.91773315929E+00  0.11598469462E+01  0.51100000000E-03 0. -1.
         12    1    3    3    0    0  0.12906019133E+02  0.96613366913E+01  0.91061497668E+01  0.18515634478E+02  0.00000000000E+00 0. -1.
</event>
<event>
 7    1  0.1503436E-008  0.4614232E+02  0.7816164E-02  0.1320468E+00
        -11   -1    0    0    0    0  0.00000000000E+00  0.00000000000E+00  0.45593999997E+02  0.45594000000E+02  0.51100000000E-03 0.  1.
         11   -1    0    0    0    0 -0.00000000000E+00 -0.00000000000E+00 -0.45593999997E+02  0.45594000000E+02  0.51100000000E-03 0. -1.
    9900012    2    1    2    0    0 -0.30083823147E+02 -0.28652638843E+02  0.17409860324E+02  0.46142319139E+02  0.10000012561E+02 0.  0.
         12    1    1    2    0    0  0.30083823147E+02  0.28652638843E+02 -0.17409860324E+02  0.45045680861E+02  0.00000000000E+00 0. -1.
         11    1    3    3    0    0 -0.56509168447E+01 -0.35357321283E+01  0.49019070397E+00  0.66839023075E+01  0.51100000000E-03 0.  1.
        -11    1    3    3    0    0 -0.18135889240E+02 -0.20084211738E+02  0.15756767306E+02  0.31313922716E+02  0.51100000000E-03 0. -1.
         12    1    3    3    0    0 -0.62970170616E+01 -0.50326949760E+01  0.11629023145E+01  0.81444941150E+01  0.00000000000E+00 0. -1.
</event>
<event>
 7    1  0.1503436E-008  0.4614232E+02  0.7816164E-02  0.1320468E+00
        -11   -1    0    0    0    0  0.00000000000E+00  0.00000000000E+00  0.45593999997E+02  0.45594000000E+02  0.51100000000E-03 0.  1.
         11   -1    0    0    0    0 -0.00000000000E+00 -0.00000000000E+00 -0.45593999997E+02  0.45594000000E+02  0.51100000000E-03 0. -1.
    9900012    2    1    2    0    0  0.21158905016E+02  0.32408418698E+02  0.23045793634E+02  0.46142317985E+02  0.10000002039E+02 0.  0.
         12    1    1    2    0    0 -0.21158905016E+02 -0.32408418698E+02 -0.23045793634E+02  0.45045682015E+02  0.00000000000E+00 0. -1.
         11    1    3    3    0    0  0.67418469326E+01  0.17434752431E+02  0.12330391999E+02  0.22393339624E+02  0.51100000000E-03 0.  1.
        -11    1    3    3    0    0  0.10697890725E+01  0.18592050068E+01  0.25521545496E+01  0.33338543794E+01  0.51100000000E-03 0. -1.
         12    1    3    3    0    0  0.13347269011E+02  0.13114461260E+02  0.81632470854E+01  0.20415123981E+02  0.00000000000E+00 0. -1.
</event>
<event>
 7    1  0.1503436E-008  0.4614232E+02  0.7816164E-02  0.1320468E+00
        -11   -1    0    0    0    0  0.00000000000E+00  0.00000000000E+00  0.45593999997E+02  0.45594000000E+02  0.51100000000E-03 0. -1.
         11   -1    0    0    0    0 -0.00000000000E+00 -0.00000000000E+00 -0.45593999997E+02  0.45594000000E+02  0.51100000000E-03 0.  1.
    9900012    2    1    2    0    0 -0.26170868451E+02  0.35418819890E+02 -0.94713408483E+01  0.46142318127E+02  0.10000003339E+02 0.  0.
         12    1    1    2    0    0  0.26170868451E+02 -0.35418819890E+02  0.94713408483E+01  0.45045681873E+02  0.00000000000E+00 0. -1.
         11    1    3    3    0    0 -0.48260537054E+01  0.45680871068E+01 -0.68591115883E+00  0.66804706842E+01  0.51100000000E-03 0. -1.
        -11    1    3    3    0    0 -0.16883458736E+02  0.19749806549E+02 -0.29470144986E+01  0.26149396405E+02  0.51100000000E-03 0.  1.
        -12    1    3    3    0    0 -0.44613560098E+01  0.11100926234E+02 -0.58384151909E+01  0.13312451038E+02  0.00000000000E+00 0.  1.
</event>
<event>
 7    1  0.1503436E-008  0.4614232E+02  0.7816164E-02  0.1320468E+00
        -11   -1    0    0    0    0  0.00000000000E+00  0.00000000000E+00  0.45593999997E+02  0.45594000000E+02  0.51100000000E-03 0.  1.
         11   -1    0    0    0    0 -0.00000000000E+00 -0.00000000000E+00 -0.45593999997E+02  0.45594000000E+02  0.51100000000E-03 0. -1.
    9900012    2    1    2    0    0 -0.31622347792E+02  0.31333448555E+02  0.68815434692E+01  0.46142317424E+02  0.99999969267E+01 0.  0.
         12    1    1    2    0    0  0.31622347792E+02 -0.31333448555E+02 -0.68815434692E+01  0.45045682576E+02  0.00000000000E+00 0. -1.
         11    1    3    3    0    0 -0.36998275100E+01  0.33714989210E+01  0.40280995560E+01  0.64250536863E+01  0.51100000000E-03 0. -1.
        -11    1    3    3    0    0 -0.15448646797E+02  0.16463863550E+02  0.43650195471E+00  0.22581187415E+02  0.51100000000E-03 0.  1.
        -12    1    3    3    0    0 -0.12473873485E+02  0.11498086084E+02  0.24169419585E+01  0.17136076323E+02  0.00000000000E+00 0.  1.
</event>
<event>
 7    1  0.1503436E-008  0.4614232E+02  0.7816164E-02  0.1320468E+00
        -11   -1    0    0    0    0  0.00000000000E+00  0.00000000000E+00  0.45593999997E+02  0.45594000000E+02  0.51100000000E-03 0.  1.
         11   -1    0    0    0    0 -0.00000000000E+00 -0.00000000000E+00 -0.45593999997E+02  0.45594000000E+02  0.51100000000E-03 0. -1.
    9900012    2    1    2    0    0 -0.33300266624E+02 -0.29883221554E+02  0.52152668668E+01  0.46142315454E+02  0.99999789636E+01 0.  0.
         12    1    1    2    0    0  0.33300266624E+02  0.29883221554E+02 -0.52152668668E+01  0.45045684546E+02  0.00000000000E+00 0. -1.
         11    1    3    3    0    0 -0.26383974007E+01 -0.63939121259E+01 -0.92963879808E+00  0.69790745572E+01  0.51100000000E-03 0. -1.
        -11    1    3    3    0    0 -0.12571210743E+02 -0.84268150299E+01  0.26605927990E+01  0.15366369298E+02  0.51100000000E-03 0.  1.
         12    1    3    3    0    0 -0.18090658481E+02 -0.15062494398E+02  0.34843128659E+01  0.23796871599E+02  0.00000000000E+00 0. -1.
</event>
<event>
 7    1  0.1503436E-008  0.4614232E+02  0.7816164E-02  0.1320468E+00
        -11   -1    0    0    0    0  0.00000000000E+00  0.00000000000E+00  0.45593999997E+02  0.45594000000E+02  0.51100000000E-03 0.  1.
         11   -1    0    0    0    0 -0.00000000000E+00 -0.00000000000E+00 -0.45593999997E+02  0.45594000000E+02  0.51100000000E-03 0. -1.
    9900012    2    1    2    0    0 -0.28378821547E+01 -0.14318846928E+02 -0.42614910338E+02  0.46142317237E+02  0.99999952252E+01 0.  0.
         12    1    1    2    0    0  0.28378821547E+01  0.14318846928E+02  0.42614910338E+02  0.45045682763E+02  0.00000000000E+00 0. -1.
         11    1    3    3    0    0  0.14913602568E+01 -0.16743426722E+01 -0.66817058017E+01  0.70478912791E+01  0.51100000000E-03 0. -1.
        -11    1    3    3    0    0 -0.36700698729E+01 -0.11795778855E+01 -0.10621784731E+02  0.11299695925E+02  0.51100000000E-03 0.  1.
        -12    1    3    3    0    0 -0.65917253859E+00 -0.11464926370E+02 -0.25311419805E+02  0.27794730034E+02  0.00000000000E+00 0.  1.
</event>
<event>
 7    1  0.1503436E-008  0.4614232E+02  0.7816164E-02  0.1320468E+00
        -11   -1    0    0    0    0  0.00000000000E+00  0.00000000000E+00  0.45593999997E+02  0.45594000000E+02  0.51100000000E-03 0. -1.
         11   -1    0    0    0    0 -0.00000000000E+00 -0.00000000000E+00 -0.45593999997E+02  0.45594000000E+02  0.51100000000E-03 0.  1.
    9900012    2    1    2    0    0  0.18522516086E+02  0.28180518961E+02  0.29864497539E+02  0.46142318028E+02  0.10000002437E+02 0.  0.
         12    1    1    2    0    0 -0.18522516086E+02 -0.28180518961E+02 -0.29864497539E+02  0.45045681972E+02  0.00000000000E+00 0. -1.
         11    1    3    3    0    0  0.65202970009E+01  0.15154909477E+02  0.12081901813E+02  0.20448909651E+02  0.51100000000E-03 0.  1.
        -11    1    3    3    0    0  0.58373199573E+01  0.30637647825E+01  0.84374538467E+01  0.10707548114E+02  0.51100000000E-03 0. -1.
         12    1    3    3    0    0  0.61648991276E+01  0.99618447018E+01  0.93451418784E+01  0.14985860264E+02  0.00000000000E+00 0. -1.
</event>
<event>
 7    1  0.1503436E-008  0.4614232E+02  0.7816164E-02  0.1320468E+00
        -11   -1    0    0    0    0  0.00000000000E+00  0.00000000000E+00  0.45593999997E+02  0.45594000000E+02  0.51100000000E-03 0.  1.
         11   -1    0    0    0    0 -0.00000000000E+00 -0.00000000000E+00 -0.45593999997E+02  0.45594000000E+02  0.51100000000E-03 0. -1.
    9900012    2    1    2    0    0  0.14762859408E+02 -0.63623453110E+01  0.42079591992E+02  0.46142317432E+02  0.99999969998E+01 0.  0.
         12    1    1    2    0    0 -0.14762859408E+02  0.63623453110E+01 -0.42079591992E+02  0.45045682568E+02  0.00000000000E+00 0. -1.
         11    1    3    3    0    0  0.33302917017E+01 -0.51043722431E+01  0.11937970389E+02  0.13403753060E+02  0.51100000000E-03 0. -1.
        -11    1    3    3    0    0  0.73145465030E+01 -0.34614292378E+01  0.18311138978E+02  0.20019537803E+02  0.51100000000E-03 0.  1.
         12    1    3    3    0    0  0.41180212034E+01  0.22034561699E+01  0.11830482625E+02  0.12719026569E+02  0.00000000000E+00 0. -1.
</event>
<event>
 7    1  0.1503436E-008  0.4614232E+02  0.7816164E-02  0.1320468E+00
        -11   -1    0    0    0    0  0.00000000000E+00  0.00000000000E+00  0.45593999997E+02  0.45594000000E+02  0.51100000000E-03 0. -1.
         11   -1    0    0    0    0 -0.00000000000E+00 -0.00000000000E+00 -0.45593999997E+02  0.45594000000E+02  0.51100000000E-03 0.  1.
    9900012    2    1    2    0    0  0.22836058958E+02  0.32706184153E+02 -0.20926857900E+02  0.46142318163E+02  0.10000003664E+02 0.  0.
         12    1    1    2    0    0 -0.22836058958E+02 -0.32706184153E+02  0.20926857900E+02  0.45045681837E+02  0.00000000000E+00 0. -1.
         11    1    3    3    0    0  0.13014107164E+02  0.15876194695E+02 -0.60678195767E+01  0.21406517184E+02  0.51100000000E-03 0. -1.
        -11    1    3    3    0    0  0.82730223696E+01  0.11267303257E+02 -0.11048094441E+02  0.17817278491E+02  0.51100000000E-03 0.  1.
        -12    1    3    3    0    0  0.15489294249E+01  0.55626862020E+01 -0.38109438825E+01  0.69185224882E+01  0.00000000000E+00 0.  1.
</event>
<event>
 7    1  0.1503436E-008  0.4614232E+02  0.7816164E-02  0.1320468E+00
        -11   -1    0    0    0    0  0.00000000000E+00  0.00000000000E+00  0.45593999997E+02  0.45594000000E+02  0.51100000000E-03 0. -1.
         11   -1    0    0    0    0 -0.00000000000E+00 -0.00000000000E+00 -0.45593999997E+02  0.45594000000E+02  0.51100000000E-03 0.  1.
    9900012    2    1    2    0    0 -0.32544659294E+02  0.16120875580E+02 -0.26647251781E+02  0.46142317570E+02  0.99999982597E+01 0.  0.
         12    1    1    2    0    0  0.32544659294E+02 -0.16120875580E+02  0.26647251781E+02  0.45045682430E+02  0.00000000000E+00 0. -1.
         11    1    3    3    0    0 -0.60059696107E+01  0.47720608720E+00 -0.40049595484E+01  0.72345765501E+01  0.51100000000E-03 0. -1.
        -11    1    3    3    0    0 -0.17209502491E+02  0.13699366024E+02 -0.17287219475E+02  0.27976553807E+02  0.51100000000E-03 0.  1.
         12    1    3    3    0    0 -0.93291871927E+01  0.19443034691E+01 -0.53550727577E+01  0.10931187213E+02  0.00000000000E+00 0. -1.
</event>
<event>
 7    1  0.1503436E-008  0.4614232E+02  0.7816164E-02  0.1320468E+00
        -11   -1    0    0    0    0  0.00000000000E+00  0.00000000000E+00  0.45593999997E+02  0.45594000000E+02  0.51100000000E-03 0.  1.
         11   -1    0    0    0    0 -0.00000000000E+00 -0.00000000000E+00 -0.45593999997E+02  0.45594000000E+02  0.51100000000E-03 0. -1.
    9900012    2    1    2    0    0 -0.18083049366E+02 -0.40688714046E+02 -0.68224128470E+01  0.46142318274E+02  0.10000004681E+02 0.  0.
         12    1    1    2    0    0  0.18083049366E+02  0.40688714046E+02  0.68224128470E+01  0.45045681726E+02  0.00000000000E+00 0. -1.
         11    1    3    3    0    0 -0.99655481170E+01 -0.15531537096E+02 -0.79523473133E+00  0.18470874164E+02  0.51100000000E-03 0. -1.
        -11    1    3    3    0    0 -0.53908134086E+01 -0.12822402210E+02 -0.60012084308E+00  0.13922464327E+02  0.51100000000E-03 0.  1.
         12    1    3    3    0    0 -0.27266878408E+01 -0.12334774739E+02 -0.54270572726E+01  0.13748979784E+02  0.00000000000E+00 0. -1.
</event>
<event>
 7    1  0.1503436E-008  0.4614232E+02  0.7816164E-02  0.1320468E+00
        -11   -1    0    0    0    0  0.00000000000E+00  0.00000000000E+00  0.45593999997E+02  0.45594000000E+02  0.51100000000E-03 0.  1.
         11   -1    0    0    0    0 -0.00000000000E+00 -0.00000000000E+00 -0.45593999997E+02  0.45594000000E+02  0.51100000000E-03 0. -1.
    9900012    2    1    2    0    0 -0.27070685063E+02 -0.34195360190E+02  0.11268039200E+02  0.46142319234E+02  0.10000013429E+02 0.  0.
         12    1    1    2    0    0  0.27070685063E+02  0.34195360190E+02 -0.11268039200E+02  0.45045680766E+02  0.00000000000E+00 0. -1.
         11    1    3    3    0    0 -0.14743522037E+02 -0.16907737105E+02  0.83218956264E+01  0.23926908767E+02  0.51100000000E-03 0. -1.
        -11    1    3    3    0    0 -0.41149616064E+01 -0.75452596092E+01  0.39000942379E+01  0.94379334029E+01  0.51100000000E-03 0.  1.
         12    1    3    3    0    0 -0.82122014195E+01 -0.97423634752E+01 -0.95395066473E+00  0.12777477064E+02  0.00000000000E+00 0. -1.
</event>
<event>
 7    1  0.1503436E-008  0.4614232E+02  0.7816164E-02  0.1320468E+00
        -11   -1    0    0    0    0  0.00000000000E+00  0.00000000000E+00  0.45593999997E+02  0.45594000000E+02  0.51100000000E-03 0.  1.
         11   -1    0    0    0    0 -0.00000000000E+00 -0.00000000000E+00 -0.45593999997E+02  0.45594000000E+02  0.51100000000E-03 0. -1.
    9900012    2    1    2    0    0  0.10225281815E+02 -0.11094679106E+02  0.42443671012E+02  0.46142317614E+02  0.99999986542E+01 0.  0.
         12    1    1    2    0    0 -0.10225281815E+02  0.11094679106E+02 -0.42443671012E+02  0.45045682386E+02  0.00000000000E+00 0. -1.
         11    1    3    3    0    0  0.24058751913E+01  0.79917530991E+00  0.14256659205E+02  0.14480305541E+02  0.51100000000E-03 0. -1.
        -11    1    3    3    0    0  0.56177378347E+01 -0.83057637218E+01  0.17396716820E+02  0.20079602729E+02  0.51100000000E-03 0.  1.
        -12    1    3    3    0    0  0.22016687892E+01 -0.35880906945E+01  0.10790294988E+02  0.11582409344E+02  0.00000000000E+00 0.  1.
</event>
<event>
 7    1  0.1503436E-008  0.4614232E+02  0.7816164E-02  0.1320468E+00
        -11   -1    0    0    0    0  0.00000000000E+00  0.00000000000E+00  0.45593999997E+02  0.45594000000E+02  0.51100000000E-03 0.  1.
         11   -1    0    0    0    0 -0.00000000000E+00 -0.00000000000E+00 -0.45593999997E+02  0.45594000000E+02  0.51100000000E-03 0. -1.
    9900012    2    1    2    0    0 -0.38067154276E+02  0.19590501280E+02  0.14007766982E+02  0.46142317511E+02  0.99999977214E+01 0.  0.
         12    1    1    2    0    0  0.38067154276E+02 -0.19590501280E+02 -0.14007766982E+02  0.45045682489E+02  0.00000000000E+00 0. -1.
         11    1    3    3    0    0 -0.64377838616E+01  0.84745339806E+00  0.86685676393E-01  0.64939012141E+01  0.51100000000E-03 0. -1.
        -11    1    3    3    0    0  0.19538796602E-01  0.66842906191E+00  0.13798392851E+00  0.68280231475E+00  0.51100000000E-03 0.  1.
        -12    1    3    3    0    0 -0.31648909211E+02  0.18074618820E+02  0.13783097377E+02  0.38965613982E+02  0.00000000000E+00 0.  1.
</event>
<event>
 7    1  0.1503436E-008  0.4614232E+02  0.7816164E-02  0.1320468E+00
        -11   -1    0    0    0    0  0.00000000000E+00  0.00000000000E+00  0.45593999997E+02  0.45594000000E+02  0.51100000000E-03 0. -1.
         11   -1    0    0    0    0 -0.00000000000E+00 -0.00000000000E+00 -0.45593999997E+02  0.45594000000E+02  0.51100000000E-03 0.  1.
    9900012    2    1    2    0    0 -0.42885599982E+02  0.10698610894E+02 -0.86878383584E+01  0.46142317674E+02  0.99999992032E+01 0.  0.
         12    1    1    2    0    0  0.42885599982E+02 -0.10698610894E+02  0.86878383584E+01  0.45045682326E+02  0.00000000000E+00 0. -1.
         11    1    3    3    0    0 -0.55099334961E+01  0.14681325787E+01 -0.30725729217E+01  0.64773053827E+01  0.51100000000E-03 0. -1.
        -11    1    3    3    0    0 -0.32819497931E+02  0.65309940435E+01 -0.70082955555E+01  0.34189026521E+02  0.51100000000E-03 0.  1.
         12    1    3    3    0    0 -0.45561685553E+01  0.26994842716E+01  0.13930301188E+01  0.54759857696E+01  0.00000000000E+00 0. -1.
</event>
<event>
 7    1  0.1503436E-008  0.4614232E+02  0.7816164E-02  0.1320468E+00
        -11   -1    0    0    0    0  0.00000000000E+00  0.00000000000E+00  0.45593999997E+02  0.45594000000E+02  0.51100000000E-03 0.  1.
         11   -1    0    0    0    0 -0.00000000000E+00 -0.00000000000E+00 -0.45593999997E+02  0.45594000000E+02  0.51100000000E-03 0. -1.
    9900012    2    1    2    0    0 -0.43027715924E+02 -0.11737686729E+02 -0.63210619121E+01  0.46142318175E+02  0.10000003778E+02 0.  0.
         12    1    1    2    0    0  0.43027715924E+02  0.11737686729E+02  0.63210619121E+01  0.45045681825E+02  0.00000000000E+00 0. -1.
         11    1    3    3    0    0 -0.19186098061E+02 -0.91754396344E+01 -0.60286424253E+01  0.22105193531E+02  0.51100000000E-03 0.  1.
        -11    1    3    3    0    0 -0.18254434035E+02 -0.12702558616E+01 -0.85613953787E-01  0.18298777060E+02  0.51100000000E-03 0. -1.
        -12    1    3    3    0    0 -0.55871838271E+01 -0.12919912329E+01 -0.20680553295E+00  0.57383475838E+01  0.00000000000E+00 0.  1.
</event>
<event>
 7    1  0.1503436E-008  0.4614232E+02  0.7816164E-02  0.1320468E+00
        -11   -1    0    0    0    0  0.00000000000E+00  0.00000000000E+00  0.45593999997E+02  0.45594000000E+02  0.51100000000E-03 0. -1.
         11   -1    0    0    0    0 -0.00000000000E+00 -0.00000000000E+00 -0.45593999997E+02  0.45594000000E+02  0.51100000000E-03 0.  1.
    9900012    2    1    2    0    0  0.15462630516E+02  0.17796383047E+02 -0.38383711169E+02  0.46142317908E+02  0.10000001337E+02 0.  0.
         12    1    1    2    0    0 -0.15462630516E+02 -0.17796383047E+02  0.38383711169E+02  0.45045682092E+02  0.00000000000E+00 0. -1.
         11    1    3    3    0    0  0.57772157607E+00  0.74142764133E+00  0.28650004436E-01  0.94037133658E+00  0.51100000000E-03 0. -1.
        -11    1    3    3    0    0  0.15242522189E+02  0.13829256232E+02 -0.33172940353E+02  0.39038785618E+02  0.51100000000E-03 0.  1.
        -12    1    3    3    0    0 -0.35761324958E+00  0.32256991734E+01 -0.52394208210E+01  0.61631609531E+01  0.00000000000E+00 0.  1.
</event>
<event>
 7    1  0.1503436E-008  0.4614232E+02  0.7816164E-02  0.1320468E+00
        -11   -1    0    0    0    0  0.00000000000E+00  0.00000000000E+00  0.45593999997E+02  0.45594000000E+02  0.51100000000E-03 0.  1.
         11   -1    0    0    0    0 -0.00000000000E+00 -0.00000000000E+00 -0.45593999997E+02  0.45594000000E+02  0.51100000000E-03 0. -1.
    9900012    2    1    2    0    0  0.69747948495E+01 -0.41653150933E+02  0.15667825880E+02  0.46142317480E+02  0.99999974366E+01 0.  0.
         12    1    1    2    0    0 -0.69747948495E+01  0.41653150933E+02 -0.15667825880E+02  0.45045682520E+02  0.00000000000E+00 0. -1.
         11    1    3    3    0    0  0.68921543369E+01 -0.27038441982E+02  0.86954547141E+01  0.29226530228E+02  0.51100000000E-03 0. -1.
        -11    1    3    3    0    0 -0.24003037250E+01 -0.68289608701E+01  0.31610054425E+01  0.78986150816E+01  0.51100000000E-03 0.  1.
        -12    1    3    3    0    0  0.24829442376E+01 -0.77857480813E+01  0.38113657236E+01  0.90171721705E+01  0.00000000000E+00 0.  1.
</event>
<event>
 7    1  0.1503436E-008  0.4614232E+02  0.7816164E-02  0.1320468E+00
        -11   -1    0    0    0    0  0.00000000000E+00  0.00000000000E+00  0.45593999997E+02  0.45594000000E+02  0.51100000000E-03 0.  1.
         11   -1    0    0    0    0 -0.00000000000E+00 -0.00000000000E+00 -0.45593999997E+02  0.45594000000E+02  0.51100000000E-03 0. -1.
    9900012    2    1    2    0    0 -0.31338071058E+02 -0.22343359387E+02  0.23405407603E+02  0.46142317506E+02  0.99999976711E+01 0.  0.
         12    1    1    2    0    0  0.31338071058E+02  0.22343359387E+02 -0.23405407603E+02  0.45045682494E+02  0.00000000000E+00 0. -1.
         11    1    3    3    0    0 -0.11815243610E+01 -0.13306325284E+01  0.34004547478E+01  0.38379259365E+01  0.51100000000E-03 0. -1.
        -11    1    3    3    0    0 -0.22190179707E+02 -0.17352446569E+02  0.17592302968E+02  0.33211452864E+02  0.51100000000E-03 0.  1.
        -12    1    3    3    0    0 -0.79663669904E+01 -0.36602802897E+01  0.24126498865E+01  0.90929387053E+01  0.00000000000E+00 0.  1.
</event>
<event>
 7    1  0.1503436E-008  0.4614232E+02  0.7816164E-02  0.1320468E+00
        -11   -1    0    0    0    0  0.00000000000E+00  0.00000000000E+00  0.45593999997E+02  0.45594000000E+02  0.51100000000E-03 0.  1.
         11   -1    0    0    0    0 -0.00000000000E+00 -0.00000000000E+00 -0.45593999997E+02  0.45594000000E+02  0.51100000000E-03 0. -1.
    9900012    2    1    2    0    0  0.44897078640E+02  0.35512162923E+01  0.86865617804E+00  0.46142319063E+02  0.10000011870E+02 0.  0.
         12    1    1    2    0    0 -0.44897078640E+02 -0.35512162923E+01 -0.86865617804E+00  0.45045680937E+02  0.00000000000E+00 0. -1.
         11    1    3    3    0    0  0.13723910640E+02  0.14545618409E+01  0.14790797114E+01  0.13879810894E+02  0.51100000000E-03 0. -1.
        -11    1    3    3    0    0  0.37942270114E+01  0.31697408327E+00  0.26410949028E+01  0.46337904279E+01  0.51100000000E-03 0.  1.
        -12    1    3    3    0    0  0.27378940988E+02  0.17796803681E+01 -0.32515184361E+01  0.27628717741E+02  0.00000000000E+00 0.  1.
</event>
<event>
 7    1  0.1503436E-008  0.4614232E+02  0.7816164E-02  0.1320468E+00
        -11   -1    0    0    0    0  0.00000000000E+00  0.00000000000E+00  0.45593999997E+02  0.45594000000E+02  0.51100000000E-03 0. -1.
         11   -1    0    0    0    0 -0.00000000000E+00 -0.00000000000E+00 -0.45593999997E+02  0.45594000000E+02  0.51100000000E-03 0.  1.
    9900012    2    1    2    0    0  0.16604332072E+02 -0.41079989861E+02  0.81144412590E+01  0.46142316883E+02  0.99999919887E+01 0.  0.
         12    1    1    2    0    0 -0.16604332072E+02  0.41079989861E+02 -0.81144412590E+01  0.45045683117E+02  0.00000000000E+00 0. -1.
         11    1    3    3    0    0  0.24635398646E+01 -0.39119524443E+01 -0.17098218132E+01  0.49290862728E+01  0.51100000000E-03 0. -1.
        -11    1    3    3    0    0  0.10980072619E+02 -0.25616601535E+02  0.86381452993E+01  0.29178585014E+02  0.51100000000E-03 0.  1.
        -12    1    3    3    0    0  0.31607195887E+01 -0.11551435882E+02  0.11861177729E+01  0.12034645596E+02  0.00000000000E+00 0.  1.
</event>
<event>
 7    1  0.1503436E-008  0.4614232E+02  0.7816164E-02  0.1320468E+00
        -11   -1    0    0    0    0  0.00000000000E+00  0.00000000000E+00  0.45593999997E+02  0.45594000000E+02  0.51100000000E-03 0. -1.
         11   -1    0    0    0    0 -0.00000000000E+00 -0.00000000000E+00 -0.45593999997E+02  0.45594000000E+02  0.51100000000E-03 0.  1.
    9900012    2    1    2    0    0  0.23924861153E+02  0.13795025893E+01 -0.38141991560E+02  0.46142317313E+02  0.99999959122E+01 0.  0.
         12    1    1    2    0    0 -0.23924861153E+02 -0.13795025893E+01  0.38141991560E+02  0.45045682687E+02  0.00000000000E+00 0. -1.
         11    1    3    3    0    0  0.63633938028E+01  0.23075834664E+01 -0.18763766851E+02  0.19947347414E+02  0.51100000000E-03 0. -1.
        -11    1    3    3    0    0  0.28808241580E+01 -0.34456041060E+00 -0.38054059760E+01  0.47852883518E+01  0.51100000000E-03 0.  1.
         12    1    3    3    0    0  0.14680643192E+02 -0.58352046652E+00 -0.15572818733E+02  0.21409681547E+02  0.00000000000E+00 0. -1.
</event>
<event>
 7    1  0.1503436E-008  0.4614232E+02  0.7816164E-02  0.1320468E+00
        -11   -1    0    0    0    0  0.00000000000E+00  0.00000000000E+00  0.45593999997E+02  0.45594000000E+02  0.51100000000E-03 0.  1.
         11   -1    0    0    0    0 -0.00000000000E+00 -0.00000000000E+00 -0.45593999997E+02  0.45594000000E+02  0.51100000000E-03 0. -1.
    9900012    2    1    2    0    0  0.14036719136E+02 -0.27126237497E+02  0.33109685196E+02  0.46142317647E+02  0.99999989630E+01 0.  0.
         12    1    1    2    0    0 -0.14036719136E+02  0.27126237497E+02 -0.33109685196E+02  0.45045682353E+02  0.00000000000E+00 0. -1.
         11    1    3    3    0    0  0.49298002610E+01 -0.17411525367E+02  0.19398811664E+02  0.26528815286E+02  0.51100000000E-03 0.  1.
        -11    1    3    3    0    0  0.69947286080E+01 -0.60938760604E+01  0.11790781026E+02  0.15002802111E+02  0.51100000000E-03 0. -1.
        -12    1    3    3    0    0  0.21121902671E+01 -0.36208360694E+01  0.19200925062E+01  0.46107002503E+01  0.00000000000E+00 0.  1.
</event>
<event>
 7    1  0.1503436E-008  0.4614232E+02  0.7816164E-02  0.1320468E+00
        -11   -1    0    0    0    0  0.00000000000E+00  0.00000000000E+00  0.45593999997E+02  0.45594000000E+02  0.51100000000E-03 0. -1.
         11   -1    0    0    0    0 -0.00000000000E+00 -0.00000000000E+00 -0.45593999997E+02  0.45594000000E+02  0.51100000000E-03 0.  1.
    9900012    2    1    2    0    0 -0.10435721839E+02  0.42555202463E+02  0.10452935961E+02  0.46142318551E+02  0.10000007205E+02 0.  0.
         12    1    1    2    0    0  0.10435721839E+02 -0.42555202463E+02 -0.10452935961E+02  0.45045681449E+02  0.00000000000E+00 0. -1.
         11    1    3    3    0    0 -0.36739709947E+00  0.10166512305E+02  0.30401895647E+00  0.10177690350E+02  0.51100000000E-03 0. -1.
        -11    1    3    3    0    0  0.43460402174E+00  0.20436296753E+01 -0.47292098816E+00  0.21421851992E+01  0.51100000000E-03 0.  1.
        -12    1    3    3    0    0 -0.10502928761E+02  0.30345060482E+02  0.10621837993E+02  0.33822443002E+02  0.00000000000E+00 0.  1.
</event>
<event>
 7    1  0.1503436E-008  0.4614232E+02  0.7816164E-02  0.1320468E+00
        -11   -1    0    0    0    0  0.00000000000E+00  0.00000000000E+00  0.45593999997E+02  0.45594000000E+02  0.51100000000E-03 0.  1.
         11   -1    0    0    0    0 -0.00000000000E+00 -0.00000000000E+00 -0.45593999997E+02  0.45594000000E+02  0.51100000000E-03 0. -1.
    9900012    2    1    2    0    0  0.13416437301E+02  0.39862744070E+02  0.16126821558E+02  0.46142317319E+02  0.99999959672E+01 0.  0.
         12    1    1    2    0    0 -0.13416437301E+02 -0.39862744070E+02 -0.16126821558E+02  0.45045682681E+02  0.00000000000E+00 0. -1.
         11    1    3    3    0    0  0.23791524326E+01  0.16255888693E+02  0.24623534243E+01  0.16612569582E+02  0.51100000000E-03 0. -1.
        -11    1    3    3    0    0  0.48330346389E+01  0.12567517634E+02  0.61302710882E+01  0.14794625618E+02  0.51100000000E-03 0.  1.
         12    1    3    3    0    0  0.62042502295E+01  0.11039337744E+02  0.75341970456E+01  0.14735122119E+02  0.00000000000E+00 0. -1.
</event>
<event>
 7    1  0.1503436E-008  0.4614232E+02  0.7816164E-02  0.1320468E+00
        -11   -1    0    0    0    0  0.00000000000E+00  0.00000000000E+00  0.45593999997E+02  0.45594000000E+02  0.51100000000E-03 0. -1.
         11   -1    0    0    0    0 -0.00000000000E+00 -0.00000000000E+00 -0.45593999997E+02  0.45594000000E+02  0.51100000000E-03 0.  1.
    9900012    2    1    2    0    0  0.10342435328E+01  0.27915535348E+02 -0.35337893793E+02  0.46142317508E+02  0.99999976942E+01 0.  0.
         12    1    1    2    0    0 -0.10342435328E+01 -0.27915535348E+02  0.35337893793E+02  0.45045682492E+02  0.00000000000E+00 0. -1.
         11    1    3    3    0    0  0.34598825634E+01  0.67418630060E+01 -0.12806301128E+02  0.14880351239E+02  0.51100000000E-03 0. -1.
        -11    1    3    3    0    0  0.55910935684E+00  0.64646783163E+00 -0.14721730114E+01  0.17022977315E+01  0.51100000000E-03 0.  1.
         12    1    3    3    0    0 -0.29847483874E+01  0.20527204510E+02 -0.21059419653E+02  0.29559668538E+02  0.00000000000E+00 0. -1.
</event>
<event>
 7    1  0.1503436E-008  0.4614232E+02  0.7816164E-02  0.1320468E+00
        -11   -1    0    0    0    0  0.00000000000E+00  0.00000000000E+00  0.45593999997E+02  0.45594000000E+02  0.51100000000E-03 0.  1.
         11   -1    0    0    0    0 -0.00000000000E+00 -0.00000000000E+00 -0.45593999997E+02  0.45594000000E+02  0.51100000000E-03 0. -1.
    9900012    2    1    2    0    0  0.21923570718E+02  0.43321850552E+01  0.39111411641E+02  0.46142319842E+02  0.10000018972E+02 0.  0.
         12    1    1    2    0    0 -0.21923570718E+02 -0.43321850552E+01 -0.39111411641E+02  0.45045680158E+02  0.00000000000E+00 0. -1.
         11    1    3    3    0    0  0.10510140896E+02 -0.23927520329E+01  0.19025849265E+02  0.21867127485E+02  0.51100000000E-03 0. -1.
        -11    1    3    3    0    0  0.11334836038E+02  0.58522079561E+01  0.18764947977E+02  0.22690308919E+02  0.51100000000E-03 0.  1.
         12    1    3    3    0    0  0.78593783735E-01  0.87272913202E+00  0.13206143988E+01  0.15848834377E+01  0.00000000000E+00 0. -1.
</event>
<event>
 7    1  0.1503436E-008  0.4614232E+02  0.7816164E-02  0.1320468E+00
        -11   -1    0    0    0    0  0.00000000000E+00  0.00000000000E+00  0.45593999997E+02  0.45594000000E+02  0.51100000000E-03 0. -1.
         11   -1    0    0    0    0 -0.00000000000E+00 -0.00000000000E+00 -0.45593999997E+02  0.45594000000E+02  0.51100000000E-03 0.  1.
    9900012    2    1    2    0    0 -0.25244831543E+02 -0.29002672660E+02 -0.23466079997E+02  0.46142318170E+02  0.10000003731E+02 0.  0.
         12    1    1    2    0    0  0.25244831543E+02  0.29002672660E+02  0.23466079997E+02  0.45045681830E+02  0.00000000000E+00 0. -1.
         11    1    3    3    0    0 -0.68403824259E+01 -0.29390737985E+01 -0.54761551247E+01  0.92421459486E+01  0.51100000000E-03 0. -1.
        -11    1    3    3    0    0 -0.17417302696E+02 -0.25512843943E+02 -0.18032010859E+02  0.35768995725E+02  0.51100000000E-03 0.  1.
         12    1    3    3    0    0 -0.98714642090E+00 -0.55075491844E+00  0.42085986326E-01  0.11311764967E+01  0.00000000000E+00 0. -1.
</event>
<event>
 7    1  0.1503436E-008  0.4614232E+02  0.7816164E-02  0.1320468E+00
        -11   -1    0    0    0    0  0.00000000000E+00  0.00000000000E+00  0.45593999997E+02  0.45594000000E+02  0.51100000000E-03 0.  1.
         11   -1    0    0    0    0 -0.00000000000E+00 -0.00000000000E+00 -0.45593999997E+02  0.45594000000E+02  0.51100000000E-03 0. -1.
    9900012    2    1    2    0    0 -0.22459503797E+02  0.18169793699E+02  0.34562158713E+02  0.46142317312E+02  0.99999959073E+01 0.  0.
         12    1    1    2    0    0  0.22459503797E+02 -0.18169793699E+02 -0.34562158713E+02  0.45045682688E+02  0.00000000000E+00 0. -1.
         11    1    3    3    0    0 -0.33676623677E+01  0.12804775650E+01  0.21176861752E+01  0.41791587210E+01  0.51100000000E-03 0. -1.
        -11    1    3    3    0    0 -0.51947931769E+01  0.72494783647E+01  0.16306355743E+02  0.18585963806E+02  0.51100000000E-03 0.  1.
        -12    1    3    3    0    0 -0.13897048252E+02  0.96398377691E+01  0.16138116796E+02  0.23377194786E+02  0.00000000000E+00 0.  1.
</event>
<event>
 7    1  0.1503436E-008  0.4614232E+02  0.7816164E-02  0.1320468E+00
        -11   -1    0    0    0    0  0.00000000000E+00  0.00000000000E+00  0.45593999997E+02  0.45594000000E+02  0.51100000000E-03 0.  1.
         11   -1    0    0    0    0 -0.00000000000E+00 -0.00000000000E+00 -0.45593999997E+02  0.45594000000E+02  0.51100000000E-03 0. -1.
    9900012    2    1    2    0    0  0.37494988742E+02 -0.19089997087E+02  0.16087612634E+02  0.46142318189E+02  0.10000003899E+02 0.  0.
         12    1    1    2    0    0 -0.37494988742E+02  0.19089997087E+02 -0.16087612634E+02  0.45045681811E+02  0.00000000000E+00 0. -1.
         11    1    3    3    0    0  0.16088452534E+02 -0.13272265662E+02  0.69461939798E+01  0.21982742136E+02  0.51100000000E-03 0. -1.
        -11    1    3    3    0    0  0.40021297610E+01 -0.21711767814E+01  0.23566210492E+01  0.51268620296E+01  0.51100000000E-03 0.  1.
         12    1    3    3    0    0  0.17404406447E+02 -0.36465546439E+01  0.67847976051E+01  0.19032714023E+02  0.00000000000E+00 0. -1.
</event>
<event>
 7    1  0.1503436E-008  0.4614232E+02  0.7816164E-02  0.1320468E+00
        -11   -1    0    0    0    0  0.00000000000E+00  0.00000000000E+00  0.45593999997E+02  0.45594000000E+02  0.51100000000E-03 0.  1.
         11   -1    0    0    0    0 -0.00000000000E+00 -0.00000000000E+00 -0.45593999997E+02  0.45594000000E+02  0.51100000000E-03 0. -1.
    9900012    2    1    2    0    0  0.73986549877E+01  0.42109379596E+02  0.14183566375E+02  0.46142317624E+02  0.99999987514E+01 0.  0.
         12    1    1    2    0    0 -0.73986549877E+01 -0.42109379596E+02 -0.14183566375E+02  0.45045682376E+02  0.00000000000E+00 0. -1.
         11    1    3    3    0    0  0.16306635938E+01  0.26403294042E+01  0.14567868867E+00  0.31067065616E+01  0.51100000000E-03 0. -1.
        -11    1    3    3    0    0  0.44479564701E+01  0.38500499865E+02  0.12332231531E+02  0.40671325789E+02  0.51100000000E-03 0.  1.
        -12    1    3    3    0    0  0.13200349238E+01  0.96855032674E+00  0.17056561553E+01  0.23642852737E+01  0.00000000000E+00 0.  1.
</event>
<event>
 7    1  0.1503436E-008  0.4614232E+02  0.7816164E-02  0.1320468E+00
        -11   -1    0    0    0    0  0.00000000000E+00  0.00000000000E+00  0.45593999997E+02  0.45594000000E+02  0.51100000000E-03 0.  1.
         11   -1    0    0    0    0 -0.00000000000E+00 -0.00000000000E+00 -0.45593999997E+02  0.45594000000E+02  0.51100000000E-03 0. -1.
    9900012    2    1    2    0    0 -0.43563368026E+02 -0.10868208785E+02  0.36371045548E+01  0.46142317349E+02  0.99999962455E+01 0.  0.
         12    1    1    2    0    0  0.43563368026E+02  0.10868208785E+02 -0.36371045548E+01  0.45045682651E+02  0.00000000000E+00 0. -1.
         11    1    3    3    0    0  0.25810740554E+00  0.21625825320E+00  0.20119817205E-01  0.33733089547E+00  0.51100000000E-03 0. -1.
        -11    1    3    3    0    0 -0.22362318589E+02 -0.35681855830E+01  0.43342845657E+01  0.23056263010E+02  0.51100000000E-03 0.  1.
        -12    1    3    3    0    0 -0.21459156842E+02 -0.75162814548E+01 -0.71729982811E+00  0.22748723444E+02  0.00000000000E+00 0.  1.
</event>
<event>
 7    1  0.1503436E-008  0.4614231E+02  0.7816164E-02  0.1320468E+00
        -11   -1    0    0    0    0  0.00000000000E+00  0.00000000000E+00  0.45593999997E+02  0.45594000000E+02  0.51100000000E-03 0.  1.
         11   -1    0    0    0    0 -0.00000000000E+00 -0.00000000000E+00 -0.45593999997E+02  0.45594000000E+02  0.51100000000E-03 0. -1.
    9900012    2    1    2    0    0 -0.20360854647E+02 -0.54567985169E+01  0.39809206843E+02  0.46142312066E+02  0.99999480651E+01 0.  0.
         12    1    1    2    0    0  0.20360854647E+02  0.54567985169E+01 -0.39809206843E+02  0.45045687934E+02  0.00000000000E+00 0. -1.
         11    1    3    3    0    0 -0.16330702679E+01 -0.30005344040E+01  0.61054293924E+01  0.69961699191E+01  0.51100000000E-03 0. -1.
        -11    1    3    3    0    0 -0.74399044768E+01 -0.40615746977E+01  0.13251410797E+02  0.15730494462E+02  0.51100000000E-03 0.  1.
        -12    1    3    3    0    0 -0.11287879902E+02  0.16053105848E+01  0.20452366653E+02  0.23415647684E+02  0.00000000000E+00 0.  1.
</event>
<event>
 7    1  0.1503436E-008  0.4614232E+02  0.7816164E-02  0.1320468E+00
        -11   -1    0    0    0    0  0.00000000000E+00  0.00000000000E+00  0.45593999997E+02  0.45594000000E+02  0.51100000000E-03 0.  1.
         11   -1    0    0    0    0 -0.00000000000E+00 -0.00000000000E+00 -0.45593999997E+02  0.45594000000E+02  0.51100000000E-03 0. -1.
    9900012    2    1    2    0    0  0.45666054698E+01 -0.55233973287E+01  0.44471920021E+02  0.46142317922E+02  0.10000001465E+02 0.  0.
         12    1    1    2    0    0 -0.45666054698E+01  0.55233973287E+01 -0.44471920021E+02  0.45045682078E+02  0.00000000000E+00 0. -1.
         11    1    3    3    0    0  0.13079063153E+01 -0.56306049864E+01  0.17496815088E+02  0.18426960409E+02  0.51100000000E-03 0. -1.
        -11    1    3    3    0    0 -0.12756390584E+00 -0.21344190290E+01  0.65407682449E+01  0.68814000491E+01  0.51100000000E-03 0.  1.
         12    1    3    3    0    0  0.33862630603E+01  0.22416266867E+01  0.20434336688E+02  0.20833957464E+02  0.00000000000E+00 0. -1.
</event>
<event>
 7    1  0.1503436E-008  0.4614232E+02  0.7816164E-02  0.1320468E+00
        -11   -1    0    0    0    0  0.00000000000E+00  0.00000000000E+00  0.45593999997E+02  0.45594000000E+02  0.51100000000E-03 0. -1.
         11   -1    0    0    0    0 -0.00000000000E+00 -0.00000000000E+00 -0.45593999997E+02  0.45594000000E+02  0.51100000000E-03 0.  1.
    9900012    2    1    2    0    0  0.42067905595E+02 -0.99605700678E+01 -0.12656694074E+02  0.46142317164E+02  0.99999945580E+01 0.  0.
         12    1    1    2    0    0 -0.42067905595E+02  0.99605700678E+01  0.12656694074E+02  0.45045682836E+02  0.00000000000E+00 0. -1.
         11    1    3    3    0    0  0.51625875035E+01 -0.57958740797E+00 -0.73725667545E-02  0.51950251116E+01  0.51100000000E-03 0. -1.
        -11    1    3    3    0    0  0.34523434668E+02 -0.65570477453E+01 -0.10511786257E+02  0.36679150303E+02  0.51100000000E-03 0.  1.
        -12    1    3    3    0    0  0.23818834242E+01 -0.28239349146E+01 -0.21375352505E+01  0.42681417497E+01  0.00000000000E+00 0.  1.
</event>
<event>
 7    1  0.1503436E-008  0.4614232E+02  0.7816164E-02  0.1320468E+00
        -11   -1    0    0    0    0  0.00000000000E+00  0.00000000000E+00  0.45593999997E+02  0.45594000000E+02  0.51100000000E-03 0. -1.
         11   -1    0    0    0    0 -0.00000000000E+00 -0.00000000000E+00 -0.45593999997E+02  0.45594000000E+02  0.51100000000E-03 0.  1.
    9900012    2    1    2    0    0  0.35426639054E+02 -0.15762508914E+02 -0.22926186304E+02  0.46142318072E+02  0.10000002831E+02 0.  0.
         12    1    1    2    0    0 -0.35426639054E+02  0.15762508914E+02  0.22926186304E+02  0.45045681928E+02  0.00000000000E+00 0. -1.
         11    1    3    3    0    0  0.18915497786E+02 -0.69607417632E+01 -0.15308623492E+02  0.25310115287E+02  0.51100000000E-03 0. -1.
        -11    1    3    3    0    0  0.14152829163E+02 -0.55510230711E+01 -0.48596746559E+01  0.15960353018E+02  0.51100000000E-03 0.  1.
         12    1    3    3    0    0  0.23583121058E+01 -0.32507440801E+01 -0.27578881563E+01  0.48718497663E+01  0.00000000000E+00 0. -1.
</event>
<event>
 7    1  0.1503436E-008  0.4614232E+02  0.7816164E-02  0.1320468E+00
        -11   -1    0    0    0    0  0.00000000000E+00  0.00000000000E+00  0.45593999997E+02  0.45594000000E+02  0.51100000000E-03 0. -1.
         11   -1    0    0    0    0 -0.00000000000E+00 -0.00000000000E+00 -0.45593999997E+02  0.45594000000E+02  0.51100000000E-03 0.  1.
    9900012    2    1    2    0    0 -0.46231184846E+01 -0.21297795526E+02 -0.39422635778E+02  0.46142317293E+02  0.99999957352E+01 0.  0.
         12    1    1    2    0    0  0.46231184846E+01  0.21297795526E+02  0.39422635778E+02  0.45045682707E+02  0.00000000000E+00 0. -1.
         11    1    3    3    0    0 -0.65293549358E+01 -0.15346556331E+02 -0.22080014497E+02  0.27670856646E+02  0.51100000000E-03 0. -1.
        -11    1    3    3    0    0  0.12781358000E+01 -0.30086697785E+01 -0.10485836735E+02  0.10983555765E+02  0.51100000000E-03 0.  1.
         12    1    3    3    0    0  0.62810065122E+00 -0.29425694166E+01 -0.68567845469E+01  0.74879048820E+01  0.00000000000E+00 0. -1.
</event>
<event>
 7    1  0.1503436E-008  0.4614232E+02  0.7816164E-02  0.1320468E+00
        -11   -1    0    0    0    0  0.00000000000E+00  0.00000000000E+00  0.45593999997E+02  0.45594000000E+02  0.51100000000E-03 0.  1.
         11   -1    0    0    0    0 -0.00000000000E+00 -0.00000000000E+00 -0.45593999997E+02  0.45594000000E+02  0.51100000000E-03 0. -1.
    9900012    2    1    2    0    0  0.13611038811E+02 -0.41124869564E+02  0.12353050311E+02  0.46142321781E+02  0.10000036660E+02 0.  0.
         12    1    1    2    0    0 -0.13611038811E+02  0.41124869564E+02 -0.12353050311E+02  0.45045678219E+02  0.00000000000E+00 0. -1.
         11    1    3    3    0    0  0.40456463569E+01 -0.14310202381E+02  0.11269785187E+01  0.14913726143E+02  0.51100000000E-03 0. -1.
        -11    1    3    3    0    0  0.21934026734E+01 -0.61862100945E+01 -0.10714404301E+00  0.65644261538E+01  0.51100000000E-03 0.  1.
        -12    1    3    3    0    0  0.73719897809E+01 -0.20628457088E+02  0.11333215836E+02  0.24664169484E+02  0.00000000000E+00 0.  1.
</event>
<event>
 7    1  0.1503436E-008  0.4614232E+02  0.7816164E-02  0.1320468E+00
        -11   -1    0    0    0    0  0.00000000000E+00  0.00000000000E+00  0.45593999997E+02  0.45594000000E+02  0.51100000000E-03 0.  1.
         11   -1    0    0    0    0 -0.00000000000E+00 -0.00000000000E+00 -0.45593999997E+02  0.45594000000E+02  0.51100000000E-03 0. -1.
    9900012    2    1    2    0    0  0.12227758366E+02 -0.84266795767E+01  0.42527479151E+02  0.46142317785E+02  0.10000000214E+02 0.  0.
         12    1    1    2    0    0 -0.12227758366E+02  0.84266795767E+01 -0.42527479151E+02  0.45045682215E+02  0.00000000000E+00 0. -1.
         11    1    3    3    0    0 -0.22211292240E+00  0.82492489974E+00  0.27690184481E-01  0.85475274082E+00  0.51100000000E-03 0. -1.
        -11    1    3    3    0    0  0.45918403550E+01 -0.30360702247E+01  0.17845732821E+02  0.18675462522E+02  0.51100000000E-03 0.  1.
         12    1    3    3    0    0  0.78580309337E+01 -0.62155342517E+01  0.24654056145E+02  0.26612102521E+02  0.00000000000E+00 0. -1.
</event>
<event>
 7    1  0.1503436E-008  0.4614232E+02  0.7816164E-02  0.1320468E+00
        -11   -1    0    0    0    0  0.00000000000E+00  0.00000000000E+00  0.45593999997E+02  0.45594000000E+02  0.51100000000E-03 0.  1.
         11   -1    0    0    0    0 -0.00000000000E+00 -0.00000000000E+00 -0.45593999997E+02  0.45594000000E+02  0.51100000000E-03 0. -1.
    9900012    2    1    2    0    0  0.17804082878E+02 -0.40493269837E+02 -0.85101835617E+01  0.46142317704E+02  0.99999994831E+01 0.  0.
         12    1    1    2    0    0 -0.17804082878E+02  0.40493269837E+02  0.85101835617E+01  0.45045682296E+02  0.00000000000E+00 0. -1.
         11    1    3    3    0    0  0.29872179249E+01 -0.61340552453E+01  0.12989073094E+01  0.69453052592E+01  0.51100000000E-03 0. -1.
        -11    1    3    3    0    0  0.12338835008E+02 -0.25542688877E+02 -0.48371687445E+01  0.28776275057E+02  0.51100000000E-03 0.  1.
         12    1    3    3    0    0  0.24780299452E+01 -0.88165257144E+01 -0.49719221266E+01  0.10420737388E+02  0.00000000000E+00 0. -1.
</event>
<event>
 7    1  0.1503436E-008  0.4614232E+02  0.7816164E-02  0.1320468E+00
        -11   -1    0    0    0    0  0.00000000000E+00  0.00000000000E+00  0.45593999997E+02  0.45594000000E+02  0.51100000000E-03 0.  1.
         11   -1    0    0    0    0 -0.00000000000E+00 -0.00000000000E+00 -0.45593999997E+02  0.45594000000E+02  0.51100000000E-03 0. -1.
    9900012    2    1    2    0    0 -0.44216004411E+02 -0.86047852542E+01 -0.12744392308E+00  0.46142316330E+02  0.99999869530E+01 0.  0.
         12    1    1    2    0    0  0.44216004411E+02  0.86047852542E+01  0.12744392308E+00  0.45045683670E+02  0.00000000000E+00 0. -1.
         11    1    3    3    0    0 -0.62810927356E+00  0.43807954730E+00 -0.52234460289E+00  0.92697308191E+00  0.51100000000E-03 0. -1.
        -11    1    3    3    0    0 -0.33005689280E+02 -0.67838234931E+01 -0.31159154028E+01  0.33839395903E+02  0.51100000000E-03 0.  1.
        -12    1    3    3    0    0 -0.10582205857E+02 -0.22590413083E+01  0.35108160827E+01  0.11375947345E+02  0.00000000000E+00 0.  1.
</event>
<event>
 7    1  0.1503436E-008  0.4614233E+02  0.7816164E-02  0.1320468E+00
        -11   -1    0    0    0    0  0.00000000000E+00  0.00000000000E+00  0.45593999997E+02  0.45594000000E+02  0.51100000000E-03 0.  1.
         11   -1    0    0    0    0 -0.00000000000E+00 -0.00000000000E+00 -0.45593999997E+02  0.45594000000E+02  0.51100000000E-03 0. -1.
    9900012    2    1    2    0    0 -0.25265946609E+02 -0.95239595393E+01  0.36056050407E+02  0.46142327241E+02  0.10000086443E+02 0.  0.
         12    1    1    2    0    0  0.25265946609E+02  0.95239595393E+01 -0.36056050407E+02  0.45045672759E+02  0.00000000000E+00 0. -1.
         11    1    3    3    0    0 -0.58875479808E+01 -0.64903152632E+01  0.12093060116E+02  0.14934172782E+02  0.51100000000E-03 0. -1.
        -11    1    3    3    0    0 -0.15016805238E+02 -0.38193366488E+01  0.19647867539E+02  0.25022599207E+02  0.51100000000E-03 0.  1.
        -12    1    3    3    0    0 -0.43615933908E+01  0.78569237268E+00  0.43151227519E+01  0.61855552520E+01  0.00000000000E+00 0.  1.
</event>
<event>
 7    1  0.1503436E-008  0.4614232E+02  0.7816164E-02  0.1320468E+00
        -11   -1    0    0    0    0  0.00000000000E+00  0.00000000000E+00  0.45593999997E+02  0.45594000000E+02  0.51100000000E-03 0. -1.
         11   -1    0    0    0    0 -0.00000000000E+00 -0.00000000000E+00 -0.45593999997E+02  0.45594000000E+02  0.51100000000E-03 0.  1.
    9900012    2    1    2    0    0  0.38061711395E+02 -0.13921038391E+02 -0.19662764212E+02  0.46142317847E+02  0.10000000782E+02 0.  0.
         12    1    1    2    0    0 -0.38061711395E+02  0.13921038391E+02  0.19662764212E+02  0.45045682153E+02  0.00000000000E+00 0. -1.
         11    1    3    3    0    0  0.23919480891E-01 -0.34856813148E+00  0.76460011153E+00  0.84064586808E+00  0.51100000000E-03 0. -1.
        -11    1    3    3    0    0  0.15893047643E+02 -0.47857457870E+01 -0.89419386304E+01  0.18853397382E+02  0.51100000000E-03 0.  1.
         12    1    3    3    0    0  0.22144744271E+02 -0.87867244729E+01 -0.11485425693E+02  0.26448274597E+02  0.00000000000E+00 0. -1.
</event>
<event>
 7    1  0.1636727E-008  0.4614232E+02  0.7816164E-02  0.1320468E+00
        -11   -1    0    0    0    0  0.00000000000E+00  0.00000000000E+00  0.45593999997E+02  0.45594000000E+02  0.51100000000E-03 0. -1.
         11   -1    0    0    0    0 -0.00000000000E+00 -0.00000000000E+00 -0.45593999997E+02  0.45594000000E+02  0.51100000000E-03 0.  1.
    9900012    2    1    2    0    0 -0.42698907884E+02  0.12990531139E+02 -0.60961273760E+01  0.46142318711E+02  0.10000008662E+02 0.  0.
         12    1    1    2    0    0  0.42698907884E+02 -0.12990531139E+02  0.60961273760E+01  0.45045681289E+02  0.00000000000E+00 0. -1.
         11    1    3    3    0    0 -0.95935979635E+00 -0.79759391027E+00  0.43015128267E-01  0.12483500418E+01  0.51100000000E-03 0. -1.
        -11    1    3    3    0    0 -0.21699371551E+02  0.10199271807E+02 -0.50695415577E+01  0.24506899498E+02  0.51100000000E-03 0.  1.
        -12    1    3    3    0    0 -0.20040176537E+02  0.35888532423E+01 -0.10696009466E+01  0.20387069172E+02  0.00000000000E+00 0.  1.
</event>
<event>
 7    1  0.1503436E-008  0.4614232E+02  0.7816164E-02  0.1320468E+00
        -11   -1    0    0    0    0  0.00000000000E+00  0.00000000000E+00  0.45593999997E+02  0.45594000000E+02  0.51100000000E-03 0. -1.
         11   -1    0    0    0    0 -0.00000000000E+00 -0.00000000000E+00 -0.45593999997E+02  0.45594000000E+02  0.51100000000E-03 0.  1.
    9900012    2    1    2    0    0  0.40459743421E+02 -0.19655232770E+02  0.24071583344E+01  0.46142318474E+02  0.10000006500E+02 0.  0.
         12    1    1    2    0    0 -0.40459743421E+02  0.19655232770E+02 -0.24071583344E+01  0.45045681526E+02  0.00000000000E+00 0. -1.
         11    1    3    3    0    0  0.12687153002E+02 -0.11166858127E+02 -0.16018787872E+00  0.16902314402E+02  0.51100000000E-03 0. -1.
        -11    1    3    3    0    0  0.19948527244E+02 -0.70843472964E+01  0.21883838867E+01  0.21281934595E+02  0.51100000000E-03 0.  1.
         12    1    3    3    0    0  0.78240631750E+01 -0.14040273464E+01  0.37896232644E+00  0.79580694769E+01  0.00000000000E+00 0. -1.
</event>
<event>
 7    1  0.1503436E-008  0.4614232E+02  0.7816164E-02  0.1320468E+00
        -11   -1    0    0    0    0  0.00000000000E+00  0.00000000000E+00  0.45593999997E+02  0.45594000000E+02  0.51100000000E-03 0.  1.
         11   -1    0    0    0    0 -0.00000000000E+00 -0.00000000000E+00 -0.45593999997E+02  0.45594000000E+02  0.51100000000E-03 0. -1.
    9900012    2    1    2    0    0  0.61155991754E+01  0.43475815639E+02 -0.10078016854E+02  0.46142317383E+02  0.99999965488E+01 0.  0.
         12    1    1    2    0    0 -0.61155991754E+01 -0.43475815639E+02  0.10078016854E+02  0.45045682617E+02  0.00000000000E+00 0. -1.
         11    1    3    3    0    0  0.14893887467E+01  0.13837577943E+02 -0.15500896933E+01  0.14003557422E+02  0.51100000000E-03 0. -1.
        -11    1    3    3    0    0  0.52698809793E+01  0.29507314536E+02 -0.74658908194E+01  0.30890011050E+02  0.51100000000E-03 0.  1.
         12    1    3    3    0    0 -0.64367055063E+00  0.13092316005E+00 -0.10620363410E+01  0.12487489103E+01  0.00000000000E+00 0. -1.
</event>
<event>
 7    1  0.1503436E-008  0.4614232E+02  0.7816164E-02  0.1320468E+00
        -11   -1    0    0    0    0  0.00000000000E+00  0.00000000000E+00  0.45593999997E+02  0.45594000000E+02  0.51100000000E-03 0. -1.
         11   -1    0    0    0    0 -0.00000000000E+00 -0.00000000000E+00 -0.45593999997E+02  0.45594000000E+02  0.51100000000E-03 0.  1.
    9900012    2    1    2    0    0  0.39271309672E+02 -0.30554143182E+01 -0.21852738505E+02  0.46142317630E+02  0.99999988043E+01 0.  0.
         12    1    1    2    0    0 -0.39271309672E+02  0.30554143182E+01  0.21852738505E+02  0.45045682370E+02  0.00000000000E+00 0. -1.
         11    1    3    3    0    0  0.11675345948E+02 -0.41213366079E+01 -0.38503786236E+01  0.12966284520E+02  0.51100000000E-03 0. -1.
        -11    1    3    3    0    0  0.14257975578E+02  0.55512526761E+00 -0.70786667350E+01  0.15928137199E+02  0.51100000000E-03 0.  1.
         12    1    3    3    0    0  0.13337988146E+02  0.51079702205E+00 -0.10923693147E+02  0.17247895911E+02  0.00000000000E+00 0. -1.
</event>
<event>
 7    1  0.1503436E-008  0.4614232E+02  0.7816164E-02  0.1320468E+00
        -11   -1    0    0    0    0  0.00000000000E+00  0.00000000000E+00  0.45593999997E+02  0.45594000000E+02  0.51100000000E-03 0.  1.
         11   -1    0    0    0    0 -0.00000000000E+00 -0.00000000000E+00 -0.45593999997E+02  0.45594000000E+02  0.51100000000E-03 0. -1.
    9900012    2    1    2    0    0  0.13778991743E+02 -0.12087044059E+02  0.41147978858E+02  0.46142318613E+02  0.10000007766E+02 0.  0.
         12    1    1    2    0    0 -0.13778991743E+02  0.12087044059E+02 -0.41147978858E+02  0.45045681387E+02  0.00000000000E+00 0. -1.
         11    1    3    3    0    0  0.30346008662E+00 -0.77060440015E+00 -0.19832336872E+00  0.85161704152E+00  0.51100000000E-03 0. -1.
        -11    1    3    3    0    0  0.12644486597E+02 -0.94628685257E+01  0.39520731664E+02  0.42559571820E+02  0.51100000000E-03 0.  1.
         12    1    3    3    0    0  0.83104505884E+00 -0.18535711328E+01  0.18255705632E+01  0.27311297508E+01  0.00000000000E+00 0. -1.
</event>
<event>
 7    1  0.1503436E-008  0.4614232E+02  0.7816164E-02  0.1320468E+00
        -11   -1    0    0    0    0  0.00000000000E+00  0.00000000000E+00  0.45593999997E+02  0.45594000000E+02  0.51100000000E-03 0. -1.
         11   -1    0    0    0    0 -0.00000000000E+00 -0.00000000000E+00 -0.45593999997E+02  0.45594000000E+02  0.51100000000E-03 0.  1.
    9900012    2    1    2    0    0 -0.22757837509E+02 -0.87644975456E+01 -0.37873181551E+02  0.46142318008E+02  0.10000002252E+02 0.  0.
         12    1    1    2    0    0  0.22757837509E+02  0.87644975456E+01  0.37873181551E+02  0.45045681992E+02  0.00000000000E+00 0. -1.
         11    1    3    3    0    0 -0.56515017365E+01  0.90908679762E-01 -0.11232520926E+02  0.12574468692E+02  0.51100000000E-03 0. -1.
        -11    1    3    3    0    0 -0.11684709945E+02 -0.22894728470E+01 -0.15414418534E+02  0.19477639267E+02  0.51100000000E-03 0.  1.
        -12    1    3    3    0    0 -0.54216258276E+01 -0.65659333784E+01 -0.11226242091E+02  0.14090210049E+02  0.00000000000E+00 0.  1.
</event>
<event>
 7    1  0.1503436E-008  0.4614233E+02  0.7816164E-02  0.1320468E+00
        -11   -1    0    0    0    0  0.00000000000E+00  0.00000000000E+00  0.45593999997E+02  0.45594000000E+02  0.51100000000E-03 0. -1.
         11   -1    0    0    0    0 -0.00000000000E+00 -0.00000000000E+00 -0.45593999997E+02  0.45594000000E+02  0.51100000000E-03 0.  1.
    9900012    2    1    2    0    0  0.94716499597E+01  0.26040144000E+02 -0.35514942175E+02  0.46142330172E+02  0.10000113176E+02 0.  0.
         12    1    1    2    0    0 -0.94716499597E+01 -0.26040144000E+02  0.35514942175E+02  0.45045669828E+02  0.00000000000E+00 0. -1.
         11    1    3    3    0    0  0.30216783505E+01  0.10700487412E+02 -0.11006971678E+02  0.15645587131E+02  0.51100000000E-03 0.  1.
        -11    1    3    3    0    0  0.34339408320E+01  0.77543860122E+01 -0.63699845541E+01  0.10606561910E+02  0.51100000000E-03 0. -1.
        -12    1    3    3    0    0  0.30160307772E+01  0.75852705757E+01 -0.18137985943E+02  0.19890181131E+02  0.00000000000E+00 0.  1.
</event>
<event>
 7    1  0.1503436E-008  0.4614232E+02  0.7816164E-02  0.1320468E+00
        -11   -1    0    0    0    0  0.00000000000E+00  0.00000000000E+00  0.45593999997E+02  0.45594000000E+02  0.51100000000E-03 0.  1.
         11   -1    0    0    0    0 -0.00000000000E+00 -0.00000000000E+00 -0.45593999997E+02  0.45594000000E+02  0.51100000000E-03 0. -1.
    9900012    2    1    2    0    0  0.30145127135E+02 -0.27943220604E+02  0.18427187085E+02  0.46142317725E+02  0.99999996712E+01 0.  0.
         12    1    1    2    0    0 -0.30145127135E+02  0.27943220604E+02 -0.18427187085E+02  0.45045682275E+02  0.00000000000E+00 0. -1.
         11    1    3    3    0    0  0.13040092407E+02 -0.18274260772E+02  0.11082228033E+02  0.25036141779E+02  0.51100000000E-03 0. -1.
        -11    1    3    3    0    0  0.93526773117E+01 -0.65908585443E+01  0.44614152603E+01  0.12280725371E+02  0.51100000000E-03 0.  1.
         12    1    3    3    0    0  0.77523574169E+01 -0.30781012882E+01  0.28835437916E+01  0.88254505754E+01  0.00000000000E+00 0. -1.
</event>
<event>
 7    1  0.1503436E-008  0.4614232E+02  0.7816164E-02  0.1320468E+00
        -11   -1    0    0    0    0  0.00000000000E+00  0.00000000000E+00  0.45593999997E+02  0.45594000000E+02  0.51100000000E-03 0.  1.
         11   -1    0    0    0    0 -0.00000000000E+00 -0.00000000000E+00 -0.45593999997E+02  0.45594000000E+02  0.51100000000E-03 0. -1.
    9900012    2    1    2    0    0  0.57892485773E+01  0.10137410777E+02  0.43506678173E+02  0.46142317165E+02  0.99999945686E+01 0.  0.
         12    1    1    2    0    0 -0.57892485773E+01 -0.10137410777E+02 -0.43506678173E+02  0.45045682835E+02  0.00000000000E+00 0. -1.
         11    1    3    3    0    0 -0.14745687934E+01  0.42795394420E+01  0.66562323341E+01  0.80494869470E+01  0.51100000000E-03 0. -1.
        -11    1    3    3    0    0  0.67223621988E+01  0.42615760099E+01  0.30831304513E+02  0.31842118677E+02  0.51100000000E-03 0.  1.
        -12    1    3    3    0    0  0.54145517198E+00  0.15962953247E+01  0.60191413264E+01  0.62507115415E+01  0.00000000000E+00 0.  1.
</event>
<event>
 7    1  0.1503436E-008  0.4614232E+02  0.7816164E-02  0.1320468E+00
        -11   -1    0    0    0    0  0.00000000000E+00  0.00000000000E+00  0.45593999997E+02  0.45594000000E+02  0.51100000000E-03 0. -1.
         11   -1    0    0    0    0 -0.00000000000E+00 -0.00000000000E+00 -0.45593999997E+02  0.45594000000E+02  0.51100000000E-03 0.  1.
    9900012    2    1    2    0    0  0.43171439044E+02 -0.36131807473E+01  0.12340392419E+02  0.46142317529E+02  0.99999978840E+01 0.  0.
         12    1    1    2    0    0 -0.43171439044E+02  0.36131807473E+01 -0.12340392419E+02  0.45045682471E+02  0.00000000000E+00 0. -1.
         11    1    3    3    0    0  0.19623354503E+02  0.23817786717E+01  0.80850050449E+01  0.21356877544E+02  0.51100000000E-03 0. -1.
        -11    1    3    3    0    0  0.16570567087E+02 -0.47711482057E+01  0.39743044739E+01  0.17695836943E+02  0.51100000000E-03 0.  1.
         12    1    3    3    0    0  0.69775174535E+01 -0.12238112133E+01  0.28108289985E+00  0.70896030423E+01  0.00000000000E+00 0. -1.
</event>
<event>
 7    1  0.1503436E-008  0.4614232E+02  0.7816164E-02  0.1320468E+00
        -11   -1    0    0    0    0  0.00000000000E+00  0.00000000000E+00  0.45593999997E+02  0.45594000000E+02  0.51100000000E-03 0.  1.
         11   -1    0    0    0    0 -0.00000000000E+00 -0.00000000000E+00 -0.45593999997E+02  0.45594000000E+02  0.51100000000E-03 0. -1.
    9900012    2    1    2    0    0  0.16640537473E+02 -0.39655182623E+02  0.13404194192E+02  0.46142318540E+02  0.10000007105E+02 0.  0.
         12    1    1    2    0    0 -0.16640537473E+02  0.39655182623E+02 -0.13404194192E+02  0.45045681460E+02  0.00000000000E+00 0. -1.
         11    1    3    3    0    0  0.39768810629E+01 -0.38354383045E+01  0.16173017084E+01  0.57568945668E+01  0.51100000000E-03 0. -1.
        -11    1    3    3    0    0  0.96077776017E+01 -0.25379734578E+02  0.50883783124E+01  0.27610358778E+02  0.51100000000E-03 0.  1.
         12    1    3    3    0    0  0.30558788084E+01 -0.10440009740E+02  0.66985141714E+01  0.12775065196E+02  0.00000000000E+00 0. -1.
</event>
<event>
 7    1  0.1503436E-008  0.4614232E+02  0.7816164E-02  0.1320468E+00
        -11   -1    0    0    0    0  0.00000000000E+00  0.00000000000E+00  0.45593999997E+02  0.45594000000E+02  0.51100000000E-03 0.  1.
         11   -1    0    0    0    0 -0.00000000000E+00 -0.00000000000E+00 -0.45593999997E+02  0.45594000000E+02  0.51100000000E-03 0. -1.
    9900012    2    1    2    0    0  0.38325013123E+02 -0.23152776308E+02  0.49250199344E+01  0.46142317599E+02  0.99999985219E+01 0.  0.
         12    1    1    2    0    0 -0.38325013123E+02  0.23152776308E+02 -0.49250199344E+01  0.45045682401E+02  0.00000000000E+00 0. -1.
         11    1    3    3    0    0  0.60009643951E+01 -0.49102744646E+01 -0.25497440275E+01  0.81623258852E+01  0.51100000000E-03 0. -1.
        -11    1    3    3    0    0  0.16401249140E+02 -0.75808667674E+01  0.39701982545E+01  0.18499540231E+02  0.51100000000E-03 0.  1.
         12    1    3    3    0    0  0.15922799587E+02 -0.10661635076E+02  0.35045657074E+01  0.19480451483E+02  0.00000000000E+00 0. -1.
</event>
<event>
 7    1  0.1503436E-008  0.4614232E+02  0.7816164E-02  0.1320468E+00
        -11   -1    0    0    0    0  0.00000000000E+00  0.00000000000E+00  0.45593999997E+02  0.45594000000E+02  0.51100000000E-03 0.  1.
         11   -1    0    0    0    0 -0.00000000000E+00 -0.00000000000E+00 -0.45593999997E+02  0.45594000000E+02  0.51100000000E-03 0. -1.
    9900012    2    1    2    0    0 -0.10627097342E+02  0.24839495951E+02  0.36044105403E+02  0.46142319949E+02  0.10000019949E+02 0.  0.
         12    1    1    2    0    0  0.10627097342E+02 -0.24839495951E+02 -0.36044105403E+02  0.45045680051E+02  0.00000000000E+00 0. -1.
         11    1    3    3    0    0 -0.80182200012E-01 -0.58514158425E+00  0.12494587671E+01  0.13820156767E+01  0.51100000000E-03 0. -1.
        -11    1    3    3    0    0 -0.48322820763E+01  0.14844820188E+02  0.15322375417E+02  0.21874524570E+02  0.51100000000E-03 0.  1.
        -12    1    3    3    0    0 -0.57146330657E+01  0.10579817347E+02  0.19472271218E+02  0.22885779702E+02  0.00000000000E+00 0.  1.
</event>
<event>
 7    1  0.1503436E-008  0.4614232E+02  0.7816164E-02  0.1320468E+00
        -11   -1    0    0    0    0  0.00000000000E+00  0.00000000000E+00  0.45593999997E+02  0.45594000000E+02  0.51100000000E-03 0. -1.
         11   -1    0    0    0    0 -0.00000000000E+00 -0.00000000000E+00 -0.45593999997E+02  0.45594000000E+02  0.51100000000E-03 0.  1.
    9900012    2    1    2    0    0 -0.35939571970E+02 -0.26284256498E+02  0.68263089091E+01  0.46142318005E+02  0.10000002225E+02 0.  0.
         12    1    1    2    0    0  0.35939571970E+02  0.26284256498E+02 -0.68263089091E+01  0.45045681995E+02  0.00000000000E+00 0. -1.
         11    1    3    3    0    0 -0.76006065015E+01 -0.86994843923E+01  0.47206539047E+01  0.12479375843E+02  0.51100000000E-03 0. -1.
        -11    1    3    3    0    0 -0.12726036386E+02 -0.58703084233E+01 -0.13790332793E+00  0.14015403692E+02  0.51100000000E-03 0.  1.
        -12    1    3    3    0    0 -0.15612929083E+02 -0.11714463683E+02  0.22435583323E+01  0.19647538470E+02  0.00000000000E+00 0.  1.
</event>
<event>
 7    1  0.1503436E-008  0.4614232E+02  0.7816164E-02  0.1320468E+00
        -11   -1    0    0    0    0  0.00000000000E+00  0.00000000000E+00  0.45593999997E+02  0.45594000000E+02  0.51100000000E-03 0.  1.
         11   -1    0    0    0    0 -0.00000000000E+00 -0.00000000000E+00 -0.45593999997E+02  0.45594000000E+02  0.51100000000E-03 0. -1.
    9900012    2    1    2    0    0  0.12915683078E+02 -0.26864755100E+02  0.33772526318E+02  0.46142317966E+02  0.10000001871E+02 0.  0.
         12    1    1    2    0    0 -0.12915683078E+02  0.26864755100E+02 -0.33772526318E+02  0.45045682034E+02  0.00000000000E+00 0. -1.
         11    1    3    3    0    0  0.29098727603E+01 -0.96477450015E+00  0.38255589733E+01  0.49023515823E+01  0.51100000000E-03 0. -1.
        -11    1    3    3    0    0  0.74555783130E+01 -0.23213914318E+02  0.27724625327E+02  0.36920540566E+02  0.51100000000E-03 0.  1.
        -12    1    3    3    0    0  0.25502320042E+01 -0.26860662824E+01  0.22223420180E+01  0.43194258176E+01  0.00000000000E+00 0.  1.
</event>
<event>
 7    1  0.1503436E-008  0.4614231E+02  0.7816164E-02  0.1320468E+00
        -11   -1    0    0    0    0  0.00000000000E+00  0.00000000000E+00  0.45593999997E+02  0.45594000000E+02  0.51100000000E-03 0.  1.
         11   -1    0    0    0    0 -0.00000000000E+00 -0.00000000000E+00 -0.45593999997E+02  0.45594000000E+02  0.51100000000E-03 0. -1.
    9900012    2    1    2    0    0  0.19789879621E+02 -0.36957344812E+02 -0.16481178900E+02  0.46142312872E+02  0.99999554139E+01 0.  0.
         12    1    1    2    0    0 -0.19789879621E+02  0.36957344812E+02  0.16481178900E+02  0.45045687128E+02  0.00000000000E+00 0. -1.
         11    1    3    3    0    0  0.28526691182E+01 -0.32987966275E+01  0.10172040194E+00  0.43623534461E+01  0.51100000000E-03 0. -1.
        -11    1    3    3    0    0  0.44054887439E+01 -0.55106270877E+01 -0.58095595836E+01  0.91392737561E+01  0.51100000000E-03 0.  1.
        -12    1    3    3    0    0  0.12531721759E+02 -0.28147921096E+02 -0.10773339718E+02  0.32640685669E+02  0.00000000000E+00 0.  1.
</event>
<event>
 7    1  0.1503436E-008  0.4614232E+02  0.7816164E-02  0.1320468E+00
        -11   -1    0    0    0    0  0.00000000000E+00  0.00000000000E+00  0.45593999997E+02  0.45594000000E+02  0.51100000000E-03 0.  1.
         11   -1    0    0    0    0 -0.00000000000E+00 -0.00000000000E+00 -0.45593999997E+02  0.45594000000E+02  0.51100000000E-03 0. -1.
    9900012    2    1    2    0    0 -0.17310920235E+02  0.41551113480E+02  0.17177036685E+01  0.46142317668E+02  0.99999991552E+01 0.  0.
         12    1    1    2    0    0  0.17310920235E+02 -0.41551113480E+02 -0.17177036685E+01  0.45045682332E+02  0.00000000000E+00 0. -1.
         11    1    3    3    0    0 -0.57393852848E+01  0.10312920358E+02 -0.14087799220E+01  0.11886190764E+02  0.51100000000E-03 0. -1.
        -11    1    3    3    0    0 -0.68374054887E+01  0.22592128987E+02 -0.86838135351E+00  0.23620086630E+02  0.51100000000E-03 0.  1.
        -12    1    3    3    0    0 -0.47341294618E+01  0.86460641355E+01  0.39948649440E+01  0.10636040274E+02  0.00000000000E+00 0.  1.
</event>
<event>
 7    1  0.1503436E-008  0.4614232E+02  0.7816164E-02  0.1320468E+00
        -11   -1    0    0    0    0  0.00000000000E+00  0.00000000000E+00  0.45593999997E+02  0.45594000000E+02  0.51100000000E-03 0. -1.
         11   -1    0    0    0    0 -0.00000000000E+00 -0.00000000000E+00 -0.45593999997E+02  0.45594000000E+02  0.51100000000E-03 0.  1.
    9900012    2    1    2    0    0  0.21359350865E+02 -0.16864348128E+01 -0.39623825981E+02  0.46142317442E+02  0.99999970896E+01 0.  0.
         12    1    1    2    0    0 -0.21359350865E+02  0.16864348128E+01  0.39623825981E+02  0.45045682558E+02  0.00000000000E+00 0. -1.
         11    1    3    3    0    0  0.59861285243E+01 -0.20148830919E+01 -0.74450813429E+01  0.97633357541E+01  0.51100000000E-03 0. -1.
        -11    1    3    3    0    0  0.14843028781E+02  0.12707677365E+01 -0.31980032262E+02  0.35279637438E+02  0.51100000000E-03 0.  1.
        -12    1    3    3    0    0  0.53019355999E+00 -0.94231945743E+00 -0.19871237599E+00  0.10993442497E+01  0.00000000000E+00 0.  1.
</event>
<event>
 7    1  0.1503436E-008  0.4614232E+02  0.7816164E-02  0.1320468E+00
        -11   -1    0    0    0    0  0.00000000000E+00  0.00000000000E+00  0.45593999997E+02  0.45594000000E+02  0.51100000000E-03 0.  1.
         11   -1    0    0    0    0 -0.00000000000E+00 -0.00000000000E+00 -0.45593999997E+02  0.45594000000E+02  0.51100000000E-03 0. -1.
    9900012    2    1    2    0    0  0.93101834088E+01  0.26571116758E+02  0.35162618028E+02  0.46142317993E+02  0.10000002116E+02 0.  0.
         12    1    1    2    0    0 -0.93101834088E+01 -0.26571116758E+02 -0.35162618028E+02  0.45045682007E+02  0.00000000000E+00 0. -1.
         11    1    3    3    0    0 -0.90427492789E+00  0.29741413796E+01  0.47884663875E+01  0.57089964702E+01  0.51100000000E-03 0.  1.
        -11    1    3    3    0    0  0.67809709542E+01  0.99694447000E+01  0.18248090133E+02  0.21871538320E+02  0.51100000000E-03 0. -1.
        -12    1    3    3    0    0  0.34334873824E+01  0.13627530678E+02  0.12126061508E+02  0.18561783203E+02  0.00000000000E+00 0.  1.
</event>
<event>
 7    1  0.1503436E-008  0.4614232E+02  0.7816164E-02  0.1320468E+00
        -11   -1    0    0    0    0  0.00000000000E+00  0.00000000000E+00  0.45593999997E+02  0.45594000000E+02  0.51100000000E-03 0.  1.
         11   -1    0    0    0    0 -0.00000000000E+00 -0.00000000000E+00 -0.45593999997E+02  0.45594000000E+02  0.51100000000E-03 0. -1.
    9900012    2    1    2    0    0 -0.11127654962E+02  0.48609200517E+01  0.43378107310E+02  0.46142318270E+02  0.10000004641E+02 0.  0.
         12    1    1    2    0    0  0.11127654962E+02 -0.48609200517E+01 -0.43378107310E+02  0.45045681730E+02  0.00000000000E+00 0. -1.
         11    1    3    3    0    0 -0.47989309079E+01  0.16974120350E+01  0.73345751371E+01  0.89278742251E+01  0.51100000000E-03 0. -1.
        -11    1    3    3    0    0 -0.57157383710E+01  0.43216366282E+01  0.22637567752E+02  0.23744592696E+02  0.51100000000E-03 0.  1.
         12    1    3    3    0    0 -0.61298568269E+00 -0.11581286115E+01  0.13405964421E+02  0.13469851349E+02  0.00000000000E+00 0. -1.
</event>
<event>
 7    1  0.1503436E-008  0.4614232E+02  0.7816164E-02  0.1320468E+00
        -11   -1    0    0    0    0  0.00000000000E+00  0.00000000000E+00  0.45593999997E+02  0.45594000000E+02  0.51100000000E-03 0. -1.
         11   -1    0    0    0    0 -0.00000000000E+00 -0.00000000000E+00 -0.45593999997E+02  0.45594000000E+02  0.51100000000E-03 0.  1.
    9900012    2    1    2    0    0  0.11409251381E+02 -0.68495989278E+01 -0.43035167929E+02  0.46142315399E+02  0.99999784570E+01 0.  0.
         12    1    1    2    0    0 -0.11409251381E+02  0.68495989278E+01  0.43035167929E+02  0.45045684601E+02  0.00000000000E+00 0. -1.
         11    1    3    3    0    0  0.11601510095E+01 -0.45434663374E+01 -0.87934944981E+01  0.99656701969E+01  0.51100000000E-03 0. -1.
        -11    1    3    3    0    0 -0.49231469155E+00 -0.58038571397E+00 -0.29968345897E+01  0.30919636401E+01  0.51100000000E-03 0.  1.
         12    1    3    3    0    0  0.10741415063E+02 -0.17257468765E+01 -0.31244838841E+02  0.33084681562E+02  0.00000000000E+00 0. -1.
</event>
<event>
 7    1  0.1503436E-008  0.4614232E+02  0.7816164E-02  0.1320468E+00
        -11   -1    0    0    0    0  0.00000000000E+00  0.00000000000E+00  0.45593999997E+02  0.45594000000E+02  0.51100000000E-03 0.  1.
         11   -1    0    0    0    0 -0.00000000000E+00 -0.00000000000E+00 -0.45593999997E+02  0.45594000000E+02  0.51100000000E-03 0. -1.
    9900012    2    1    2    0    0 -0.25066531593E+02 -0.37426186922E+02  0.25108520183E+00  0.46142317438E+02  0.99999970578E+01 0.  0.
         12    1    1    2    0    0  0.25066531593E+02  0.37426186922E+02 -0.25108520183E+00  0.45045682562E+02  0.00000000000E+00 0. -1.
         11    1    3    3    0    0 -0.39817785431E+01 -0.28757842344E+01 -0.10331475671E+01  0.50191721912E+01  0.51100000000E-03 0. -1.
        -11    1    3    3    0    0 -0.19778065806E+02 -0.31704066049E+02 -0.77409006868E+00  0.37375378349E+02  0.51100000000E-03 0.  1.
        -12    1    3    3    0    0 -0.13066872437E+01 -0.28463366391E+01  0.20583228376E+01  0.37477668977E+01  0.00000000000E+00 0.  1.
</event>
<event>
 7    1  0.1503436E-008  0.4614232E+02  0.7816164E-02  0.1320468E+00
        -11   -1    0    0    0    0  0.00000000000E+00  0.00000000000E+00  0.45593999997E+02  0.45594000000E+02  0.51100000000E-03 0.  1.
         11   -1    0    0    0    0 -0.00000000000E+00 -0.00000000000E+00 -0.45593999997E+02  0.45594000000E+02  0.51100000000E-03 0. -1.
    9900012    2    1    2    0    0 -0.18022010325E+01 -0.44940949011E+02 -0.24853003059E+01  0.46142317141E+02  0.99999943498E+01 0.  0.
         12    1    1    2    0    0  0.18022010325E+01  0.44940949011E+02  0.24853003059E+01  0.45045682859E+02  0.00000000000E+00 0. -1.
         11    1    3    3    0    0 -0.13345151517E+01 -0.53130565672E+01  0.26932436503E+01  0.61043478274E+01  0.51100000000E-03 0. -1.
        -11    1    3    3    0    0 -0.31365936313E+00 -0.30848227372E+02 -0.50195226454E+01  0.31255513467E+02  0.51100000000E-03 0.  1.
         12    1    3    3    0    0 -0.15402651768E+00 -0.87796650716E+01 -0.15902131074E+00  0.87824558476E+01  0.00000000000E+00 0. -1.
</event>
<event>
 7    1  0.1503436E-008  0.4614232E+02  0.7816164E-02  0.1320468E+00
        -11   -1    0    0    0    0  0.00000000000E+00  0.00000000000E+00  0.45593999997E+02  0.45594000000E+02  0.51100000000E-03 0.  1.
         11   -1    0    0    0    0 -0.00000000000E+00 -0.00000000000E+00 -0.45593999997E+02  0.45594000000E+02  0.51100000000E-03 0. -1.
    9900012    2    1    2    0    0  0.10351188271E+01 -0.79102927836E+01  0.44333613686E+02  0.46142317572E+02  0.99999982766E+01 0.  0.
         12    1    1    2    0    0 -0.10351188271E+01  0.79102927836E+01 -0.44333613686E+02  0.45045682428E+02  0.00000000000E+00 0. -1.
         11    1    3    3    0    0  0.75867160568E+00 -0.58554151161E+01  0.11695476605E+02  0.13101360314E+02  0.51100000000E-03 0. -1.
        -11    1    3    3    0    0 -0.15910104321E+01 -0.27271231559E+01  0.19642095613E+02  0.19894231205E+02  0.51100000000E-03 0.  1.
        -12    1    3    3    0    0  0.18674576535E+01  0.67224548840E+00  0.12996041468E+02  0.13146726053E+02  0.00000000000E+00 0.  1.
</event>
<event>
 7    1  0.1503436E-008  0.4614232E+02  0.7816164E-02  0.1320468E+00
        -11   -1    0    0    0    0  0.00000000000E+00  0.00000000000E+00  0.45593999997E+02  0.45594000000E+02  0.51100000000E-03 0.  1.
         11   -1    0    0    0    0 -0.00000000000E+00 -0.00000000000E+00 -0.45593999997E+02  0.45594000000E+02  0.51100000000E-03 0. -1.
    9900012    2    1    2    0    0  0.31453297726E+02 -0.24086896484E+02 -0.21438862763E+02  0.46142319223E+02  0.10000013334E+02 0.  0.
         12    1    1    2    0    0 -0.31453297726E+02  0.24086896484E+02  0.21438862763E+02  0.45045680777E+02  0.00000000000E+00 0. -1.
         11    1    3    3    0    0  0.31048949758E+01 -0.57309586826E+01 -0.48497026698E+01  0.81242769820E+01  0.51100000000E-03 0. -1.
        -11    1    3    3    0    0  0.86636395180E+01 -0.87159303934E+01 -0.59804371174E+01  0.13667176764E+02  0.51100000000E-03 0.  1.
        -12    1    3    3    0    0  0.19684763232E+02 -0.96400074077E+01 -0.10608722976E+02  0.24350865477E+02  0.00000000000E+00 0.  1.
</event>
<event>
 7    1  0.1503436E-008  0.4614232E+02  0.7816164E-02  0.1320468E+00
        -11   -1    0    0    0    0  0.00000000000E+00  0.00000000000E+00  0.45593999997E+02  0.45594000000E+02  0.51100000000E-03 0. -1.
         11   -1    0    0    0    0 -0.00000000000E+00 -0.00000000000E+00 -0.45593999997E+02  0.45594000000E+02  0.51100000000E-03 0.  1.
    9900012    2    1    2    0    0 -0.81510847507E+01  0.29281457725E+02 -0.33245595415E+02  0.46142316926E+02  0.99999923820E+01 0.  0.
         12    1    1    2    0    0  0.81510847507E+01 -0.29281457725E+02  0.33245595415E+02  0.45045683074E+02  0.00000000000E+00 0. -1.
         11    1    3    3    0    0 -0.33318921973E+01  0.17467591029E+01 -0.35562325698E+01  0.51768198084E+01  0.51100000000E-03 0. -1.
        -11    1    3    3    0    0 -0.37651044331E+01  0.16726644335E+02 -0.15627205257E+02  0.23198409137E+02  0.51100000000E-03 0.  1.
         12    1    3    3    0    0 -0.10540881203E+01  0.10808054287E+02 -0.14062157589E+02  0.17767087980E+02  0.00000000000E+00 0. -1.
</event>
<event>
 7    1  0.1503436E-008  0.4614232E+02  0.7816164E-02  0.1320468E+00
        -11   -1    0    0    0    0  0.00000000000E+00  0.00000000000E+00  0.45593999997E+02  0.45594000000E+02  0.51100000000E-03 0.  1.
         11   -1    0    0    0    0 -0.00000000000E+00 -0.00000000000E+00 -0.45593999997E+02  0.45594000000E+02  0.51100000000E-03 0. -1.
    9900012    2    1    2    0    0 -0.24891408635E+02 -0.20125830431E+02  0.31693567113E+02  0.46142317957E+02  0.10000001790E+02 0.  0.
         12    1    1    2    0    0  0.24891408635E+02  0.20125830431E+02 -0.31693567113E+02  0.45045682043E+02  0.00000000000E+00 0. -1.
         11    1    3    3    0    0 -0.54915446558E+00 -0.18197853251E+01 -0.34174645760E+00  0.19313156549E+01  0.51100000000E-03 0. -1.
        -11    1    3    3    0    0 -0.20310612276E+02 -0.15654764505E+02  0.26958605264E+02  0.37206975432E+02  0.51100000000E-03 0.  1.
         12    1    3    3    0    0 -0.40316418931E+01 -0.26512806007E+01  0.50767083063E+01  0.70040268707E+01  0.00000000000E+00 0. -1.
</event>
<event>
 7    1  0.1503436E-008  0.4614232E+02  0.7816164E-02  0.1320468E+00
        -11   -1    0    0    0    0  0.00000000000E+00  0.00000000000E+00  0.45593999997E+02  0.45594000000E+02  0.51100000000E-03 0.  1.
         11   -1    0    0    0    0 -0.00000000000E+00 -0.00000000000E+00 -0.45593999997E+02  0.45594000000E+02  0.51100000000E-03 0. -1.
    9900012    2    1    2    0    0  0.33598030556E+02 -0.21956389798E+02  0.20450005759E+02  0.46142318234E+02  0.10000004316E+02 0.  0.
         12    1    1    2    0    0 -0.33598030556E+02  0.21956389798E+02 -0.20450005759E+02  0.45045681766E+02  0.00000000000E+00 0. -1.
         11    1    3    3    0    0  0.63639133992E+01 -0.48395740238E+01  0.19746378014E+01  0.82352938741E+01  0.51100000000E-03 0. -1.
        -11    1    3    3    0    0  0.11295097607E+02 -0.11152071732E+02  0.67972284017E+01  0.17267027772E+02  0.51100000000E-03 0.  1.
        -12    1    3    3    0    0  0.15939019549E+02 -0.59647440424E+01  0.11678139556E+02  0.20639996588E+02  0.00000000000E+00 0.  1.
</event>
<event>
 7    1  0.1503436E-008  0.4614232E+02  0.7816164E-02  0.1320468E+00
        -11   -1    0    0    0    0  0.00000000000E+00  0.00000000000E+00  0.45593999997E+02  0.45594000000E+02  0.51100000000E-03 0.  1.
         11   -1    0    0    0    0 -0.00000000000E+00 -0.00000000000E+00 -0.45593999997E+02  0.45594000000E+02  0.51100000000E-03 0. -1.
    9900012    2    1    2    0    0 -0.50402107471E+01  0.35932666234E+02  0.26693692927E+02  0.46142317975E+02  0.10000001947E+02 0.  0.
         12    1    1    2    0    0  0.50402107471E+01 -0.35932666234E+02 -0.26693692927E+02  0.45045682025E+02  0.00000000000E+00 0. -1.
         11    1    3    3    0    0  0.34481348816E+00  0.17408323921E+01  0.24598314925E+00  0.17916198620E+01  0.51100000000E-03 0. -1.
        -11    1    3    3    0    0 -0.65972780997E+01  0.23123638929E+02  0.21132791700E+02  0.32012835566E+02  0.51100000000E-03 0.  1.
        -12    1    3    3    0    0  0.12122538645E+01  0.11068194913E+02  0.53149180771E+01  0.12337862547E+02  0.00000000000E+00 0.  1.
</event>
<event>
 7    1  0.1503436E-008  0.4614232E+02  0.7816164E-02  0.1320468E+00
        -11   -1    0    0    0    0  0.00000000000E+00  0.00000000000E+00  0.45593999997E+02  0.45594000000E+02  0.51100000000E-03 0.  1.
         11   -1    0    0    0    0 -0.00000000000E+00 -0.00000000000E+00 -0.45593999997E+02  0.45594000000E+02  0.51100000000E-03 0. -1.
    9900012    2    1    2    0    0 -0.41797205475E+01 -0.38285138018E+02  0.23364324357E+02  0.46142317526E+02  0.99999978546E+01 0.  0.
         12    1    1    2    0    0  0.41797205475E+01  0.38285138018E+02 -0.23364324357E+02  0.45045682474E+02  0.00000000000E+00 0. -1.
         11    1    3    3    0    0 -0.81315407177E+00 -0.11096671057E+01  0.16251131903E+01  0.21292190522E+01  0.51100000000E-03 0. -1.
        -11    1    3    3    0    0  0.25706592643E+01 -0.94295694420E+01  0.40699700749E+01  0.10587243531E+02  0.51100000000E-03 0.  1.
        -12    1    3    3    0    0 -0.59372257400E+01 -0.27745901470E+02  0.17669241092E+02  0.33425854943E+02  0.00000000000E+00 0.  1.
</event>
<event>
 7    1  0.1503436E-008  0.4614232E+02  0.7816164E-02  0.1320468E+00
        -11   -1    0    0    0    0  0.00000000000E+00  0.00000000000E+00  0.45593999997E+02  0.45594000000E+02  0.51100000000E-03 0.  1.
         11   -1    0    0    0    0 -0.00000000000E+00 -0.00000000000E+00 -0.45593999997E+02  0.45594000000E+02  0.51100000000E-03 0. -1.
    9900012    2    1    2    0    0 -0.25681025314E+02  0.25767733665E+02  0.26563551993E+02  0.46142318144E+02  0.10000003491E+02 0.  0.
         12    1    1    2    0    0  0.25681025314E+02 -0.25767733665E+02 -0.26563551993E+02  0.45045681856E+02  0.00000000000E+00 0. -1.
         11    1    3    3    0    0 -0.47680747095E+01  0.25974918943E+01  0.74516944707E+01  0.92200461670E+01  0.51100000000E-03 0. -1.
        -11    1    3    3    0    0 -0.20869118135E+02  0.21683176419E+02  0.18391253166E+02  0.35269227729E+02  0.51100000000E-03 0.  1.
         12    1    3    3    0    0 -0.43832468982E-01  0.14870653516E+01  0.72060435652E+00  0.16530442474E+01  0.00000000000E+00 0. -1.
</event>
<event>
 7    1  0.1503436E-008  0.4614232E+02  0.7816164E-02  0.1320468E+00
        -11   -1    0    0    0    0  0.00000000000E+00  0.00000000000E+00  0.45593999997E+02  0.45594000000E+02  0.51100000000E-03 0. -1.
         11   -1    0    0    0    0 -0.00000000000E+00 -0.00000000000E+00 -0.45593999997E+02  0.45594000000E+02  0.51100000000E-03 0.  1.
    9900012    2    1    2    0    0 -0.42170766557E+02  0.12515226661E+02 -0.97009816121E+01  0.46142317692E+02  0.99999993683E+01 0.  0.
         12    1    1    2    0    0  0.42170766557E+02 -0.12515226661E+02  0.97009816121E+01  0.45045682308E+02  0.00000000000E+00 0. -1.
         11    1    3    3    0    0 -0.30219143721E+01  0.11007420158E+01 -0.34899550640E+01  0.47458809580E+01  0.51100000000E-03 0. -1.
        -11    1    3    3    0    0 -0.33450375556E+02  0.89762377706E+01 -0.62762443961E+01  0.35197893592E+02  0.51100000000E-03 0.  1.
        -12    1    3    3    0    0 -0.56984766289E+01  0.24382468748E+01  0.65217848006E-01  0.61985431418E+01  0.00000000000E+00 0.  1.
</event>
<event>
 7    1  0.1547371E-008  0.4614232E+02  0.7816164E-02  0.1320468E+00
        -11   -1    0    0    0    0  0.00000000000E+00  0.00000000000E+00  0.45593999997E+02  0.45594000000E+02  0.51100000000E-03 0. -1.
         11   -1    0    0    0    0 -0.00000000000E+00 -0.00000000000E+00 -0.45593999997E+02  0.45594000000E+02  0.51100000000E-03 0.  1.
    9900012    2    1    2    0    0  0.63853212015E+01  0.22748220746E+02 -0.38351788495E+02  0.46142317025E+02  0.99999932852E+01 0.  0.
         12    1    1    2    0    0 -0.63853212015E+01 -0.22748220746E+02  0.38351788495E+02  0.45045682975E+02  0.00000000000E+00 0. -1.
         11    1    3    3    0    0  0.31709638776E-01  0.26279875655E+00  0.34579901847E+00  0.43548353578E+00  0.51100000000E-03 0. -1.
        -11    1    3    3    0    0  0.48833068223E+01  0.21521461451E+02 -0.32648398698E+02  0.39407333408E+02  0.51100000000E-03 0.  1.
        -12    1    3    3    0    0  0.14703047405E+01  0.96396053839E+00 -0.60491888152E+01  0.62995000811E+01  0.00000000000E+00 0.  1.
</event>
<event>
 7    1  0.1503436E-008  0.4614232E+02  0.7816164E-02  0.1320468E+00
        -11   -1    0    0    0    0  0.00000000000E+00  0.00000000000E+00  0.45593999997E+02  0.45594000000E+02  0.51100000000E-03 0. -1.
         11   -1    0    0    0    0 -0.00000000000E+00 -0.00000000000E+00 -0.45593999997E+02  0.45594000000E+02  0.51100000000E-03 0.  1.
    9900012    2    1    2    0    0  0.38126885785E+02  0.13002808737E+02 -0.20158899706E+02  0.46142315500E+02  0.99999793841E+01 0.  0.
         12    1    1    2    0    0 -0.38126885785E+02 -0.13002808737E+02  0.20158899706E+02  0.45045684500E+02  0.00000000000E+00 0. -1.
         11    1    3    3    0    0  0.66702164321E+01  0.51136486268E+01 -0.38607113368E+01  0.92491232999E+01  0.51100000000E-03 0. -1.
        -11    1    3    3    0    0  0.18926810598E+02  0.75039297483E+01 -0.80859541018E+01  0.21906980054E+02  0.51100000000E-03 0.  1.
        -12    1    3    3    0    0  0.12529858755E+02  0.38523036195E+00 -0.82122342670E+01  0.14986212147E+02  0.00000000000E+00 0.  1.
</event>
<event>
 7    1  0.1503436E-008  0.4614232E+02  0.7816164E-02  0.1320468E+00
        -11   -1    0    0    0    0  0.00000000000E+00  0.00000000000E+00  0.45593999997E+02  0.45594000000E+02  0.51100000000E-03 0.  1.
         11   -1    0    0    0    0 -0.00000000000E+00 -0.00000000000E+00 -0.45593999997E+02  0.45594000000E+02  0.51100000000E-03 0. -1.
    9900012    2    1    2    0    0  0.37506060780E+02  0.22972234958E+02  0.97306244278E+01  0.46142320674E+02  0.10000026561E+02 0.  0.
         12    1    1    2    0    0 -0.37506060780E+02 -0.22972234958E+02 -0.97306244278E+01  0.45045679326E+02  0.00000000000E+00 0. -1.
         11    1    3    3    0    0  0.26458155453E+02  0.18204188314E+02  0.74846023799E+01  0.32976442124E+02  0.51100000000E-03 0.  1.
        -11    1    3    3    0    0  0.41624135945E+01  0.13687608717E+01  0.32030574065E+01  0.54275934139E+01  0.51100000000E-03 0. -1.
        -12    1    3    3    0    0  0.68854917327E+01  0.33992857723E+01 -0.95703535854E+00  0.77382851356E+01  0.00000000000E+00 0.  1.
</event>
<event>
 7    1  0.1503436E-008  0.4614232E+02  0.7816164E-02  0.1320468E+00
        -11   -1    0    0    0    0  0.00000000000E+00  0.00000000000E+00  0.45593999997E+02  0.45594000000E+02  0.51100000000E-03 0.  1.
         11   -1    0    0    0    0 -0.00000000000E+00 -0.00000000000E+00 -0.45593999997E+02  0.45594000000E+02  0.51100000000E-03 0. -1.
    9900012    2    1    2    0    0 -0.13667696876E+02 -0.42727100042E+02  0.40868611769E+01  0.46142318185E+02  0.10000003865E+02 0.  0.
         12    1    1    2    0    0  0.13667696876E+02  0.42727100042E+02 -0.40868611769E+01  0.45045681815E+02  0.00000000000E+00 0. -1.
         11    1    3    3    0    0 -0.28548301871E+01 -0.68243172799E+01  0.15670944933E+01  0.75615571906E+01  0.51100000000E-03 0. -1.
        -11    1    3    3    0    0 -0.51437006376E+01 -0.23634974769E+02  0.53509197077E+01  0.24773010123E+02  0.51100000000E-03 0.  1.
        -12    1    3    3    0    0 -0.56691660517E+01 -0.12267807993E+02 -0.28311530240E+01  0.13807750871E+02  0.00000000000E+00 0.  1.
</event>
<event>
 7    1  0.1503436E-008  0.4614232E+02  0.7816164E-02  0.1320468E+00
        -11   -1    0    0    0    0  0.00000000000E+00  0.00000000000E+00  0.45593999997E+02  0.45594000000E+02  0.51100000000E-03 0.  1.
         11   -1    0    0    0    0 -0.00000000000E+00 -0.00000000000E+00 -0.45593999997E+02  0.45594000000E+02  0.51100000000E-03 0. -1.
    9900012    2    1    2    0    0 -0.10319888973E+02 -0.91019640095E+01  0.42892511570E+02  0.46142318675E+02  0.10000008338E+02 0.  0.
         12    1    1    2    0    0  0.10319888973E+02  0.91019640095E+01 -0.42892511570E+02  0.45045681325E+02  0.00000000000E+00 0. -1.
         11    1    3    3    0    0 -0.11789705391E+01 -0.65877788219E+01  0.22761717700E+02  0.23725189025E+02  0.51100000000E-03 0. -1.
        -11    1    3    3    0    0 -0.48451514517E+01 -0.26951607019E+01  0.12025126441E+02  0.13241716278E+02  0.51100000000E-03 0.  1.
         12    1    3    3    0    0 -0.42957669824E+01  0.18097551426E+00  0.81056674283E+01  0.91754133728E+01  0.00000000000E+00 0. -1.
</event>
<event>
 7    1  0.1503436E-008  0.4614232E+02  0.7816164E-02  0.1320468E+00
        -11   -1    0    0    0    0  0.00000000000E+00  0.00000000000E+00  0.45593999997E+02  0.45594000000E+02  0.51100000000E-03 0. -1.
         11   -1    0    0    0    0 -0.00000000000E+00 -0.00000000000E+00 -0.45593999997E+02  0.45594000000E+02  0.51100000000E-03 0.  1.
    9900012    2    1    2    0    0  0.18881374940E+02 -0.12872744698E+02 -0.38818805147E+02  0.46142317535E+02  0.99999979417E+01 0.  0.
         12    1    1    2    0    0 -0.18881374940E+02  0.12872744698E+02  0.38818805147E+02  0.45045682465E+02  0.00000000000E+00 0. -1.
         11    1    3    3    0    0  0.17409409741E+01 -0.19593103957E+01 -0.41321603740E+01  0.48933140426E+01  0.51100000000E-03 0. -1.
        -11    1    3    3    0    0  0.81718322111E+01 -0.79465595241E+01 -0.26110759157E+02  0.28490321058E+02  0.51100000000E-03 0.  1.
        -12    1    3    3    0    0  0.89686017546E+01 -0.29668747781E+01 -0.85758856156E+01  0.12758682435E+02  0.00000000000E+00 0.  1.
</event>
<event>
 7    1  0.1503436E-008  0.4614233E+02  0.7816164E-02  0.1320468E+00
        -11   -1    0    0    0    0  0.00000000000E+00  0.00000000000E+00  0.45593999997E+02  0.45594000000E+02  0.51100000000E-03 0. -1.
         11   -1    0    0    0    0 -0.00000000000E+00 -0.00000000000E+00 -0.45593999997E+02  0.45594000000E+02  0.51100000000E-03 0.  1.
    9900012    2    1    2    0    0 -0.36084798635E+02 -0.15608785705E+02 -0.21985581335E+02  0.46142326841E+02  0.10000082799E+02 0.  0.
         12    1    1    2    0    0  0.36084798635E+02  0.15608785705E+02  0.21985581335E+02  0.45045673159E+02  0.00000000000E+00 0. -1.
         11    1    3    3    0    0 -0.28960429694E+01  0.10474532866E+01 -0.24852496329E+01  0.39573588752E+01  0.51100000000E-03 0. -1.
        -11    1    3    3    0    0 -0.19504444475E+02 -0.11961406906E+02 -0.13102766577E+02  0.26366287219E+02  0.51100000000E-03 0.  1.
         12    1    3    3    0    0 -0.13684311190E+02 -0.46948320859E+01 -0.63975651245E+01  0.15818680747E+02  0.00000000000E+00 0. -1.
</event>
<event>
 7    1  0.1503436E-008  0.4614232E+02  0.7816164E-02  0.1320468E+00
        -11   -1    0    0    0    0  0.00000000000E+00  0.00000000000E+00  0.45593999997E+02  0.45594000000E+02  0.51100000000E-03 0.  1.
         11   -1    0    0    0    0 -0.00000000000E+00 -0.00000000000E+00 -0.45593999997E+02  0.45594000000E+02  0.51100000000E-03 0. -1.
    9900012    2    1    2    0    0  0.28117936311E+02  0.24984292145E+02  0.24784678321E+02  0.46142317900E+02  0.10000001268E+02 0.  0.
         12    1    1    2    0    0 -0.28117936311E+02 -0.24984292145E+02 -0.24784678321E+02  0.45045682100E+02  0.00000000000E+00 0. -1.
         11    1    3    3    0    0  0.85760455517E+01  0.38988897199E+01  0.59485286153E+01  0.11141583878E+02  0.51100000000E-03 0.  1.
        -11    1    3    3    0    0  0.13016174511E+01  0.13563072451E+01  0.37286657039E+01  0.41757305379E+01  0.51100000000E-03 0. -1.
        -12    1    3    3    0    0  0.18240273309E+02  0.19729095180E+02  0.15107484001E+02  0.30825003485E+02  0.00000000000E+00 0.  1.
</event>
<event>
 7    1  0.1503436E-008  0.4614232E+02  0.7816164E-02  0.1320468E+00
        -11   -1    0    0    0    0  0.00000000000E+00  0.00000000000E+00  0.45593999997E+02  0.45594000000E+02  0.51100000000E-03 0. -1.
         11   -1    0    0    0    0 -0.00000000000E+00 -0.00000000000E+00 -0.45593999997E+02  0.45594000000E+02  0.51100000000E-03 0.  1.
    9900012    2    1    2    0    0  0.92470193938E+00 -0.19640303034E+02 -0.40527976793E+02  0.46142317855E+02  0.10000000857E+02 0.  0.
         12    1    1    2    0    0 -0.92470193938E+00  0.19640303034E+02  0.40527976793E+02  0.45045682145E+02  0.00000000000E+00 0. -1.
         11    1    3    3    0    0  0.25885108272E+01 -0.36285255217E+01 -0.68513857550E+01  0.81736205435E+01  0.51100000000E-03 0. -1.
        -11    1    3    3    0    0 -0.29802000365E+01 -0.14962433929E+02 -0.26320533459E+02  0.30422467079E+02  0.51100000000E-03 0.  1.
        -12    1    3    3    0    0  0.13163911487E+01 -0.10493435827E+01 -0.73560575795E+01  0.75462302326E+01  0.00000000000E+00 0.  1.
</event>
<event>
 7    1  0.1503436E-008  0.4614232E+02  0.7816164E-02  0.1320468E+00
        -11   -1    0    0    0    0  0.00000000000E+00  0.00000000000E+00  0.45593999997E+02  0.45594000000E+02  0.51100000000E-03 0.  1.
         11   -1    0    0    0    0 -0.00000000000E+00 -0.00000000000E+00 -0.45593999997E+02  0.45594000000E+02  0.51100000000E-03 0. -1.
    9900012    2    1    2    0    0  0.52690297275E+01  0.50506159121E+01  0.44450445498E+02  0.46142317628E+02  0.99999987846E+01 0.  0.
         12    1    1    2    0    0 -0.52690297275E+01 -0.50506159121E+01 -0.44450445498E+02  0.45045682372E+02  0.00000000000E+00 0. -1.
         11    1    3    3    0    0 -0.12622352803E+01 -0.13639525802E+01  0.17613821992E+02  0.17711587450E+02  0.51100000000E-03 0. -1.
        -11    1    3    3    0    0  0.60982940991E+01  0.55111674305E+01  0.25251153241E+02  0.26555280032E+02  0.51100000000E-03 0.  1.
         12    1    3    3    0    0  0.43297090865E+00  0.90340106178E+00  0.15854702657E+01  0.18754501458E+01  0.00000000000E+00 0. -1.
</event>
<event>
 7    1  0.1503436E-008  0.4614232E+02  0.7816164E-02  0.1320468E+00
        -11   -1    0    0    0    0  0.00000000000E+00  0.00000000000E+00  0.45593999997E+02  0.45594000000E+02  0.51100000000E-03 0. -1.
         11   -1    0    0    0    0 -0.00000000000E+00 -0.00000000000E+00 -0.45593999997E+02  0.45594000000E+02  0.51100000000E-03 0.  1.
    9900012    2    1    2    0    0 -0.10157842683E+02  0.20567412461E+02 -0.38767423249E+02  0.46142319534E+02  0.10000016165E+02 0.  0.
         12    1    1    2    0    0  0.10157842683E+02 -0.20567412461E+02  0.38767423249E+02  0.45045680466E+02  0.00000000000E+00 0. -1.
         11    1    3    3    0    0 -0.72878681951E+01  0.74421238757E+01 -0.11836557604E+02  0.15767128045E+02  0.51100000000E-03 0. -1.
        -11    1    3    3    0    0 -0.25327699148E+00  0.55424291629E+01 -0.73036552258E+01  0.91720254131E+01  0.51100000000E-03 0.  1.
        -12    1    3    3    0    0 -0.26166974963E+01  0.75828594222E+01 -0.19627210419E+02  0.21203166076E+02  0.00000000000E+00 0.  1.
</event>
<event>
 7    1  0.1503436E-008  0.4614232E+02  0.7816164E-02  0.1320468E+00
        -11   -1    0    0    0    0  0.00000000000E+00  0.00000000000E+00  0.45593999997E+02  0.45594000000E+02  0.51100000000E-03 0.  1.
         11   -1    0    0    0    0 -0.00000000000E+00 -0.00000000000E+00 -0.45593999997E+02  0.45594000000E+02  0.51100000000E-03 0. -1.
    9900012    2    1    2    0    0 -0.15472780432E+01 -0.15031050719E+02  0.42435680961E+02  0.46142316814E+02  0.99999913613E+01 0.  0.
         12    1    1    2    0    0  0.15472780432E+01  0.15031050719E+02 -0.42435680961E+02  0.45045683186E+02  0.00000000000E+00 0. -1.
         11    1    3    3    0    0 -0.16881253115E+01  0.14914536986E+00  0.83927048718E+01  0.85620970991E+01  0.51100000000E-03 0. -1.
        -11    1    3    3    0    0 -0.15620305834E+01 -0.92243519565E+01  0.16393632323E+02  0.18875375216E+02  0.51100000000E-03 0.  1.
        -12    1    3    3    0    0  0.17028778517E+01 -0.59558441322E+01  0.17649343767E+02  0.18704844499E+02  0.00000000000E+00 0.  1.
</event>
<event>
 7    1  0.1503436E-008  0.4614232E+02  0.7816164E-02  0.1320468E+00
        -11   -1    0    0    0    0  0.00000000000E+00  0.00000000000E+00  0.45593999997E+02  0.45594000000E+02  0.51100000000E-03 0.  1.
         11   -1    0    0    0    0 -0.00000000000E+00 -0.00000000000E+00 -0.45593999997E+02  0.45594000000E+02  0.51100000000E-03 0. -1.
    9900012    2    1    2    0    0  0.42337413979E+02  0.13110625957E+02  0.80478770416E+01  0.46142318073E+02  0.10000002846E+02 0.  0.
         12    1    1    2    0    0 -0.42337413979E+02 -0.13110625957E+02 -0.80478770416E+01  0.45045681927E+02  0.00000000000E+00 0. -1.
         11    1    3    3    0    0  0.24008761544E+02  0.11811490260E+02  0.45131589102E+01  0.27134858331E+02  0.51100000000E-03 0. -1.
        -11    1    3    3    0    0  0.10523126399E+01 -0.34718331972E+00  0.95365728618E+00  0.14619714875E+01  0.51100000000E-03 0.  1.
         12    1    3    3    0    0  0.17276339795E+02  0.16463190166E+01  0.25810608453E+01  0.17545488254E+02  0.00000000000E+00 0. -1.
</event>
<event>
 7    1  0.1503436E-008  0.4614232E+02  0.7816164E-02  0.1320468E+00
        -11   -1    0    0    0    0  0.00000000000E+00  0.00000000000E+00  0.45593999997E+02  0.45594000000E+02  0.51100000000E-03 0.  1.
         11   -1    0    0    0    0 -0.00000000000E+00 -0.00000000000E+00 -0.45593999997E+02  0.45594000000E+02  0.51100000000E-03 0. -1.
    9900012    2    1    2    0    0  0.24932978918E+02 -0.30476465862E+02  0.21877957878E+02  0.46142318186E+02  0.10000003874E+02 0.  0.
         12    1    1    2    0    0 -0.24932978918E+02  0.30476465862E+02 -0.21877957878E+02  0.45045681814E+02  0.00000000000E+00 0. -1.
         11    1    3    3    0    0  0.88286873884E+01 -0.79231150102E+01  0.95325408062E+01  0.15218107864E+02  0.51100000000E-03 0. -1.
        -11    1    3    3    0    0  0.13360317194E+02 -0.20143981328E+02  0.12609348695E+02  0.27263047043E+02  0.51100000000E-03 0.  1.
         12    1    3    3    0    0  0.27439743356E+01 -0.24093695238E+01 -0.26393162344E+00  0.36611632795E+01  0.00000000000E+00 0. -1.
</event>
<event>
 7    1  0.1503436E-008  0.4614232E+02  0.7816164E-02  0.1320468E+00
        -11   -1    0    0    0    0  0.00000000000E+00  0.00000000000E+00  0.45593999997E+02  0.45594000000E+02  0.51100000000E-03 0.  1.
         11   -1    0    0    0    0 -0.00000000000E+00 -0.00000000000E+00 -0.45593999997E+02  0.45594000000E+02  0.51100000000E-03 0. -1.
    9900012    2    1    2    0    0  0.97063757477E+00 -0.37589544368E+02  0.24803175516E+02  0.46142317646E+02  0.99999989466E+01 0.  0.
         12    1    1    2    0    0 -0.97063757477E+00  0.37589544368E+02 -0.24803175516E+02  0.45045682354E+02  0.00000000000E+00 0. -1.
         11    1    3    3    0    0 -0.38329774294E+01 -0.95865404357E+01  0.64401178387E+01  0.12168343829E+02  0.51100000000E-03 0. -1.
        -11    1    3    3    0    0  0.20164008632E+00 -0.69057169503E+01  0.55790829394E+01  0.88800761274E+01  0.51100000000E-03 0.  1.
         12    1    3    3    0    0  0.46019749178E+01 -0.21097286982E+02  0.12783974738E+02  0.25093897689E+02  0.00000000000E+00 0. -1.
</event>
<event>
 7    1  0.1503436E-008  0.4614232E+02  0.7816164E-02  0.1320468E+00
        -11   -1    0    0    0    0  0.00000000000E+00  0.00000000000E+00  0.45593999997E+02  0.45594000000E+02  0.51100000000E-03 0. -1.
         11   -1    0    0    0    0 -0.00000000000E+00 -0.00000000000E+00 -0.45593999997E+02  0.45594000000E+02  0.51100000000E-03 0.  1.
    9900012    2    1    2    0    0  0.18252766138E+02 -0.19179248257E+02 -0.36443198012E+02  0.46142315226E+02  0.99999768826E+01 0.  0.
         12    1    1    2    0    0 -0.18252766138E+02  0.19179248257E+02  0.36443198012E+02  0.45045684774E+02  0.00000000000E+00 0. -1.
         11    1    3    3    0    0 -0.65997231122E+00 -0.14244551453E+01 -0.91246779902E+00  0.18158286422E+01  0.51100000000E-03 0. -1.
        -11    1    3    3    0    0  0.63060951377E+01 -0.44250041046E+01 -0.14486395441E+02  0.16407411446E+02  0.51100000000E-03 0.  1.
         12    1    3    3    0    0  0.12606643311E+02 -0.13329789007E+02 -0.21044334772E+02  0.27919075138E+02  0.00000000000E+00 0. -1.
</event>
<event>
 7    1  0.1503436E-008  0.4614232E+02  0.7816164E-02  0.1320468E+00
        -11   -1    0    0    0    0  0.00000000000E+00  0.00000000000E+00  0.45593999997E+02  0.45594000000E+02  0.51100000000E-03 0.  1.
         11   -1    0    0    0    0 -0.00000000000E+00 -0.00000000000E+00 -0.45593999997E+02  0.45594000000E+02  0.51100000000E-03 0. -1.
    9900012    2    1    2    0    0 -0.18585147571E+02 -0.26048682982E+02  0.31704446111E+02  0.46142317648E+02  0.99999989702E+01 0.  0.
         12    1    1    2    0    0  0.18585147571E+02  0.26048682982E+02 -0.31704446111E+02  0.45045682352E+02  0.00000000000E+00 0. -1.
         11    1    3    3    0    0 -0.12066926182E+00 -0.14629094033E+01  0.52885017471E+01  0.54884347480E+01  0.51100000000E-03 0. -1.
        -11    1    3    3    0    0 -0.10159473386E+02 -0.16024493150E+02  0.16081423411E+02  0.24871901000E+02  0.51100000000E-03 0.  1.
         12    1    3    3    0    0 -0.83050049234E+01 -0.85612804288E+01  0.10334520953E+02  0.15781981900E+02  0.00000000000E+00 0. -1.
</event>
<event>
 7    1  0.1503436E-008  0.4614232E+02  0.7816164E-02  0.1320468E+00
        -11   -1    0    0    0    0  0.00000000000E+00  0.00000000000E+00  0.45593999997E+02  0.45594000000E+02  0.51100000000E-03 0.  1.
         11   -1    0    0    0    0 -0.00000000000E+00 -0.00000000000E+00 -0.45593999997E+02  0.45594000000E+02  0.51100000000E-03 0. -1.
    9900012    2    1    2    0    0  0.40827606899E+02 -0.14399840124E+01  0.18977527038E+02  0.46142316838E+02  0.99999915849E+01 0.  0.
         12    1    1    2    0    0 -0.40827606899E+02  0.14399840124E+01 -0.18977527038E+02  0.45045683162E+02  0.00000000000E+00 0. -1.
         11    1    3    3    0    0  0.75498461243E+01 -0.36866361420E+00  0.81557543091E+01  0.11119910880E+02  0.51100000000E-03 0. -1.
        -11    1    3    3    0    0  0.23696127622E+02 -0.62213450104E+00  0.72753757331E+01  0.24795657038E+02  0.51100000000E-03 0.  1.
         12    1    3    3    0    0  0.95816331526E+01 -0.44918589721E+00  0.35463969954E+01  0.10226748921E+02  0.00000000000E+00 0. -1.
</event>
<event>
 7    1  0.1503436E-008  0.4614232E+02  0.7816164E-02  0.1320468E+00
        -11   -1    0    0    0    0  0.00000000000E+00  0.00000000000E+00  0.45593999997E+02  0.45594000000E+02  0.51100000000E-03 0.  1.
         11   -1    0    0    0    0 -0.00000000000E+00 -0.00000000000E+00 -0.45593999997E+02  0.45594000000E+02  0.51100000000E-03 0. -1.
    9900012    2    1    2    0    0  0.28035327865E+02  0.11591977170E+02  0.33298047504E+02  0.46142317512E+02  0.99999977303E+01 0.  0.
         12    1    1    2    0    0 -0.28035327865E+02 -0.11591977170E+02 -0.33298047504E+02  0.45045682488E+02  0.00000000000E+00 0. -1.
         11    1    3    3    0    0  0.36397809051E+00  0.20492230329E+01  0.27278349886E+01  0.34311629333E+01  0.51100000000E-03 0. -1.
        -11    1    3    3    0    0  0.16016847283E+02  0.73127272183E+01  0.21414551794E+02  0.27723607360E+02  0.51100000000E-03 0.  1.
        -12    1    3    3    0    0  0.11654502492E+02  0.22300269185E+01  0.91556607212E+01  0.14987547219E+02  0.00000000000E+00 0.  1.
</event>
<event>
 7    1  0.1503436E-008  0.4614232E+02  0.7816164E-02  0.1320468E+00
        -11   -1    0    0    0    0  0.00000000000E+00  0.00000000000E+00  0.45593999997E+02  0.45594000000E+02  0.51100000000E-03 0. -1.
         11   -1    0    0    0    0 -0.00000000000E+00 -0.00000000000E+00 -0.45593999997E+02  0.45594000000E+02  0.51100000000E-03 0.  1.
    9900012    2    1    2    0    0 -0.28143302799E+02  0.27944525972E+02 -0.21358170428E+02  0.46142317984E+02  0.10000002034E+02 0.  0.
         12    1    1    2    0    0  0.28143302799E+02 -0.27944525972E+02  0.21358170428E+02  0.45045682016E+02  0.00000000000E+00 0. -1.
         11    1    3    3    0    0 -0.52825296582E+01  0.16588617776E+01 -0.41022766578E+01  0.68909807738E+01  0.51100000000E-03 0. -1.
        -11    1    3    3    0    0 -0.16973056008E+02  0.18360434613E+02 -0.97021144018E+01  0.26820164309E+02  0.51100000000E-03 0.  1.
         12    1    3    3    0    0 -0.58877171323E+01  0.79252295816E+01 -0.75537793686E+01  0.12431172901E+02  0.00000000000E+00 0. -1.
</event>
<event>
 7    1  0.1503436E-008  0.4614232E+02  0.7816164E-02  0.1320468E+00
        -11   -1    0    0    0    0  0.00000000000E+00  0.00000000000E+00  0.45593999997E+02  0.45594000000E+02  0.51100000000E-03 0. -1.
         11   -1    0    0    0    0 -0.00000000000E+00 -0.00000000000E+00 -0.45593999997E+02  0.45594000000E+02  0.51100000000E-03 0.  1.
    9900012    2    1    2    0    0 -0.67005919129E+01 -0.39141456516E+02  0.21264097217E+02  0.46142318957E+02  0.10000010903E+02 0.  0.
         12    1    1    2    0    0  0.67005919129E+01  0.39141456516E+02 -0.21264097217E+02  0.45045681043E+02  0.00000000000E+00 0. -1.
         11    1    3    3    0    0 -0.24308901615E+01 -0.79062129382E+01  0.83513923706E+00  0.83135364201E+01  0.51100000000E-03 0. -1.
        -11    1    3    3    0    0  0.36212398939E+00 -0.56756196426E+01  0.22141712432E+01  0.61029785078E+01  0.51100000000E-03 0.  1.
         12    1    3    3    0    0 -0.46318257408E+01 -0.25559623935E+02  0.18214786737E+02  0.31725804029E+02  0.00000000000E+00 0. -1.
</event>
<event>
 7    1  0.1503436E-008  0.4614232E+02  0.7816164E-02  0.1320468E+00
        -11   -1    0    0    0    0  0.00000000000E+00  0.00000000000E+00  0.45593999997E+02  0.45594000000E+02  0.51100000000E-03 0.  1.
         11   -1    0    0    0    0 -0.00000000000E+00 -0.00000000000E+00 -0.45593999997E+02  0.45594000000E+02  0.51100000000E-03 0. -1.
    9900012    2    1    2    0    0  0.33173315696E+02  0.27676498032E+02  0.12753664876E+02  0.46142318904E+02  0.10000010425E+02 0.  0.
         12    1    1    2    0    0 -0.33173315696E+02 -0.27676498032E+02 -0.12753664876E+02  0.45045681096E+02  0.00000000000E+00 0. -1.
         11    1    3    3    0    0  0.17291998394E+02  0.17176172055E+02  0.50020407521E+01  0.24880805993E+02  0.51100000000E-03 0. -1.
        -11    1    3    3    0    0  0.51202058950E+01  0.82065403853E+00  0.96161983671E+00  0.52739638252E+01  0.51100000000E-03 0.  1.
        -12    1    3    3    0    0  0.10761111407E+02  0.96796719384E+01  0.67900042876E+01  0.15987549086E+02  0.00000000000E+00 0.  1.
</event>
<event>
 7    1  0.1503436E-008  0.4614232E+02  0.7816164E-02  0.1320468E+00
        -11   -1    0    0    0    0  0.00000000000E+00  0.00000000000E+00  0.45593999997E+02  0.45594000000E+02  0.51100000000E-03 0.  1.
         11   -1    0    0    0    0 -0.00000000000E+00 -0.00000000000E+00 -0.45593999997E+02  0.45594000000E+02  0.51100000000E-03 0. -1.
    9900012    2    1    2    0    0 -0.40855128446E+01  0.62590501181E+01  0.44421237500E+02  0.46142318024E+02  0.10000002401E+02 0.  0.
         12    1    1    2    0    0  0.40855128446E+01 -0.62590501181E+01 -0.44421237500E+02  0.45045681976E+02  0.00000000000E+00 0. -1.
         11    1    3    3    0    0 -0.39802346632E-01  0.47779554337E+00  0.52118457510E+01  0.52338522334E+01  0.51100000000E-03 0. -1.
        -11    1    3    3    0    0  0.30119654166E+00 -0.19473963751E+01  0.27303331316E+01  0.33671636832E+01  0.51100000000E-03 0.  1.
        -12    1    3    3    0    0 -0.43469070396E+01  0.77286509499E+01  0.36479058618E+02  0.37541302108E+02  0.00000000000E+00 0.  1.
</event>
<event>
 7    1  0.1503436E-008  0.4614232E+02  0.7816164E-02  0.1320468E+00
        -11   -1    0    0    0    0  0.00000000000E+00  0.00000000000E+00  0.45593999997E+02  0.45594000000E+02  0.51100000000E-03 0. -1.
         11   -1    0    0    0    0 -0.00000000000E+00 -0.00000000000E+00 -0.45593999997E+02  0.45594000000E+02  0.51100000000E-03 0.  1.
    9900012    2    1    2    0    0 -0.38715657671E+02 -0.17943858140E+02 -0.14430151519E+02  0.46142318002E+02  0.10000002195E+02 0.  0.
         12    1    1    2    0    0  0.38715657671E+02  0.17943858140E+02  0.14430151519E+02  0.45045681998E+02  0.00000000000E+00 0. -1.
         11    1    3    3    0    0 -0.19717874344E+02 -0.11056297826E+02 -0.97682966240E+01  0.24626325537E+02  0.51100000000E-03 0. -1.
        -11    1    3    3    0    0 -0.15825740136E+02 -0.73625658709E+01 -0.24635635984E+01  0.17627551530E+02  0.51100000000E-03 0.  1.
         12    1    3    3    0    0 -0.31720431908E+01  0.47500555724E+00 -0.21982912964E+01  0.38884409354E+01  0.00000000000E+00 0. -1.
</event>
<event>
 7    1  0.1503436E-008  0.4614232E+02  0.7816164E-02  0.1320468E+00
        -11   -1    0    0    0    0  0.00000000000E+00  0.00000000000E+00  0.45593999997E+02  0.45594000000E+02  0.51100000000E-03 0.  1.
         11   -1    0    0    0    0 -0.00000000000E+00 -0.00000000000E+00 -0.45593999997E+02  0.45594000000E+02  0.51100000000E-03 0. -1.
    9900012    2    1    2    0    0 -0.21790656293E+02 -0.39219972363E+02 -0.40093082284E+01  0.46142317784E+02  0.10000000211E+02 0.  0.
         12    1    1    2    0    0  0.21790656293E+02  0.39219972363E+02  0.40093082284E+01  0.45045682216E+02  0.00000000000E+00 0. -1.
         11    1    3    3    0    0 -0.45196249235E+01 -0.10830206464E+02  0.26983855278E+01  0.12041663765E+02  0.51100000000E-03 0. -1.
        -11    1    3    3    0    0 -0.80295817628E+01 -0.13743668296E+02 -0.50704478660E+01  0.16705449510E+02  0.51100000000E-03 0.  1.
         12    1    3    3    0    0 -0.92414496069E+01 -0.14646097602E+02 -0.16372458902E+01  0.17395204509E+02  0.00000000000E+00 0. -1.
</event>
<event>
 7    1  0.1503436E-008  0.4614231E+02  0.7816164E-02  0.1320468E+00
        -11   -1    0    0    0    0  0.00000000000E+00  0.00000000000E+00  0.45593999997E+02  0.45594000000E+02  0.51100000000E-03 0.  1.
         11   -1    0    0    0    0 -0.00000000000E+00 -0.00000000000E+00 -0.45593999997E+02  0.45594000000E+02  0.51100000000E-03 0. -1.
    9900012    2    1    2    0    0 -0.26660210568E+02 -0.15644988208E+02  0.32765550111E+02  0.46142314772E+02  0.99999727455E+01 0.  0.
         12    1    1    2    0    0  0.26660210568E+02  0.15644988208E+02 -0.32765550111E+02  0.45045685228E+02  0.00000000000E+00 0. -1.
         11    1    3    3    0    0 -0.66244346368E+01 -0.45643136103E+01  0.10492250683E+02  0.13221324353E+02  0.51100000000E-03 0. -1.
        -11    1    3    3    0    0 -0.58550722934E+01 -0.45147859401E+01  0.26919652612E+01  0.78684077725E+01  0.51100000000E-03 0.  1.
        -12    1    3    3    0    0 -0.14180703638E+02 -0.65658886580E+01  0.19581334166E+02  0.25052582647E+02  0.00000000000E+00 0.  1.
</event>
<event>
 7    1  0.1503436E-008  0.4614232E+02  0.7816164E-02  0.1320468E+00
        -11   -1    0    0    0    0  0.00000000000E+00  0.00000000000E+00  0.45593999997E+02  0.45594000000E+02  0.51100000000E-03 0. -1.
         11   -1    0    0    0    0 -0.00000000000E+00 -0.00000000000E+00 -0.45593999997E+02  0.45594000000E+02  0.51100000000E-03 0.  1.
    9900012    2    1    2    0    0  0.37370838301E+02  0.22905550011E+02  0.10386033483E+02  0.46142317985E+02  0.10000002046E+02 0.  0.
         12    1    1    2    0    0 -0.37370838301E+02 -0.22905550011E+02 -0.10386033483E+02  0.45045682015E+02  0.00000000000E+00 0. -1.
         11    1    3    3    0    0  0.62363625990E+01  0.23823039864E+01 -0.13769052357E+01  0.68164110087E+01  0.51100000000E-03 0. -1.
        -11    1    3    3    0    0  0.13673152494E+02  0.11038479856E+02  0.68157527048E+01  0.18848279016E+02  0.51100000000E-03 0.  1.
        -12    1    3    3    0    0  0.17461323208E+02  0.94847661683E+01  0.49471860143E+01  0.20477627961E+02  0.00000000000E+00 0.  1.
</event>
<event>
 7    1  0.1503436E-008  0.4614232E+02  0.7816164E-02  0.1320468E+00
        -11   -1    0    0    0    0  0.00000000000E+00  0.00000000000E+00  0.45593999997E+02  0.45594000000E+02  0.51100000000E-03 0.  1.
         11   -1    0    0    0    0 -0.00000000000E+00 -0.00000000000E+00 -0.45593999997E+02  0.45594000000E+02  0.51100000000E-03 0. -1.
    9900012    2    1    2    0    0 -0.57199208089E+01  0.11533137045E+02  0.43166916269E+02  0.46142318694E+02  0.10000008507E+02 0.  0.
         12    1    1    2    0    0  0.57199208089E+01 -0.11533137045E+02 -0.43166916269E+02  0.45045681306E+02  0.00000000000E+00 0. -1.
         11    1    3    3    0    0 -0.85090404252E+00  0.76280759983E+01  0.18565538315E+02  0.20089569291E+02  0.51100000000E-03 0. -1.
        -11    1    3    3    0    0 -0.50898940557E+01  0.51898148065E+01  0.21030376802E+02  0.22251245985E+02  0.51100000000E-03 0.  1.
         12    1    3    3    0    0  0.22087728934E+00 -0.12847537600E+01  0.35710011526E+01  0.38015034175E+01  0.00000000000E+00 0. -1.
</event>
<event>
 7    1  0.1503436E-008  0.4614232E+02  0.7816164E-02  0.1320468E+00
        -11   -1    0    0    0    0  0.00000000000E+00  0.00000000000E+00  0.45593999997E+02  0.45594000000E+02  0.51100000000E-03 0.  1.
         11   -1    0    0    0    0 -0.00000000000E+00 -0.00000000000E+00 -0.45593999997E+02  0.45594000000E+02  0.51100000000E-03 0. -1.
    9900012    2    1    2    0    0 -0.17543812401E+02 -0.20674125382E+02  0.35970942469E+02  0.46142317455E+02  0.99999972086E+01 0.  0.
         12    1    1    2    0    0  0.17543812401E+02  0.20674125382E+02 -0.35970942469E+02  0.45045682545E+02  0.00000000000E+00 0. -1.
         11    1    3    3    0    0 -0.54965936145E+01 -0.60421970571E+01  0.47971877945E+01  0.94727872159E+01  0.51100000000E-03 0. -1.
        -11    1    3    3    0    0 -0.61097621441E+01 -0.82158455974E+01  0.13414961360E+02  0.16875737047E+02  0.51100000000E-03 0.  1.
         12    1    3    3    0    0 -0.59374566422E+01 -0.64160827272E+01  0.17758793315E+02  0.19793793192E+02  0.00000000000E+00 0. -1.
</event>
<event>
 7    1  0.1503436E-008  0.4614232E+02  0.7816164E-02  0.1320468E+00
        -11   -1    0    0    0    0  0.00000000000E+00  0.00000000000E+00  0.45593999997E+02  0.45594000000E+02  0.51100000000E-03 0.  1.
         11   -1    0    0    0    0 -0.00000000000E+00 -0.00000000000E+00 -0.45593999997E+02  0.45594000000E+02  0.51100000000E-03 0. -1.
    9900012    2    1    2    0    0  0.38717362517E+02 -0.22826868883E+02  0.30022588837E+01  0.46142315837E+02  0.99999824585E+01 0.  0.
         12    1    1    2    0    0 -0.38717362517E+02  0.22826868883E+02 -0.30022588837E+01  0.45045684163E+02  0.00000000000E+00 0. -1.
         11    1    3    3    0    0  0.91823682167E+01 -0.17711629828E+01  0.71940556996E+00  0.93792563146E+01  0.51100000000E-03 0. -1.
        -11    1    3    3    0    0  0.29267966701E+02 -0.20811996996E+02  0.15507958348E+01  0.35946600142E+02  0.51100000000E-03 0.  1.
        -12    1    3    3    0    0  0.26702759963E+00 -0.24370890407E+00  0.73205747901E+00  0.81645938139E+00  0.00000000000E+00 0.  1.
</event>
<event>
 7    1  0.1503436E-008  0.4614231E+02  0.7816164E-02  0.1320468E+00
        -11   -1    0    0    0    0  0.00000000000E+00  0.00000000000E+00  0.45593999997E+02  0.45594000000E+02  0.51100000000E-03 0. -1.
         11   -1    0    0    0    0 -0.00000000000E+00 -0.00000000000E+00 -0.45593999997E+02  0.45594000000E+02  0.51100000000E-03 0.  1.
    9900012    2    1    2    0    0 -0.18125927271E+01 -0.35024892921E+02 -0.28268094149E+02  0.46142314709E+02  0.99999721639E+01 0.  0.
         12    1    1    2    0    0  0.18125927271E+01  0.35024892921E+02  0.28268094149E+02  0.45045685291E+02  0.00000000000E+00 0. -1.
         11    1    3    3    0    0  0.18832339494E+01 -0.79637750649E+01 -0.59291185800E+01  0.10105579191E+02  0.51100000000E-03 0. -1.
        -11    1    3    3    0    0 -0.46276669029E+01 -0.17368938095E+02 -0.10927620547E+02  0.21035878936E+02  0.51100000000E-03 0.  1.
         12    1    3    3    0    0  0.93184022636E+00 -0.96921797610E+01 -0.11411355023E+02  0.15000856582E+02  0.00000000000E+00 0. -1.
</event>
<event>
 7    1  0.1503436E-008  0.4614232E+02  0.7816164E-02  0.1320468E+00
        -11   -1    0    0    0    0  0.00000000000E+00  0.00000000000E+00  0.45593999997E+02  0.45594000000E+02  0.51100000000E-03 0.  1.
         11   -1    0    0    0    0 -0.00000000000E+00 -0.00000000000E+00 -0.45593999997E+02  0.45594000000E+02  0.51100000000E-03 0. -1.
    9900012    2    1    2    0    0 -0.11490869665E+02  0.96297869234E+00  0.43544759726E+02  0.46142317486E+02  0.99999974884E+01 0.  0.
         12    1    1    2    0    0  0.11490869665E+02 -0.96297869234E+00 -0.43544759726E+02  0.45045682514E+02  0.00000000000E+00 0. -1.
         11    1    3    3    0    0  0.15151221486E+01  0.38065228122E+00  0.40985441885E+01  0.43861778362E+01  0.51100000000E-03 0. -1.
        -11    1    3    3    0    0 -0.10316891204E+02  0.16833852860E+01  0.34163652105E+02  0.35727120729E+02  0.51100000000E-03 0.  1.
         12    1    3    3    0    0 -0.26891006100E+01 -0.11010588749E+01  0.52825634320E+01  0.60290189210E+01  0.00000000000E+00 0. -1.
</event>
<event>
 7    1  0.1503436E-008  0.4614232E+02  0.7816164E-02  0.1320468E+00
        -11   -1    0    0    0    0  0.00000000000E+00  0.00000000000E+00  0.45593999997E+02  0.45594000000E+02  0.51100000000E-03 0. -1.
         11   -1    0    0    0    0 -0.00000000000E+00 -0.00000000000E+00 -0.45593999997E+02  0.45594000000E+02  0.51100000000E-03 0.  1.
    9900012    2    1    2    0    0 -0.21911622157E+02  0.23647767935E+00 -0.39356554657E+02  0.46142317612E+02  0.99999986448E+01 0.  0.
         12    1    1    2    0    0  0.21911622157E+02 -0.23647767935E+00  0.39356554657E+02  0.45045682388E+02  0.00000000000E+00 0. -1.
         11    1    3    3    0    0 -0.16246310758E+02 -0.31109016530E+01 -0.27625190385E+02  0.32198935796E+02  0.51100000000E-03 0. -1.
        -11    1    3    3    0    0 -0.48740822758E+01  0.41554744886E+01 -0.99440335451E+01  0.11828290226E+02  0.51100000000E-03 0.  1.
         12    1    3    3    0    0 -0.79122912311E+00 -0.80809515631E+00 -0.17873307276E+01  0.21150915906E+01  0.00000000000E+00 0. -1.
</event>
<event>
 7    1  0.1503436E-008  0.4614232E+02  0.7816164E-02  0.1320468E+00
        -11   -1    0    0    0    0  0.00000000000E+00  0.00000000000E+00  0.45593999997E+02  0.45594000000E+02  0.51100000000E-03 0.  1.
         11   -1    0    0    0    0 -0.00000000000E+00 -0.00000000000E+00 -0.45593999997E+02  0.45594000000E+02  0.51100000000E-03 0. -1.
    9900012    2    1    2    0    0 -0.13214277071E+02 -0.81369573264E+01  0.42288134255E+02  0.46142317723E+02  0.99999996486E+01 0.  0.
         12    1    1    2    0    0  0.13214277071E+02  0.81369573264E+01 -0.42288134255E+02  0.45045682277E+02  0.00000000000E+00 0. -1.
         11    1    3    3    0    0 -0.59332866620E+01 -0.73717602002E+01  0.20516002991E+02  0.22593209556E+02  0.51100000000E-03 0. -1.
        -11    1    3    3    0    0 -0.66467074235E+01 -0.22772458862E+01  0.19643204748E+02  0.20861928516E+02  0.51100000000E-03 0.  1.
         12    1    3    3    0    0 -0.63428298540E+00  0.15120487600E+01  0.21289265167E+01  0.26871796501E+01  0.00000000000E+00 0. -1.
</event>
<event>
 7    1  0.1503436E-008  0.4614232E+02  0.7816164E-02  0.1320468E+00
        -11   -1    0    0    0    0  0.00000000000E+00  0.00000000000E+00  0.45593999997E+02  0.45594000000E+02  0.51100000000E-03 0.  1.
         11   -1    0    0    0    0 -0.00000000000E+00 -0.00000000000E+00 -0.45593999997E+02  0.45594000000E+02  0.51100000000E-03 0. -1.
    9900012    2    1    2    0    0 -0.21014414629E+02 -0.29607681084E+02  0.26662576826E+02  0.46142318694E+02  0.10000008506E+02 0.  0.
         12    1    1    2    0    0  0.21014414629E+02  0.29607681084E+02 -0.26662576826E+02  0.45045681306E+02  0.00000000000E+00 0. -1.
         11    1    3    3    0    0 -0.71399840243E+01 -0.32935826649E+01  0.48664136773E+01  0.92471098717E+01  0.51100000000E-03 0. -1.
        -11    1    3    3    0    0 -0.81398738752E+01 -0.14552543544E+02  0.12671946503E+02  0.20943072810E+02  0.51100000000E-03 0.  1.
        -12    1    3    3    0    0 -0.57345567292E+01 -0.11761554875E+02  0.91242166452E+01  0.15952136012E+02  0.00000000000E+00 0.  1.
</event>
<event>
 7    1  0.1503436E-008  0.4614232E+02  0.7816164E-02  0.1320468E+00
        -11   -1    0    0    0    0  0.00000000000E+00  0.00000000000E+00  0.45593999997E+02  0.45594000000E+02  0.51100000000E-03 0.  1.
         11   -1    0    0    0    0 -0.00000000000E+00 -0.00000000000E+00 -0.45593999997E+02  0.45594000000E+02  0.51100000000E-03 0. -1.
    9900012    2    1    2    0    0  0.38727592386E+01  0.20758117093E+02  0.39789644254E+02  0.46142317863E+02  0.10000000929E+02 0.  0.
         12    1    1    2    0    0 -0.38727592386E+01 -0.20758117093E+02 -0.39789644254E+02  0.45045682137E+02  0.00000000000E+00 0. -1.
         11    1    3    3    0    0 -0.52817113411E+00  0.47679159887E+01  0.18559845649E+02  0.19169764171E+02  0.51100000000E-03 0. -1.
        -11    1    3    3    0    0  0.24478602444E+01  0.75283707859E+01  0.92268456651E+01  0.12157428497E+02  0.51100000000E-03 0.  1.
         12    1    3    3    0    0  0.19530701283E+01  0.84618303185E+01  0.12002952940E+02  0.14815125195E+02  0.00000000000E+00 0. -1.
</event>
<event>
 7    1  0.1503436E-008  0.4614231E+02  0.7816164E-02  0.1320468E+00
        -11   -1    0    0    0    0  0.00000000000E+00  0.00000000000E+00  0.45593999997E+02  0.45594000000E+02  0.51100000000E-03 0.  1.
         11   -1    0    0    0    0 -0.00000000000E+00 -0.00000000000E+00 -0.45593999997E+02  0.45594000000E+02  0.51100000000E-03 0. -1.
    9900012    2    1    2    0    0 -0.13757465901E+02  0.47412332673E+01  0.42630582878E+02  0.46142314774E+02  0.99999727628E+01 0.  0.
         12    1    1    2    0    0  0.13757465901E+02 -0.47412332673E+01 -0.42630582878E+02  0.45045685226E+02  0.00000000000E+00 0. -1.
         11    1    3    3    0    0 -0.34228998289E+01  0.34613734655E+01  0.11493603667E+02  0.12481998038E+02  0.51100000000E-03 0. -1.
        -11    1    3    3    0    0 -0.21318312673E+01 -0.26667250394E+01  0.57072536487E+01  0.66504790399E+01  0.51100000000E-03 0.  1.
        -12    1    3    3    0    0 -0.82027348045E+01  0.39465848412E+01  0.25429725562E+02  0.27009837696E+02  0.00000000000E+00 0.  1.
</event>
<event>
 7    1  0.1503436E-008  0.4614232E+02  0.7816164E-02  0.1320468E+00
        -11   -1    0    0    0    0  0.00000000000E+00  0.00000000000E+00  0.45593999997E+02  0.45594000000E+02  0.51100000000E-03 0.  1.
         11   -1    0    0    0    0 -0.00000000000E+00 -0.00000000000E+00 -0.45593999997E+02  0.45594000000E+02  0.51100000000E-03 0. -1.
    9900012    2    1    2    0    0  0.44398795326E+02  0.66676335604E+01 -0.36610410173E+01  0.46142316689E+02  0.99999902209E+01 0.  0.
         12    1    1    2    0    0 -0.44398795326E+02 -0.66676335604E+01  0.36610410173E+01  0.45045683311E+02  0.00000000000E+00 0. -1.
         11    1    3    3    0    0  0.58841908015E+01  0.13402098462E+01  0.17077977315E+01  0.62718766867E+01  0.51100000000E-03 0. -1.
        -11    1    3    3    0    0  0.48372880451E+01  0.28428673061E+01 -0.19005224171E+01  0.59239544115E+01  0.51100000000E-03 0.  1.
        -12    1    3    3    0    0  0.33677316479E+02  0.24845564081E+01 -0.34683163317E+01  0.33946485591E+02  0.00000000000E+00 0.  1.
</event>
<event>
 7    1  0.1503436E-008  0.4614231E+02  0.7816164E-02  0.1320468E+00
        -11   -1    0    0    0    0  0.00000000000E+00  0.00000000000E+00  0.45593999997E+02  0.45594000000E+02  0.51100000000E-03 0.  1.
         11   -1    0    0    0    0 -0.00000000000E+00 -0.00000000000E+00 -0.45593999997E+02  0.45594000000E+02  0.51100000000E-03 0. -1.
    9900012    2    1    2    0    0 -0.11812872096E+02  0.25136634036E+02  0.35464342009E+02  0.46142313503E+02  0.99999611689E+01 0.  0.
         12    1    1    2    0    0  0.11812872096E+02 -0.25136634036E+02 -0.35464342009E+02  0.45045686497E+02  0.00000000000E+00 0. -1.
         11    1    3    3    0    0 -0.73279175489E+00  0.24281626613E+01  0.61340280889E+00  0.26094483963E+01  0.51100000000E-03 0. -1.
        -11    1    3    3    0    0 -0.90728840988E+01  0.21847131984E+02  0.29937682687E+02  0.38155985726E+02  0.51100000000E-03 0.  1.
         12    1    3    3    0    0 -0.20071962427E+01  0.86133939107E+00  0.49132565139E+01  0.53768793807E+01  0.00000000000E+00 0. -1.
</event>
<event>
 7    1  0.1503436E-008  0.4614232E+02  0.7816164E-02  0.1320468E+00
        -11   -1    0    0    0    0  0.00000000000E+00  0.00000000000E+00  0.45593999997E+02  0.45594000000E+02  0.51100000000E-03 0.  1.
         11   -1    0    0    0    0 -0.00000000000E+00 -0.00000000000E+00 -0.45593999997E+02  0.45594000000E+02  0.51100000000E-03 0. -1.
    9900012    2    1    2    0    0 -0.19738283239E+02  0.55679996359E+01  0.40106247842E+02  0.46142316953E+02  0.99999926311E+01 0.  0.
         12    1    1    2    0    0  0.19738283239E+02 -0.55679996359E+01 -0.40106247842E+02  0.45045683047E+02  0.00000000000E+00 0. -1.
         11    1    3    3    0    0 -0.50556724675E+01 -0.11768713510E+01  0.68202848724E+01  0.85709472217E+01  0.51100000000E-03 0. -1.
        -11    1    3    3    0    0 -0.53594521167E+01  0.82164232369E+00  0.57531706052E+01  0.79055547163E+01  0.51100000000E-03 0.  1.
        -12    1    3    3    0    0 -0.93231586553E+01  0.59232286632E+01  0.27532792365E+02  0.29665815015E+02  0.00000000000E+00 0.  1.
</event>
<event>
 7    1  0.1503436E-008  0.4614232E+02  0.7816164E-02  0.1320468E+00
        -11   -1    0    0    0    0  0.00000000000E+00  0.00000000000E+00  0.45593999997E+02  0.45594000000E+02  0.51100000000E-03 0. -1.
         11   -1    0    0    0    0 -0.00000000000E+00 -0.00000000000E+00 -0.45593999997E+02  0.45594000000E+02  0.51100000000E-03 0.  1.
    9900012    2    1    2    0    0  0.14195967686E+02  0.34688598723E+02 -0.24985776576E+02  0.46142318619E+02  0.10000007826E+02 0.  0.
         12    1    1    2    0    0 -0.14195967686E+02 -0.34688598723E+02  0.24985776576E+02  0.45045681381E+02  0.00000000000E+00 0. -1.
         11    1    3    3    0    0  0.78877776788E+01  0.15428792726E+02 -0.92502524215E+01  0.19642602980E+02  0.51100000000E-03 0. -1.
        -11    1    3    3    0    0  0.29909998946E+01  0.80044750974E+01 -0.10795899097E+02  0.13768410929E+02  0.51100000000E-03 0.  1.
        -12    1    3    3    0    0  0.33171901127E+01  0.11255330900E+02 -0.49396250579E+01  0.12731304710E+02  0.00000000000E+00 0.  1.
</event>
<event>
 7    1  0.1503436E-008  0.4614232E+02  0.7816164E-02  0.1320468E+00
        -11   -1    0    0    0    0  0.00000000000E+00  0.00000000000E+00  0.45593999997E+02  0.45594000000E+02  0.51100000000E-03 0.  1.
         11   -1    0    0    0    0 -0.00000000000E+00 -0.00000000000E+00 -0.45593999997E+02  0.45594000000E+02  0.51100000000E-03 0. -1.
    9900012    2    1    2    0    0 -0.67720604224E+01 -0.33947787642E+02  0.28823611899E+02  0.46142315512E+02  0.99999794874E+01 0.  0.
         12    1    1    2    0    0  0.67720604224E+01  0.33947787642E+02 -0.28823611899E+02  0.45045684488E+02  0.00000000000E+00 0. -1.
         11    1    3    3    0    0 -0.27504594853E+01 -0.39336125849E+01  0.89427327096E+00  0.48824236085E+01  0.51100000000E-03 0. -1.
        -11    1    3    3    0    0 -0.37452719783E+01 -0.21002768668E+02  0.18938086044E+02  0.28527082872E+02  0.51100000000E-03 0.  1.
         12    1    3    3    0    0 -0.27632895878E+00 -0.90114063891E+01  0.89912525840E+01  0.12732809031E+02  0.00000000000E+00 0. -1.
</event>
<event>
 7    1  0.1503436E-008  0.4614232E+02  0.7816164E-02  0.1320468E+00
        -11   -1    0    0    0    0  0.00000000000E+00  0.00000000000E+00  0.45593999997E+02  0.45594000000E+02  0.51100000000E-03 0.  1.
         11   -1    0    0    0    0 -0.00000000000E+00 -0.00000000000E+00 -0.45593999997E+02  0.45594000000E+02  0.51100000000E-03 0. -1.
    9900012    2    1    2    0    0 -0.20362239055E+02 -0.33065424124E+02  0.22829159260E+02  0.46142316917E+02  0.99999923073E+01 0.  0.
         12    1    1    2    0    0  0.20362239055E+02  0.33065424124E+02 -0.22829159260E+02  0.45045683083E+02  0.00000000000E+00 0. -1.
         11    1    3    3    0    0 -0.12294595549E+01 -0.83856576482E+01  0.43662497721E+01  0.95338849544E+01  0.51100000000E-03 0. -1.
        -11    1    3    3    0    0 -0.10728179466E+02 -0.17272856507E+02  0.10679761110E+02  0.22967427026E+02  0.51100000000E-03 0.  1.
         12    1    3    3    0    0 -0.84046000345E+01 -0.74069099693E+01  0.77831483775E+01  0.13641004937E+02  0.00000000000E+00 0. -1.
</event>
<event>
 7    1  0.1503436E-008  0.4614232E+02  0.7816164E-02  0.1320468E+00
        -11   -1    0    0    0    0  0.00000000000E+00  0.00000000000E+00  0.45593999997E+02  0.45594000000E+02  0.51100000000E-03 0. -1.
         11   -1    0    0    0    0 -0.00000000000E+00 -0.00000000000E+00 -0.45593999997E+02  0.45594000000E+02  0.51100000000E-03 0.  1.
    9900012    2    1    2    0    0  0.11975217480E+02  0.17072622751E+02 -0.39927847107E+02  0.46142320342E+02  0.10000023533E+02 0.  0.
         12    1    1    2    0    0 -0.11975217480E+02 -0.17072622751E+02  0.39927847107E+02  0.45045679658E+02  0.00000000000E+00 0. -1.
         11    1    3    3    0    0  0.24046887290E+01  0.95680502871E+01 -0.19461884566E+02  0.21819602776E+02  0.51100000000E-03 0. -1.
        -11    1    3    3    0    0  0.61624587015E+01  0.26838932725E+01 -0.14217905410E+02  0.15726665726E+02  0.51100000000E-03 0.  1.
        -12    1    3    3    0    0  0.34080700496E+01  0.48206791916E+01 -0.62480571314E+01  0.85960518407E+01  0.00000000000E+00 0.  1.
</event>
<event>
 7    1  0.1503436E-008  0.4614232E+02  0.7816164E-02  0.1320468E+00
        -11   -1    0    0    0    0  0.00000000000E+00  0.00000000000E+00  0.45593999997E+02  0.45594000000E+02  0.51100000000E-03 0.  1.
         11   -1    0    0    0    0 -0.00000000000E+00 -0.00000000000E+00 -0.45593999997E+02  0.45594000000E+02  0.51100000000E-03 0. -1.
    9900012    2    1    2    0    0 -0.22335164450E+02 -0.92992878582E+01 -0.37997059502E+02  0.46142324775E+02  0.10000063962E+02 0.  0.
         12    1    1    2    0    0  0.22335164450E+02  0.92992878582E+01  0.37997059502E+02  0.45045675225E+02  0.00000000000E+00 0. -1.
         11    1    3    3    0    0 -0.29306438277E+01 -0.12666467319E+01 -0.67957002849E+00  0.32641818076E+01  0.51100000000E-03 0. -1.
        -11    1    3    3    0    0 -0.18719289196E+01 -0.10386426720E+01 -0.26685577079E+01  0.34211251046E+01  0.51100000000E-03 0.  1.
         12    1    3    3    0    0 -0.17532591702E+02 -0.69939984544E+01 -0.34648931765E+02  0.39457017863E+02  0.00000000000E+00 0. -1.
</event>
<event>
 7    1  0.1503436E-008  0.4614232E+02  0.7816164E-02  0.1320468E+00
        -11   -1    0    0    0    0  0.00000000000E+00  0.00000000000E+00  0.45593999997E+02  0.45594000000E+02  0.51100000000E-03 0. -1.
         11   -1    0    0    0    0 -0.00000000000E+00 -0.00000000000E+00 -0.45593999997E+02  0.45594000000E+02  0.51100000000E-03 0.  1.
    9900012    2    1    2    0    0 -0.41279258938E+02 -0.11632776557E+02 -0.13777328532E+02  0.46142317738E+02  0.99999997920E+01 0.  0.
         12    1    1    2    0    0  0.41279258938E+02  0.11632776557E+02  0.13777328532E+02  0.45045682262E+02  0.00000000000E+00 0. -1.
         11    1    3    3    0    0 -0.23585959274E+02 -0.35175536563E+01 -0.48421669708E+01  0.24333459265E+02  0.51100000000E-03 0. -1.
        -11    1    3    3    0    0 -0.13784252369E+02 -0.80943969149E+01 -0.72185620751E+01  0.17539455906E+02  0.51100000000E-03 0.  1.
         12    1    3    3    0    0 -0.39090472955E+01 -0.20825986263E-01 -0.17165994865E+01  0.42694025668E+01  0.00000000000E+00 0. -1.
</event>
<event>
 7    1  0.1503436E-008  0.4614232E+02  0.7816164E-02  0.1320468E+00
        -11   -1    0    0    0    0  0.00000000000E+00  0.00000000000E+00  0.45593999997E+02  0.45594000000E+02  0.51100000000E-03 0. -1.
         11   -1    0    0    0    0 -0.00000000000E+00 -0.00000000000E+00 -0.45593999997E+02  0.45594000000E+02  0.51100000000E-03 0.  1.
    9900012    2    1    2    0    0 -0.92514629341E+01  0.36309528679E+02 -0.25002840264E+02  0.46142318070E+02  0.10000002816E+02 0.  0.
         12    1    1    2    0    0  0.92514629341E+01 -0.36309528679E+02  0.25002840264E+02  0.45045681930E+02  0.00000000000E+00 0. -1.
         11    1    3    3    0    0 -0.46535262916E+01  0.26050221072E+02 -0.14255049398E+02  0.30057873485E+02  0.51100000000E-03 0. -1.
        -11    1    3    3    0    0 -0.37999485085E+01  0.76002876010E+01 -0.54256497426E+01  0.10081748642E+02  0.51100000000E-03 0.  1.
         12    1    3    3    0    0 -0.79798813401E+00  0.26590200061E+01 -0.53221411229E+01  0.60026959432E+01  0.00000000000E+00 0. -1.
</event>
<event>
 7    1  0.1503436E-008  0.4614232E+02  0.7816164E-02  0.1320468E+00
        -11   -1    0    0    0    0  0.00000000000E+00  0.00000000000E+00  0.45593999997E+02  0.45594000000E+02  0.51100000000E-03 0.  1.
         11   -1    0    0    0    0 -0.00000000000E+00 -0.00000000000E+00 -0.45593999997E+02  0.45594000000E+02  0.51100000000E-03 0. -1.
    9900012    2    1    2    0    0  0.31982979229E+02  0.31299177514E+02  0.51540285757E+01  0.46142317810E+02  0.10000000443E+02 0.  0.
         12    1    1    2    0    0 -0.31982979229E+02 -0.31299177514E+02 -0.51540285757E+01  0.45045682190E+02  0.00000000000E+00 0. -1.
         11    1    3    3    0    0  0.33848109306E+01  0.98086848636E+00  0.25452034978E+00  0.35332462259E+01  0.51100000000E-03 0. -1.
        -11    1    3    3    0    0  0.87214411764E+01  0.11521692824E+02  0.48802884881E+01  0.15252218124E+02  0.51100000000E-03 0.  1.
        -12    1    3    3    0    0  0.19876727122E+02  0.18796616204E+02  0.19219737823E-01  0.27356853460E+02  0.00000000000E+00 0.  1.
</event>
<event>
 7    1  0.1503436E-008  0.4614232E+02  0.7816164E-02  0.1320468E+00
        -11   -1    0    0    0    0  0.00000000000E+00  0.00000000000E+00  0.45593999997E+02  0.45594000000E+02  0.51100000000E-03 0.  1.
         11   -1    0    0    0    0 -0.00000000000E+00 -0.00000000000E+00 -0.45593999997E+02  0.45594000000E+02  0.51100000000E-03 0. -1.
    9900012    2    1    2    0    0  0.35547436451E+02  0.11512830844E+02  0.25158456158E+02  0.46142318426E+02  0.10000006059E+02 0.  0.
         12    1    1    2    0    0 -0.35547436451E+02 -0.11512830844E+02 -0.25158456158E+02  0.45045681574E+02  0.00000000000E+00 0. -1.
         11    1    3    3    0    0  0.11730559335E+02  0.79102871649E+00  0.76969173320E+01  0.14052554409E+02  0.51100000000E-03 0. -1.
        -11    1    3    3    0    0  0.54495280580E+01 -0.29002480374E+00  0.43553109203E+01  0.69821346246E+01  0.51100000000E-03 0.  1.
         12    1    3    3    0    0  0.18367349057E+02  0.11011826931E+02  0.13106227906E+02  0.25107629392E+02  0.00000000000E+00 0. -1.
</event>
<event>
 7    1  0.1503436E-008  0.4614232E+02  0.7816164E-02  0.1320468E+00
        -11   -1    0    0    0    0  0.00000000000E+00  0.00000000000E+00  0.45593999997E+02  0.45594000000E+02  0.51100000000E-03 0.  1.
         11   -1    0    0    0    0 -0.00000000000E+00 -0.00000000000E+00 -0.45593999997E+02  0.45594000000E+02  0.51100000000E-03 0. -1.
    9900012    2    1    2    0    0  0.38850901225E+02  0.58893570637E-01  0.22797311464E+02  0.46142318693E+02  0.10000008495E+02 0.  0.
         12    1    1    2    0    0 -0.38850901225E+02 -0.58893570637E-01 -0.22797311464E+02  0.45045681307E+02  0.00000000000E+00 0. -1.
         11    1    3    3    0    0  0.71678165255E+01  0.24995614480E+01  0.45947897865E+01  0.88734150483E+01  0.51100000000E-03 0. -1.
        -11    1    3    3    0    0  0.27423363589E+02 -0.20863884862E+01  0.12678640832E+02  0.30284349441E+02  0.51100000000E-03 0.  1.
         12    1    3    3    0    0  0.42597211108E+01 -0.35427939115E+00  0.55238808455E+01  0.69845542037E+01  0.00000000000E+00 0. -1.
</event>
<event>
 7    1  0.1503436E-008  0.4614232E+02  0.7816164E-02  0.1320468E+00
        -11   -1    0    0    0    0  0.00000000000E+00  0.00000000000E+00  0.45593999997E+02  0.45594000000E+02  0.51100000000E-03 0.  1.
         11   -1    0    0    0    0 -0.00000000000E+00 -0.00000000000E+00 -0.45593999997E+02  0.45594000000E+02  0.51100000000E-03 0. -1.
    9900012    2    1    2    0    0  0.10978932554E+02 -0.22426998908E+02  0.37491415740E+02  0.46142317696E+02  0.99999994074E+01 0.  0.
         12    1    1    2    0    0 -0.10978932554E+02  0.22426998908E+02 -0.37491415740E+02  0.45045682304E+02  0.00000000000E+00 0. -1.
         11    1    3    3    0    0  0.58956291068E+01 -0.53204750825E+01  0.15663497267E+02  0.17561635589E+02  0.51100000000E-03 0. -1.
        -11    1    3    3    0    0  0.55894578756E+01 -0.17040423772E+02  0.21334234724E+02  0.27870551720E+02  0.51100000000E-03 0.  1.
        -12    1    3    3    0    0 -0.50615442846E+00 -0.66100053686E-01  0.49368374867E+00  0.71013038680E+00  0.00000000000E+00 0.  1.
</event>
<event>
 7    1  0.1503436E-008  0.4614232E+02  0.7816164E-02  0.1320468E+00
        -11   -1    0    0    0    0  0.00000000000E+00  0.00000000000E+00  0.45593999997E+02  0.45594000000E+02  0.51100000000E-03 0.  1.
         11   -1    0    0    0    0 -0.00000000000E+00 -0.00000000000E+00 -0.45593999997E+02  0.45594000000E+02  0.51100000000E-03 0. -1.
    9900012    2    1    2    0    0 -0.15870010958E+02 -0.30067530750E+02  0.29549954948E+02  0.46142317736E+02  0.99999997696E+01 0.  0.
         12    1    1    2    0    0  0.15870010958E+02  0.30067530750E+02 -0.29549954948E+02  0.45045682264E+02  0.00000000000E+00 0. -1.
         11    1    3    3    0    0 -0.10051972335E+01 -0.61038192905E+01  0.63112245366E+01  0.88373404835E+01  0.51100000000E-03 0. -1.
        -11    1    3    3    0    0 -0.14608761940E+02 -0.24448028655E+02  0.23237150043E+02  0.36757137714E+02  0.51100000000E-03 0.  1.
        -12    1    3    3    0    0 -0.25605178498E+00  0.48431719548E+00  0.15803683743E-02  0.54783953855E+00  0.00000000000E+00 0.  1.
</event>
<event>
 7    1  0.1503436E-008  0.4614232E+02  0.7816164E-02  0.1320468E+00
        -11   -1    0    0    0    0  0.00000000000E+00  0.00000000000E+00  0.45593999997E+02  0.45594000000E+02  0.51100000000E-03 0.  1.
         11   -1    0    0    0    0 -0.00000000000E+00 -0.00000000000E+00 -0.45593999997E+02  0.45594000000E+02  0.51100000000E-03 0. -1.
    9900012    2    1    2    0    0  0.33945483289E+02 -0.28891878971E+02  0.64866827099E+01  0.46142316980E+02  0.99999928728E+01 0.  0.
         12    1    1    2    0    0 -0.33945483289E+02  0.28891878971E+02 -0.64866827099E+01  0.45045683020E+02  0.00000000000E+00 0. -1.
         11    1    3    3    0    0  0.94035779839E+01 -0.50361429036E+01  0.96554145968E+00  0.10710848931E+02  0.51100000000E-03 0. -1.
        -11    1    3    3    0    0  0.22026572161E+02 -0.22617218437E+02  0.68863974129E+01  0.32313014724E+02  0.51100000000E-03 0.  1.
        -12    1    3    3    0    0  0.25153331445E+01 -0.12385176305E+01 -0.13652561627E+01  0.31184533247E+01  0.00000000000E+00 0.  1.
</event>
<event>
 7    1  0.1503436E-008  0.4614232E+02  0.7816164E-02  0.1320468E+00
        -11   -1    0    0    0    0  0.00000000000E+00  0.00000000000E+00  0.45593999997E+02  0.45594000000E+02  0.51100000000E-03 0.  1.
         11   -1    0    0    0    0 -0.00000000000E+00 -0.00000000000E+00 -0.45593999997E+02  0.45594000000E+02  0.51100000000E-03 0. -1.
    9900012    2    1    2    0    0  0.25101702341E+01  0.95758346034E+01  0.43944463260E+02  0.46142318585E+02  0.10000007510E+02 0.  0.
         12    1    1    2    0    0 -0.25101702341E+01 -0.95758346034E+01 -0.43944463260E+02  0.45045681415E+02  0.00000000000E+00 0. -1.
         11    1    3    3    0    0  0.87068292800E+00  0.25997492241E+01  0.68872517797E+01  0.74128956641E+01  0.51100000000E-03 0. -1.
        -11    1    3    3    0    0  0.34846530629E+01  0.68859833610E+01  0.35451393764E+02  0.36281688135E+02  0.51100000000E-03 0.  1.
        -12    1    3    3    0    0 -0.18451657568E+01  0.90102018360E-01  0.16058177161E+01  0.24477347857E+01  0.00000000000E+00 0.  1.
</event>
<event>
 7    1  0.1503436E-008  0.4614232E+02  0.7816164E-02  0.1320468E+00
        -11   -1    0    0    0    0  0.00000000000E+00  0.00000000000E+00  0.45593999997E+02  0.45594000000E+02  0.51100000000E-03 0. -1.
         11   -1    0    0    0    0 -0.00000000000E+00 -0.00000000000E+00 -0.45593999997E+02  0.45594000000E+02  0.51100000000E-03 0.  1.
    9900012    2    1    2    0    0  0.34431484468E+02  0.59568273367E+01 -0.28427145035E+02  0.46142317749E+02  0.99999998903E+01 0.  0.
         12    1    1    2    0    0 -0.34431484468E+02 -0.59568273367E+01  0.28427145035E+02  0.45045682251E+02  0.00000000000E+00 0. -1.
         11    1    3    3    0    0  0.21093741457E+02 -0.72761096727E-01 -0.18843080189E+02  0.28284499184E+02  0.51100000000E-03 0. -1.
        -11    1    3    3    0    0  0.81053496870E+01  0.27736105399E+01 -0.36813233260E+01  0.93242560383E+01  0.51100000000E-03 0.  1.
         12    1    3    3    0    0  0.52323933242E+01  0.32559778935E+01 -0.59027415200E+01  0.85335625265E+01  0.00000000000E+00 0. -1.
</event>
<event>
 7    1  0.1503436E-008  0.4614231E+02  0.7816164E-02  0.1320468E+00
        -11   -1    0    0    0    0  0.00000000000E+00  0.00000000000E+00  0.45593999997E+02  0.45594000000E+02  0.51100000000E-03 0. -1.
         11   -1    0    0    0    0 -0.00000000000E+00 -0.00000000000E+00 -0.45593999997E+02  0.45594000000E+02  0.51100000000E-03 0.  1.
    9900012    2    1    2    0    0  0.25935089329E+02  0.18975484601E+02 -0.31566065773E+02  0.46142307833E+02  0.99999094707E+01 0.  0.
         12    1    1    2    0    0 -0.25935089329E+02 -0.18975484601E+02  0.31566065773E+02  0.45045692167E+02  0.00000000000E+00 0. -1.
         11    1    3    3    0    0 -0.11767099795E-01  0.19253448478E+00  0.23338899224E+00  0.30278486634E+00  0.51100000000E-03 0. -1.
        -11    1    3    3    0    0  0.15474811518E+02  0.11283011306E+02 -0.13377018178E+02  0.23360666755E+02  0.51100000000E-03 0.  1.
        -12    1    3    3    0    0  0.10472044911E+02  0.74999388103E+01 -0.18422436587E+02  0.22478856212E+02  0.00000000000E+00 0.  1.
</event>
<event>
 7    1  0.1503436E-008  0.4614232E+02  0.7816164E-02  0.1320468E+00
        -11   -1    0    0    0    0  0.00000000000E+00  0.00000000000E+00  0.45593999997E+02  0.45594000000E+02  0.51100000000E-03 0.  1.
         11   -1    0    0    0    0 -0.00000000000E+00 -0.00000000000E+00 -0.45593999997E+02  0.45594000000E+02  0.51100000000E-03 0. -1.
    9900012    2    1    2    0    0 -0.13007221775E+02  0.40456787708E+02  0.14938994983E+02  0.46142322504E+02  0.10000043246E+02 0.  0.
         12    1    1    2    0    0  0.13007221775E+02 -0.40456787708E+02 -0.14938994983E+02  0.45045677496E+02  0.00000000000E+00 0. -1.
         11    1    3    3    0    0 -0.72640153288E+01  0.24731200837E+02  0.10279355403E+02  0.27750015519E+02  0.51100000000E-03 0. -1.
        -11    1    3    3    0    0 -0.39203502045E+01  0.14112467788E+02  0.57370795607E+01  0.15730383814E+02  0.51100000000E-03 0.  1.
         12    1    3    3    0    0 -0.18228562420E+01  0.16131190834E+01 -0.10774399802E+01  0.26619231708E+01  0.00000000000E+00 0. -1.
</event>
<event>
 7    1  0.1503436E-008  0.4614232E+02  0.7816164E-02  0.1320468E+00
        -11   -1    0    0    0    0  0.00000000000E+00  0.00000000000E+00  0.45593999997E+02  0.45594000000E+02  0.51100000000E-03 0.  1.
         11   -1    0    0    0    0 -0.00000000000E+00 -0.00000000000E+00 -0.45593999997E+02  0.45594000000E+02  0.51100000000E-03 0. -1.
    9900012    2    1    2    0    0  0.23662464333E+02  0.21748010169E+02  0.31563036555E+02  0.46142318285E+02  0.10000004775E+02 0.  0.
         12    1    1    2    0    0 -0.23662464333E+02 -0.21748010169E+02 -0.31563036555E+02  0.45045681715E+02  0.00000000000E+00 0. -1.
         11    1    3    3    0    0  0.89398687589E+01  0.43131958967E+01  0.90788774987E+01  0.13451800220E+02  0.51100000000E-03 0. -1.
        -11    1    3    3    0    0  0.13240075407E+02  0.16878663307E+02  0.18231804446E+02  0.28152931738E+02  0.51100000000E-03 0.  1.
         12    1    3    3    0    0  0.14825201670E+01  0.55615096537E+00  0.42523546100E+01  0.45375863266E+01  0.00000000000E+00 0. -1.
</event>
<event>
 7    1  0.1503436E-008  0.4614232E+02  0.7816164E-02  0.1320468E+00
        -11   -1    0    0    0    0  0.00000000000E+00  0.00000000000E+00  0.45593999997E+02  0.45594000000E+02  0.51100000000E-03 0.  1.
         11   -1    0    0    0    0 -0.00000000000E+00 -0.00000000000E+00 -0.45593999997E+02  0.45594000000E+02  0.51100000000E-03 0. -1.
    9900012    2    1    2    0    0  0.43333116968E+02 -0.90304315806E+01  0.83549848983E+01  0.46142317706E+02  0.99999994988E+01 0.  0.
         12    1    1    2    0    0 -0.43333116968E+02  0.90304315806E+01 -0.83549848983E+01  0.45045682294E+02  0.00000000000E+00 0. -1.
         11    1    3    3    0    0  0.54906075431E+01 -0.24089891210E+01 -0.68072833642E+00  0.60343509267E+01  0.51100000000E-03 0. -1.
        -11    1    3    3    0    0  0.35948198410E+02 -0.74224645170E+01  0.73192324315E+01  0.37429094460E+02  0.51100000000E-03 0.  1.
        -12    1    3    3    0    0  0.18943110141E+01  0.80102205744E+00  0.17164808032E+01  0.26788723192E+01  0.00000000000E+00 0.  1.
</event>
<event>
 7    1  0.1503436E-008  0.4614232E+02  0.7816164E-02  0.1320468E+00
        -11   -1    0    0    0    0  0.00000000000E+00  0.00000000000E+00  0.45593999997E+02  0.45594000000E+02  0.51100000000E-03 0. -1.
         11   -1    0    0    0    0 -0.00000000000E+00 -0.00000000000E+00 -0.45593999997E+02  0.45594000000E+02  0.51100000000E-03 0.  1.
    9900012    2    1    2    0    0  0.25017814482E+02 -0.85519735004E-02 -0.37459611178E+02  0.46142316697E+02  0.99999903004E+01 0.  0.
         12    1    1    2    0    0 -0.25017814482E+02  0.85519735004E-02  0.37459611178E+02  0.45045683303E+02  0.00000000000E+00 0. -1.
         11    1    3    3    0    0  0.44902873402E+01  0.24717071592E+01 -0.39217170245E+01  0.64538268771E+01  0.51100000000E-03 0. -1.
        -11    1    3    3    0    0  0.15839510841E+02  0.35141859584E-01 -0.23734349067E+02  0.28534376891E+02  0.51100000000E-03 0.  1.
         12    1    3    3    0    0  0.46880163008E+01 -0.25154009923E+01 -0.98035450865E+01  0.11154112930E+02  0.00000000000E+00 0. -1.
</event>
<event>
 7    1  0.1503436E-008  0.4614232E+02  0.7816164E-02  0.1320468E+00
        -11   -1    0    0    0    0  0.00000000000E+00  0.00000000000E+00  0.45593999997E+02  0.45594000000E+02  0.51100000000E-03 0. -1.
         11   -1    0    0    0    0 -0.00000000000E+00 -0.00000000000E+00 -0.45593999997E+02  0.45594000000E+02  0.51100000000E-03 0.  1.
    9900012    2    1    2    0    0  0.42228866605E+02 -0.15671151223E+02  0.50132386302E+00  0.46142317842E+02  0.10000000741E+02 0.  0.
         12    1    1    2    0    0 -0.42228866605E+02  0.15671151223E+02 -0.50132386302E+00  0.45045682158E+02  0.00000000000E+00 0. -1.
         11    1    3    3    0    0  0.18923701981E+01 -0.30650888190E+01 -0.17864942382E+00  0.36066258903E+01  0.51100000000E-03 0. -1.
        -11    1    3    3    0    0  0.34055123782E+02 -0.12391385186E+02  0.82798054058E+00  0.36248909428E+02  0.51100000000E-03 0.  1.
         12    1    3    3    0    0  0.62813726251E+01 -0.21467721777E+00 -0.14800725374E+00  0.62867825245E+01  0.00000000000E+00 0. -1.
</event>
<event>
 7    1  0.1503436E-008  0.4614232E+02  0.7816164E-02  0.1320468E+00
        -11   -1    0    0    0    0  0.00000000000E+00  0.00000000000E+00  0.45593999997E+02  0.45594000000E+02  0.51100000000E-03 0. -1.
         11   -1    0    0    0    0 -0.00000000000E+00 -0.00000000000E+00 -0.45593999997E+02  0.45594000000E+02  0.51100000000E-03 0.  1.
    9900012    2    1    2    0    0  0.20677832027E+02  0.36024521612E+01 -0.39856781852E+02  0.46142318093E+02  0.10000003024E+02 0.  0.
         12    1    1    2    0    0 -0.20677832027E+02 -0.36024521612E+01  0.39856781852E+02  0.45045681907E+02  0.00000000000E+00 0. -1.
         11    1    3    3    0    0  0.75306195304E+01  0.33722687475E+01 -0.11721841629E+02  0.14334713058E+02  0.51100000000E-03 0. -1.
        -11    1    3    3    0    0 -0.43489365659E+00 -0.95234559421E+00 -0.34821039912E+01  0.36360889827E+01  0.51100000000E-03 0.  1.
        -12    1    3    3    0    0  0.13582106153E+02  0.11825290079E+01 -0.24652836231E+02  0.28171516052E+02  0.00000000000E+00 0.  1.
</event>
<event>
 7    1  0.1503436E-008  0.4614232E+02  0.7816164E-02  0.1320468E+00
        -11   -1    0    0    0    0  0.00000000000E+00  0.00000000000E+00  0.45593999997E+02  0.45594000000E+02  0.51100000000E-03 0.  1.
         11   -1    0    0    0    0 -0.00000000000E+00 -0.00000000000E+00 -0.45593999997E+02  0.45594000000E+02  0.51100000000E-03 0. -1.
    9900012    2    1    2    0    0  0.21668682723E+02 -0.79341994060E+01  0.38686302280E+02  0.46142319683E+02  0.10000017523E+02 0.  0.
         12    1    1    2    0    0 -0.21668682723E+02  0.79341994060E+01 -0.38686302280E+02  0.45045680317E+02  0.00000000000E+00 0. -1.
         11    1    3    3    0    0 -0.67377375511E+00 -0.15396461891E+01  0.14357798970E+01  0.22104175249E+01  0.51100000000E-03 0. -1.
        -11    1    3    3    0    0  0.10071151324E+02 -0.28931110305E+01  0.18237869755E+02  0.21033736565E+02  0.51100000000E-03 0.  1.
         12    1    3    3    0    0  0.12271305154E+02 -0.35014421864E+01  0.19012652628E+02  0.22898165593E+02  0.00000000000E+00 0. -1.
</event>
<event>
 7    1  0.1503436E-008  0.4614232E+02  0.7816164E-02  0.1320468E+00
        -11   -1    0    0    0    0  0.00000000000E+00  0.00000000000E+00  0.45593999997E+02  0.45594000000E+02  0.51100000000E-03 0.  1.
         11   -1    0    0    0    0 -0.00000000000E+00 -0.00000000000E+00 -0.45593999997E+02  0.45594000000E+02  0.51100000000E-03 0. -1.
    9900012    2    1    2    0    0 -0.15430707685E+02  0.66008624038E+01  0.41802336679E+02  0.46142317899E+02  0.10000001253E+02 0.  0.
         12    1    1    2    0    0  0.15430707685E+02 -0.66008624038E+01 -0.41802336679E+02  0.45045682101E+02  0.00000000000E+00 0. -1.
         11    1    3    3    0    0 -0.59323846594E+01 -0.21565367843E+01  0.16934906968E+02  0.18073043820E+02  0.51100000000E-03 0. -1.
        -11    1    3    3    0    0 -0.18282953178E+01  0.10666008154E+01  0.49283176872E+01  0.53636383692E+01  0.51100000000E-03 0.  1.
         12    1    3    3    0    0 -0.76700277073E+01  0.76907983727E+01  0.19939112024E+02  0.22705635709E+02  0.00000000000E+00 0. -1.
</event>
<event>
 7    1  0.1503436E-008  0.4614232E+02  0.7816164E-02  0.1320468E+00
        -11   -1    0    0    0    0  0.00000000000E+00  0.00000000000E+00  0.45593999997E+02  0.45594000000E+02  0.51100000000E-03 0.  1.
         11   -1    0    0    0    0 -0.00000000000E+00 -0.00000000000E+00 -0.45593999997E+02  0.45594000000E+02  0.51100000000E-03 0. -1.
    9900012    2    1    2    0    0  0.10501246740E+02  0.25372682001E+02  0.35708041381E+02  0.46142318806E+02  0.10000009526E+02 0.  0.
         12    1    1    2    0    0 -0.10501246740E+02 -0.25372682001E+02 -0.35708041381E+02  0.45045681194E+02  0.00000000000E+00 0. -1.
         11    1    3    3    0    0  0.21752983131E+01  0.12505263458E+01  0.12766238532E+01  0.28152278089E+01  0.51100000000E-03 0. -1.
        -11    1    3    3    0    0  0.92202296852E+01  0.19918489373E+02  0.27720319882E+02  0.35357813691E+02  0.51100000000E-03 0.  1.
        -12    1    3    3    0    0 -0.89428125804E+00  0.42036662813E+01  0.67110976457E+01  0.79692773062E+01  0.00000000000E+00 0.  1.
</event>
<event>
 7    1  0.1503436E-008  0.4614232E+02  0.7816164E-02  0.1320468E+00
        -11   -1    0    0    0    0  0.00000000000E+00  0.00000000000E+00  0.45593999997E+02  0.45594000000E+02  0.51100000000E-03 0.  1.
         11   -1    0    0    0    0 -0.00000000000E+00 -0.00000000000E+00 -0.45593999997E+02  0.45594000000E+02  0.51100000000E-03 0. -1.
    9900012    2    1    2    0    0  0.42287123040E+02 -0.14534678344E+02  0.54457161569E+01  0.46142317920E+02  0.10000001453E+02 0.  0.
         12    1    1    2    0    0 -0.42287123040E+02  0.14534678344E+02 -0.54457161569E+01  0.45045682080E+02  0.00000000000E+00 0. -1.
         11    1    3    3    0    0  0.12300347768E+02 -0.75782458947E+01 -0.10995157166E+01  0.14489213268E+02  0.51100000000E-03 0. -1.
        -11    1    3    3    0    0  0.18313224260E+02 -0.58007243967E+01  0.34044614528E+01  0.19509304047E+02  0.51100000000E-03 0.  1.
         12    1    3    3    0    0  0.11673551011E+02 -0.11557080525E+01  0.31407704207E+01  0.12143800606E+02  0.00000000000E+00 0. -1.
</event>
<event>
 7    1  0.1503436E-008  0.4614232E+02  0.7816164E-02  0.1320468E+00
        -11   -1    0    0    0    0  0.00000000000E+00  0.00000000000E+00  0.45593999997E+02  0.45594000000E+02  0.51100000000E-03 0.  1.
         11   -1    0    0    0    0 -0.00000000000E+00 -0.00000000000E+00 -0.45593999997E+02  0.45594000000E+02  0.51100000000E-03 0. -1.
    9900012    2    1    2    0    0 -0.45060988435E+01 -0.94130386052E+01  0.43820123439E+02  0.46142318290E+02  0.10000004821E+02 0.  0.
         12    1    1    2    0    0  0.45060988435E+01  0.94130386052E+01 -0.43820123439E+02  0.45045681710E+02  0.00000000000E+00 0. -1.
         11    1    3    3    0    0 -0.25551290146E+01 -0.21229711708E+01  0.37802767172E+01  0.50325126123E+01  0.51100000000E-03 0. -1.
        -11    1    3    3    0    0 -0.83589834002E+00 -0.79682691032E+01  0.34221722905E+02  0.35147096002E+02  0.51100000000E-03 0.  1.
        -12    1    3    3    0    0 -0.11150714889E+01  0.67820166891E+00  0.58181238168E+01  0.59627096757E+01  0.00000000000E+00 0.  1.
</event>
<event>
 7    1  0.1503436E-008  0.4614232E+02  0.7816164E-02  0.1320468E+00
        -11   -1    0    0    0    0  0.00000000000E+00  0.00000000000E+00  0.45593999997E+02  0.45594000000E+02  0.51100000000E-03 0.  1.
         11   -1    0    0    0    0 -0.00000000000E+00 -0.00000000000E+00 -0.45593999997E+02  0.45594000000E+02  0.51100000000E-03 0. -1.
    9900012    2    1    2    0    0  0.18577876514E+02 -0.34448233561E+02  0.22300116865E+02  0.46142317594E+02  0.99999984777E+01 0.  0.
         12    1    1    2    0    0 -0.18577876514E+02  0.34448233561E+02 -0.22300116865E+02  0.45045682406E+02  0.00000000000E+00 0. -1.
         11    1    3    3    0    0  0.59027554870E+01 -0.12302740191E+02  0.13245247629E+02  0.19016743243E+02  0.51100000000E-03 0. -1.
        -11    1    3    3    0    0  0.57371212818E+01 -0.90688805001E+01  0.31046409265E+01  0.11171300268E+02  0.51100000000E-03 0.  1.
         12    1    3    3    0    0  0.69379997448E+01 -0.13076612870E+02  0.59502283093E+01  0.15954274084E+02  0.00000000000E+00 0. -1.
</event>
<event>
 7    1  0.1503436E-008  0.4614232E+02  0.7816164E-02  0.1320468E+00
        -11   -1    0    0    0    0  0.00000000000E+00  0.00000000000E+00  0.45593999997E+02  0.45594000000E+02  0.51100000000E-03 0.  1.
         11   -1    0    0    0    0 -0.00000000000E+00 -0.00000000000E+00 -0.45593999997E+02  0.45594000000E+02  0.51100000000E-03 0. -1.
    9900012    2    1    2    0    0 -0.67751374340E+01 -0.61798065437E+01  0.44102393711E+02  0.46142316220E+02  0.99999859501E+01 0.  0.
         12    1    1    2    0    0  0.67751374340E+01  0.61798065437E+01 -0.44102393711E+02  0.45045683780E+02  0.00000000000E+00 0. -1.
         11    1    3    3    0    0 -0.24194976683E+01 -0.27871723196E+01  0.47216249000E+01  0.59929992878E+01  0.51100000000E-03 0. -1.
        -11    1    3    3    0    0 -0.48236076359E+01 -0.42194769570E+01  0.37484002222E+02  0.38027905534E+02  0.51100000000E-03 0.  1.
        -12    1    3    3    0    0  0.46796787021E+00  0.82684273298E+00  0.18967665885E+01  0.21214113990E+01  0.00000000000E+00 0.  1.
</event>
<event>
 7    1  0.1503436E-008  0.4614232E+02  0.7816164E-02  0.1320468E+00
        -11   -1    0    0    0    0  0.00000000000E+00  0.00000000000E+00  0.45593999997E+02  0.45594000000E+02  0.51100000000E-03 0.  1.
         11   -1    0    0    0    0 -0.00000000000E+00 -0.00000000000E+00 -0.45593999997E+02  0.45594000000E+02  0.51100000000E-03 0. -1.
    9900012    2    1    2    0    0  0.18538535972E+02  0.37635530235E+02  0.16401317719E+02  0.46142315690E+02  0.99999811159E+01 0.  0.
         12    1    1    2    0    0 -0.18538535972E+02 -0.37635530235E+02 -0.16401317719E+02  0.45045684310E+02  0.00000000000E+00 0. -1.
         11    1    3    3    0    0  0.80733770491E+00  0.34275349229E+01  0.34531496409E+01  0.49319400363E+01  0.51100000000E-03 0. -1.
        -11    1    3    3    0    0  0.88185944028E+01  0.23853972728E+02  0.91883838269E+01  0.27040821359E+02  0.51100000000E-03 0.  1.
        -12    1    3    3    0    0  0.89126038647E+01  0.10354022584E+02  0.37597842507E+01  0.14169554295E+02  0.00000000000E+00 0.  1.
</event>
<event>
 7    1  0.1503436E-008  0.4614232E+02  0.7816164E-02  0.1320468E+00
        -11   -1    0    0    0    0  0.00000000000E+00  0.00000000000E+00  0.45593999997E+02  0.45594000000E+02  0.51100000000E-03 0.  1.
         11   -1    0    0    0    0 -0.00000000000E+00 -0.00000000000E+00 -0.45593999997E+02  0.45594000000E+02  0.51100000000E-03 0. -1.
    9900012    2    1    2    0    0 -0.43417848432E+02 -0.10427029577E+02 -0.59397809763E+01  0.46142317562E+02  0.99999981815E+01 0.  0.
         12    1    1    2    0    0  0.43417848432E+02  0.10427029577E+02  0.59397809763E+01  0.45045682438E+02  0.00000000000E+00 0. -1.
         11    1    3    3    0    0 -0.78242835145E+01 -0.32633853903E+01 -0.14450118309E+01  0.85998346597E+01  0.51100000000E-03 0. -1.
        -11    1    3    3    0    0 -0.17451085949E+02 -0.77794785235E+01 -0.27995681514E+01  0.19310574021E+02  0.51100000000E-03 0.  1.
        -12    1    3    3    0    0 -0.18142478968E+02  0.61583433701E+00 -0.16952009941E+01  0.18231908881E+02  0.00000000000E+00 0.  1.
</event>
<event>
 7    1  0.1503436E-008  0.4614232E+02  0.7816164E-02  0.1320468E+00
        -11   -1    0    0    0    0  0.00000000000E+00  0.00000000000E+00  0.45593999997E+02  0.45594000000E+02  0.51100000000E-03 0.  1.
         11   -1    0    0    0    0 -0.00000000000E+00 -0.00000000000E+00 -0.45593999997E+02  0.45594000000E+02  0.51100000000E-03 0. -1.
    9900012    2    1    2    0    0  0.14071539991E+02  0.42375705628E+02 -0.59501942131E+01  0.46142317894E+02  0.10000001211E+02 0.  0.
         12    1    1    2    0    0 -0.14071539991E+02 -0.42375705628E+02  0.59501942131E+01  0.45045682106E+02  0.00000000000E+00 0. -1.
         11    1    3    3    0    0  0.13403850897E+01  0.15652634423E+01 -0.12114133266E+01  0.23904401982E+01  0.51100000000E-03 0. -1.
        -11    1    3    3    0    0  0.75364377477E+01  0.16941859219E+02 -0.54091057151E+01  0.19315354323E+02  0.51100000000E-03 0.  1.
        -12    1    3    3    0    0  0.51947171537E+01  0.23868582967E+02  0.67032482861E+00  0.24436523373E+02  0.00000000000E+00 0.  1.
</event>
<event>
 7    1  0.1503436E-008  0.4614232E+02  0.7816164E-02  0.1320468E+00
        -11   -1    0    0    0    0  0.00000000000E+00  0.00000000000E+00  0.45593999997E+02  0.45594000000E+02  0.51100000000E-03 0. -1.
         11   -1    0    0    0    0 -0.00000000000E+00 -0.00000000000E+00 -0.45593999997E+02  0.45594000000E+02  0.51100000000E-03 0.  1.
    9900012    2    1    2    0    0  0.27027748864E+02  0.15416447953E+02 -0.32572188006E+02  0.46142317547E+02  0.99999980487E+01 0.  0.
         12    1    1    2    0    0 -0.27027748864E+02 -0.15416447953E+02  0.32572188006E+02  0.45045682453E+02  0.00000000000E+00 0. -1.
         11    1    3    3    0    0  0.35523192094E+01  0.21424423414E+01 -0.10211440896E+01  0.42722086167E+01  0.51100000000E-03 0. -1.
        -11    1    3    3    0    0  0.14657874988E+02  0.57058075895E+01 -0.15779349042E+02  0.22279977465E+02  0.51100000000E-03 0.  1.
         12    1    3    3    0    0  0.88175546669E+01  0.75681980217E+01 -0.15771694875E+02  0.19590131466E+02  0.00000000000E+00 0. -1.
</event>
<event>
 7    1  0.1503436E-008  0.4614232E+02  0.7816164E-02  0.1320468E+00
        -11   -1    0    0    0    0  0.00000000000E+00  0.00000000000E+00  0.45593999997E+02  0.45594000000E+02  0.51100000000E-03 0.  1.
         11   -1    0    0    0    0 -0.00000000000E+00 -0.00000000000E+00 -0.45593999997E+02  0.45594000000E+02  0.51100000000E-03 0. -1.
    9900012    2    1    2    0    0  0.34720561298E+02  0.16698074739E+02  0.23340317709E+02  0.46142317548E+02  0.99999980581E+01 0.  0.
         12    1    1    2    0    0 -0.34720561298E+02 -0.16698074739E+02 -0.23340317709E+02  0.45045682452E+02  0.00000000000E+00 0. -1.
         11    1    3    3    0    0  0.85175014534E+01  0.82160809327E+01  0.58102562437E+01  0.13183735995E+02  0.51100000000E-03 0. -1.
        -11    1    3    3    0    0  0.17469151851E+02  0.33753883058E+01  0.11264694106E+02  0.21058438836E+02  0.51100000000E-03 0.  1.
        -12    1    3    3    0    0  0.87339079927E+01  0.51066055005E+01  0.62653673585E+01  0.11900142718E+02  0.00000000000E+00 0.  1.
</event>
<event>
 7    1  0.1503436E-008  0.4614232E+02  0.7816164E-02  0.1320468E+00
        -11   -1    0    0    0    0  0.00000000000E+00  0.00000000000E+00  0.45593999997E+02  0.45594000000E+02  0.51100000000E-03 0.  1.
         11   -1    0    0    0    0 -0.00000000000E+00 -0.00000000000E+00 -0.45593999997E+02  0.45594000000E+02  0.51100000000E-03 0. -1.
    9900012    2    1    2    0    0 -0.10295493514E+02 -0.25600790310E+02  0.35604997961E+02  0.46142317289E+02  0.99999956915E+01 0.  0.
         12    1    1    2    0    0  0.10295493514E+02  0.25600790310E+02 -0.35604997961E+02  0.45045682711E+02  0.00000000000E+00 0. -1.
         11    1    3    3    0    0 -0.66411876740E+01 -0.19336758536E+02  0.20025835798E+02  0.28619044430E+02  0.51100000000E-03 0. -1.
        -11    1    3    3    0    0 -0.40126994592E+01 -0.60689050693E+01  0.12874835641E+02  0.14788331844E+02  0.51100000000E-03 0.  1.
         12    1    3    3    0    0  0.35839361974E+00 -0.19512670388E+00  0.27043265215E+01  0.27349410144E+01  0.00000000000E+00 0. -1.
</event>
<event>
 7    1  0.1503436E-008  0.4614232E+02  0.7816164E-02  0.1320468E+00
        -11   -1    0    0    0    0  0.00000000000E+00  0.00000000000E+00  0.45593999997E+02  0.45594000000E+02  0.51100000000E-03 0.  1.
         11   -1    0    0    0    0 -0.00000000000E+00 -0.00000000000E+00 -0.45593999997E+02  0.45594000000E+02  0.51100000000E-03 0. -1.
    9900012    2    1    2    0    0  0.42994393322E+02  0.64354212405E+01  0.11797500296E+02  0.46142317444E+02  0.99999971074E+01 0.  0.
         12    1    1    2    0    0 -0.42994393322E+02 -0.64354212405E+01 -0.11797500296E+02  0.45045682556E+02  0.00000000000E+00 0. -1.
         11    1    3    3    0    0  0.39843682647E+01  0.23982396152E+01  0.40862438503E+00  0.46683742213E+01  0.51100000000E-03 0. -1.
        -11    1    3    3    0    0  0.10904429092E+02  0.15172398247E+01 -0.90939771391E-01  0.11009852897E+02  0.51100000000E-03 0.  1.
        -12    1    3    3    0    0  0.28105595966E+02  0.25199418006E+01  0.11479815683E+02  0.30464090326E+02  0.00000000000E+00 0.  1.
</event>
<event>
 7    1  0.1503436E-008  0.4614232E+02  0.7816164E-02  0.1320468E+00
        -11   -1    0    0    0    0  0.00000000000E+00  0.00000000000E+00  0.45593999997E+02  0.45594000000E+02  0.51100000000E-03 0.  1.
         11   -1    0    0    0    0 -0.00000000000E+00 -0.00000000000E+00 -0.45593999997E+02  0.45594000000E+02  0.51100000000E-03 0. -1.
    9900012    2    1    2    0    0  0.16497761734E+02  0.23771333371E+02  0.34523341374E+02  0.46142317276E+02  0.99999955771E+01 0.  0.
         12    1    1    2    0    0 -0.16497761734E+02 -0.23771333371E+02 -0.34523341374E+02  0.45045682724E+02  0.00000000000E+00 0. -1.
         11    1    3    3    0    0  0.12095458190E+02  0.15106061961E+02  0.22184674115E+02  0.29438970475E+02  0.51100000000E-03 0.  1.
        -11    1    3    3    0    0 -0.48705380147E+00  0.52700688869E+00  0.40104915299E+01  0.40741870648E+01  0.51100000000E-03 0. -1.
        -12    1    3    3    0    0  0.48893573457E+01  0.81382645215E+01  0.83281757292E+01  0.12629159737E+02  0.00000000000E+00 0.  1.
</event>
<event>
 7    1  0.1503436E-008  0.4614232E+02  0.7816164E-02  0.1320468E+00
        -11   -1    0    0    0    0  0.00000000000E+00  0.00000000000E+00  0.45593999997E+02  0.45594000000E+02  0.51100000000E-03 0. -1.
         11   -1    0    0    0    0 -0.00000000000E+00 -0.00000000000E+00 -0.45593999997E+02  0.45594000000E+02  0.51100000000E-03 0.  1.
    9900012    2    1    2    0    0  0.21899779814E+02 -0.20983891630E+01 -0.39307885524E+02  0.46142318105E+02  0.10000003139E+02 0.  0.
         12    1    1    2    0    0 -0.21899779814E+02  0.20983891630E+01  0.39307885524E+02  0.45045681895E+02  0.00000000000E+00 0. -1.
         11    1    3    3    0    0  0.62317196048E+01  0.24693824298E+01 -0.15468369248E+02  0.16858310303E+02  0.51100000000E-03 0. -1.
        -11    1    3    3    0    0  0.99684685282E+01 -0.16541912255E+01 -0.10996455836E+02  0.14934147268E+02  0.51100000000E-03 0.  1.
        -12    1    3    3    0    0  0.56995916815E+01 -0.29135803673E+01 -0.12843060440E+02  0.14349860535E+02  0.00000000000E+00 0.  1.
</event>
<event>
 7    1  0.1503436E-008  0.4614232E+02  0.7816164E-02  0.1320468E+00
        -11   -1    0    0    0    0  0.00000000000E+00  0.00000000000E+00  0.45593999997E+02  0.45594000000E+02  0.51100000000E-03 0. -1.
         11   -1    0    0    0    0 -0.00000000000E+00 -0.00000000000E+00 -0.45593999997E+02  0.45594000000E+02  0.51100000000E-03 0.  1.
    9900012    2    1    2    0    0 -0.47568024927E+00 -0.36761594500E+02 -0.26028298803E+02  0.46142318293E+02  0.10000004848E+02 0.  0.
         12    1    1    2    0    0  0.47568024927E+00  0.36761594500E+02  0.26028298803E+02  0.45045681707E+02  0.00000000000E+00 0. -1.
         11    1    3    3    0    0  0.22910844697E+01 -0.78704383416E+01 -0.26148374263E+01  0.86040829124E+01  0.51100000000E-03 0. -1.
        -11    1    3    3    0    0 -0.37382684952E+01 -0.24423752674E+02 -0.18839829629E+02  0.31071426211E+02  0.51100000000E-03 0.  1.
        -12    1    3    3    0    0  0.97150377620E+00 -0.44674034844E+01 -0.45736317471E+01  0.64668091697E+01  0.00000000000E+00 0.  1.
</event>
<event>
 7    1  0.1503436E-008  0.4614232E+02  0.7816164E-02  0.1320468E+00
        -11   -1    0    0    0    0  0.00000000000E+00  0.00000000000E+00  0.45593999997E+02  0.45594000000E+02  0.51100000000E-03 0.  1.
         11   -1    0    0    0    0 -0.00000000000E+00 -0.00000000000E+00 -0.45593999997E+02  0.45594000000E+02  0.51100000000E-03 0. -1.
    9900012    2    1    2    0    0 -0.10481120019E+02  0.42100456204E+02  0.12116569055E+02  0.46142317243E+02  0.99999952709E+01 0.  0.
         12    1    1    2    0    0  0.10481120019E+02 -0.42100456204E+02 -0.12116569055E+02  0.45045682757E+02  0.00000000000E+00 0. -1.
         11    1    3    3    0    0  0.14959716849E+01  0.54554151092E+01  0.14531078882E+01  0.58404630032E+01  0.51100000000E-03 0. -1.
        -11    1    3    3    0    0 -0.90509006192E+01  0.30041674235E+02  0.67736515708E+01  0.32098338722E+02  0.51100000000E-03 0.  1.
         12    1    3    3    0    0 -0.29261910849E+01  0.66033668597E+01  0.38898095957E+01  0.82035155171E+01  0.00000000000E+00 0. -1.
</event>
<event>
 7    1  0.1503436E-008  0.4614232E+02  0.7816164E-02  0.1320468E+00
        -11   -1    0    0    0    0  0.00000000000E+00  0.00000000000E+00  0.45593999997E+02  0.45594000000E+02  0.51100000000E-03 0.  1.
         11   -1    0    0    0    0 -0.00000000000E+00 -0.00000000000E+00 -0.45593999997E+02  0.45594000000E+02  0.51100000000E-03 0. -1.
    9900012    2    1    2    0    0  0.21325434750E+02 -0.16210658156E+02  0.36215382043E+02  0.46142317614E+02  0.99999986559E+01 0.  0.
         12    1    1    2    0    0 -0.21325434750E+02  0.16210658156E+02 -0.36215382043E+02  0.45045682386E+02  0.00000000000E+00 0. -1.
         11    1    3    3    0    0  0.64654423076E+01 -0.58158648275E+01  0.66118721174E+01  0.10924425893E+02  0.51100000000E-03 0. -1.
        -11    1    3    3    0    0  0.79072912794E+01 -0.75630381838E+01  0.12971702456E+02  0.16970264194E+02  0.51100000000E-03 0.  1.
        -12    1    3    3    0    0  0.69527011632E+01 -0.28317551444E+01  0.16631807469E+02  0.18247627527E+02  0.00000000000E+00 0.  1.
</event>
<event>
 7    1  0.1503436E-008  0.4614232E+02  0.7816164E-02  0.1320468E+00
        -11   -1    0    0    0    0  0.00000000000E+00  0.00000000000E+00  0.45593999997E+02  0.45594000000E+02  0.51100000000E-03 0.  1.
         11   -1    0    0    0    0 -0.00000000000E+00 -0.00000000000E+00 -0.45593999997E+02  0.45594000000E+02  0.51100000000E-03 0. -1.
    9900012    2    1    2    0    0  0.35319191188E+02  0.10989224463E+02  0.25708076572E+02  0.46142317393E+02  0.99999966446E+01 0.  0.
         12    1    1    2    0    0 -0.35319191188E+02 -0.10989224463E+02 -0.25708076572E+02  0.45045682607E+02  0.00000000000E+00 0. -1.
         11    1    3    3    0    0  0.62226393183E+01 -0.56715594866E+00  0.69719194624E+01  0.93621881634E+01  0.51100000000E-03 0. -1.
        -11    1    3    3    0    0  0.14995785036E+02  0.35884856938E+01  0.82770196058E+01  0.17500281490E+02  0.51100000000E-03 0.  1.
        -12    1    3    3    0    0  0.14100766834E+02  0.79678947176E+01  0.10459137503E+02  0.19279847740E+02  0.00000000000E+00 0.  1.
</event>
<event>
 7    1  0.1503436E-008  0.4614232E+02  0.7816164E-02  0.1320468E+00
        -11   -1    0    0    0    0  0.00000000000E+00  0.00000000000E+00  0.45593999997E+02  0.45594000000E+02  0.51100000000E-03 0. -1.
         11   -1    0    0    0    0 -0.00000000000E+00 -0.00000000000E+00 -0.45593999997E+02  0.45594000000E+02  0.51100000000E-03 0.  1.
    9900012    2    1    2    0    0  0.39430379856E+02 -0.20576088916E+02 -0.71402598498E+01  0.46142316506E+02  0.99999885582E+01 0.  0.
         12    1    1    2    0    0 -0.39430379856E+02  0.20576088916E+02  0.71402598498E+01  0.45045683494E+02  0.00000000000E+00 0. -1.
         11    1    3    3    0    0  0.39858905094E+01 -0.48900788030E+01  0.92724167007E-01  0.63094208834E+01  0.51100000000E-03 0. -1.
        -11    1    3    3    0    0  0.19775214076E+01 -0.22809466222E+01 -0.13390081809E+01  0.33024614427E+01  0.51100000000E-03 0.  1.
        -12    1    3    3    0    0  0.33466967939E+02 -0.13405063491E+02 -0.58939758358E+01  0.36530434180E+02  0.00000000000E+00 0.  1.
</event>
<event>
 7    1  0.1503436E-008  0.4614232E+02  0.7816164E-02  0.1320468E+00
        -11   -1    0    0    0    0  0.00000000000E+00  0.00000000000E+00  0.45593999997E+02  0.45594000000E+02  0.51100000000E-03 0.  1.
         11   -1    0    0    0    0 -0.00000000000E+00 -0.00000000000E+00 -0.45593999997E+02  0.45594000000E+02  0.51100000000E-03 0. -1.
    9900012    2    1    2    0    0  0.38079458851E+02 -0.17837383560E+02  0.16152275723E+02  0.46142318190E+02  0.10000003915E+02 0.  0.
         12    1    1    2    0    0 -0.38079458851E+02  0.17837383560E+02 -0.16152275723E+02  0.45045681810E+02  0.00000000000E+00 0. -1.
         11    1    3    3    0    0  0.26385354998E+02 -0.95251845962E+01  0.13921689340E+02  0.31316601576E+02  0.51100000000E-03 0. -1.
        -11    1    3    3    0    0  0.31176362917E+01 -0.12982679111E+01  0.15768364128E+01  0.37271395131E+01  0.51100000000E-03 0.  1.
         12    1    3    3    0    0  0.85764675615E+01 -0.70139310525E+01  0.65374997072E+00  0.11098577101E+02  0.00000000000E+00 0. -1.
</event>
<event>
 7    1  0.1503436E-008  0.4614232E+02  0.7816164E-02  0.1320468E+00
        -11   -1    0    0    0    0  0.00000000000E+00  0.00000000000E+00  0.45593999997E+02  0.45594000000E+02  0.51100000000E-03 0.  1.
         11   -1    0    0    0    0 -0.00000000000E+00 -0.00000000000E+00 -0.45593999997E+02  0.45594000000E+02  0.51100000000E-03 0. -1.
    9900012    2    1    2    0    0  0.11076567190E+02  0.86486708793E+00  0.43654039552E+02  0.46142317577E+02  0.99999983183E+01 0.  0.
         12    1    1    2    0    0 -0.11076567190E+02 -0.86486708793E+00 -0.43654039552E+02  0.45045682423E+02  0.00000000000E+00 0. -1.
         11    1    3    3    0    0  0.16860468085E+01  0.37090709507E+01  0.84730450138E+01  0.94017260769E+01  0.51100000000E-03 0. -1.
        -11    1    3    3    0    0  0.51830884185E+01 -0.35401047327E+01  0.19171555644E+02  0.20172885097E+02  0.51100000000E-03 0.  1.
         12    1    3    3    0    0  0.42074319630E+01  0.69590086998E+00  0.16009438894E+02  0.16567706403E+02  0.00000000000E+00 0. -1.
</event>
<event>
 7    1  0.1503436E-008  0.4614232E+02  0.7816164E-02  0.1320468E+00
        -11   -1    0    0    0    0  0.00000000000E+00  0.00000000000E+00  0.45593999997E+02  0.45594000000E+02  0.51100000000E-03 0.  1.
         11   -1    0    0    0    0 -0.00000000000E+00 -0.00000000000E+00 -0.45593999997E+02  0.45594000000E+02  0.51100000000E-03 0. -1.
    9900012    2    1    2    0    0 -0.10836604336E+02  0.42031998707E+02  0.12041285354E+02  0.46142318056E+02  0.10000002690E+02 0.  0.
         12    1    1    2    0    0  0.10836604336E+02 -0.42031998707E+02 -0.12041285354E+02  0.45045681944E+02  0.00000000000E+00 0. -1.
         11    1    3    3    0    0 -0.36898223320E+01  0.61029353428E+01  0.50041274589E+01  0.87121696796E+01  0.51100000000E-03 0. -1.
        -11    1    3    3    0    0 -0.34097695342E+01  0.22448735292E+02  0.32482433686E+01  0.22937378440E+02  0.51100000000E-03 0.  1.
         12    1    3    3    0    0 -0.37370124695E+01  0.13480328072E+02  0.37889145269E+01  0.14492769936E+02  0.00000000000E+00 0. -1.
</event>
<event>
 7    1  0.1503436E-008  0.4614232E+02  0.7816164E-02  0.1320468E+00
        -11   -1    0    0    0    0  0.00000000000E+00  0.00000000000E+00  0.45593999997E+02  0.45594000000E+02  0.51100000000E-03 0.  1.
         11   -1    0    0    0    0 -0.00000000000E+00 -0.00000000000E+00 -0.45593999997E+02  0.45594000000E+02  0.51100000000E-03 0. -1.
    9900012    2    1    2    0    0 -0.65387087748E+01 -0.16996810722E+02  0.41200329079E+02  0.46142318704E+02  0.10000008600E+02 0.  0.
         12    1    1    2    0    0  0.65387087748E+01  0.16996810722E+02 -0.41200329079E+02  0.45045681296E+02  0.00000000000E+00 0. -1.
         11    1    3    3    0    0  0.20125737323E+01 -0.29056348170E+01  0.65750406270E+01  0.74648728205E+01  0.51100000000E-03 0. -1.
        -11    1    3    3    0    0 -0.21275488953E+01 -0.77204579443E+01  0.13502577656E+02  0.15698775073E+02  0.51100000000E-03 0.  1.
         12    1    3    3    0    0 -0.64237336118E+01 -0.63707179603E+01  0.21122710796E+02  0.22978670811E+02  0.00000000000E+00 0. -1.
</event>
<event>
 7    1  0.1503436E-008  0.4614232E+02  0.7816164E-02  0.1320468E+00
        -11   -1    0    0    0    0  0.00000000000E+00  0.00000000000E+00  0.45593999997E+02  0.45594000000E+02  0.51100000000E-03 0.  1.
         11   -1    0    0    0    0 -0.00000000000E+00 -0.00000000000E+00 -0.45593999997E+02  0.45594000000E+02  0.51100000000E-03 0. -1.
    9900012    2    1    2    0    0  0.27161751907E+02  0.15871507279E+02  0.32240471435E+02  0.46142317540E+02  0.99999979826E+01 0.  0.
         12    1    1    2    0    0 -0.27161751907E+02 -0.15871507279E+02 -0.32240471435E+02  0.45045682460E+02  0.00000000000E+00 0. -1.
         11    1    3    3    0    0  0.49610023008E+01  0.57702289490E+01  0.11710580724E+02  0.13965843587E+02  0.51100000000E-03 0. -1.
        -11    1    3    3    0    0  0.15721499498E+02  0.71114071622E+01  0.11813258094E+02  0.20911497444E+02  0.51100000000E-03 0.  1.
         12    1    3    3    0    0  0.64792501085E+01  0.29898711677E+01  0.87166326169E+01  0.11264976509E+02  0.00000000000E+00 0. -1.
</event>
<event>
 7    1  0.1503436E-008  0.4614232E+02  0.7816164E-02  0.1320468E+00
        -11   -1    0    0    0    0  0.00000000000E+00  0.00000000000E+00  0.45593999997E+02  0.45594000000E+02  0.51100000000E-03 0. -1.
         11   -1    0    0    0    0 -0.00000000000E+00 -0.00000000000E+00 -0.45593999997E+02  0.45594000000E+02  0.51100000000E-03 0.  1.
    9900012    2    1    2    0    0 -0.27384457519E+02 -0.35695642866E+02 -0.22418937278E+01  0.46142317402E+02  0.99999967270E+01 0.  0.
         12    1    1    2    0    0  0.27384457519E+02  0.35695642866E+02  0.22418937278E+01  0.45045682598E+02  0.00000000000E+00 0. -1.
         11    1    3    3    0    0 -0.18698593614E+01 -0.42778797471E+01 -0.25282935423E+01  0.53093217702E+01  0.51100000000E-03 0. -1.
        -11    1    3    3    0    0 -0.16311514577E+02 -0.22120230096E+02  0.23701291171E+01  0.27586003690E+02  0.51100000000E-03 0.  1.
        -12    1    3    3    0    0 -0.92030835814E+01 -0.92975330225E+01 -0.20837293026E+01  0.13246991942E+02  0.00000000000E+00 0.  1.
</event>
<event>
 7    1  0.1503436E-008  0.4614232E+02  0.7816164E-02  0.1320468E+00
        -11   -1    0    0    0    0  0.00000000000E+00  0.00000000000E+00  0.45593999997E+02  0.45594000000E+02  0.51100000000E-03 0.  1.
         11   -1    0    0    0    0 -0.00000000000E+00 -0.00000000000E+00 -0.45593999997E+02  0.45594000000E+02  0.51100000000E-03 0. -1.
    9900012    2    1    2    0    0 -0.37133942888E+02 -0.20984148495E+02 -0.14486176244E+02  0.46142317581E+02  0.99999983579E+01 0.  0.
         12    1    1    2    0    0  0.37133942888E+02  0.20984148495E+02  0.14486176244E+02  0.45045682419E+02  0.00000000000E+00 0. -1.
         11    1    3    3    0    0 -0.12839381457E+02 -0.97410433124E+01 -0.11313080149E+01  0.16156035996E+02  0.51100000000E-03 0. -1.
        -11    1    3    3    0    0 -0.13407260878E+02 -0.52730452923E+01 -0.78109213094E+01  0.16388109802E+02  0.51100000000E-03 0.  1.
        -12    1    3    3    0    0 -0.10887300552E+02 -0.59700598899E+01 -0.55439469193E+01  0.13598171783E+02  0.00000000000E+00 0.  1.
</event>
<event>
 7    1  0.1503436E-008  0.4614232E+02  0.7816164E-02  0.1320468E+00
        -11   -1    0    0    0    0  0.00000000000E+00  0.00000000000E+00  0.45593999997E+02  0.45594000000E+02  0.51100000000E-03 0.  1.
         11   -1    0    0    0    0 -0.00000000000E+00 -0.00000000000E+00 -0.45593999997E+02  0.45594000000E+02  0.51100000000E-03 0. -1.
    9900012    2    1    2    0    0 -0.20548361932E+02 -0.34648684621E+02 -0.20158050263E+02  0.46142317472E+02  0.99999973598E+01 0.  0.
         12    1    1    2    0    0  0.20548361932E+02  0.34648684621E+02  0.20158050263E+02  0.45045682528E+02  0.00000000000E+00 0. -1.
         11    1    3    3    0    0 -0.32538294702E+01 -0.10290457261E+02 -0.16962345301E+01  0.10925114585E+02  0.51100000000E-03 0. -1.
        -11    1    3    3    0    0 -0.12126459942E+02 -0.18118467483E+02 -0.12249701549E+02  0.25007700473E+02  0.51100000000E-03 0.  1.
         12    1    3    3    0    0 -0.51680725193E+01 -0.62397598774E+01 -0.62121141834E+01  0.10209502413E+02  0.00000000000E+00 0. -1.
</event>
<event>
 7    1  0.1503436E-008  0.4614232E+02  0.7816164E-02  0.1320468E+00
        -11   -1    0    0    0    0  0.00000000000E+00  0.00000000000E+00  0.45593999997E+02  0.45594000000E+02  0.51100000000E-03 0.  1.
         11   -1    0    0    0    0 -0.00000000000E+00 -0.00000000000E+00 -0.45593999997E+02  0.45594000000E+02  0.51100000000E-03 0. -1.
    9900012    2    1    2    0    0  0.20377703324E+02  0.37427953780E+02  0.14594895176E+02  0.46142317830E+02  0.10000000630E+02 0.  0.
         12    1    1    2    0    0 -0.20377703324E+02 -0.37427953780E+02 -0.14594895176E+02  0.45045682170E+02  0.00000000000E+00 0. -1.
         11    1    3    3    0    0  0.10201475879E+02  0.12547873186E+02  0.46075970895E+01  0.16815147422E+02  0.51100000000E-03 0. -1.
        -11    1    3    3    0    0  0.57848050755E+01  0.11346413903E+02  0.77919592632E+01  0.14930495894E+02  0.51100000000E-03 0.  1.
         12    1    3    3    0    0  0.43914223694E+01  0.13533666691E+02  0.21953388233E+01  0.14396674514E+02  0.00000000000E+00 0. -1.
</event>
<event>
 7    1  0.1503436E-008  0.4614232E+02  0.7816164E-02  0.1320468E+00
        -11   -1    0    0    0    0  0.00000000000E+00  0.00000000000E+00  0.45593999997E+02  0.45594000000E+02  0.51100000000E-03 0.  1.
         11   -1    0    0    0    0 -0.00000000000E+00 -0.00000000000E+00 -0.45593999997E+02  0.45594000000E+02  0.51100000000E-03 0. -1.
    9900012    2    1    2    0    0  0.12789698442E+02  0.25816073970E+02  0.34627553477E+02  0.46142317396E+02  0.99999966715E+01 0.  0.
         12    1    1    2    0    0 -0.12789698442E+02 -0.25816073970E+02 -0.34627553477E+02  0.45045682604E+02  0.00000000000E+00 0. -1.
         11    1    3    3    0    0  0.49972847933E+01  0.34031563715E+01  0.10759318210E+02  0.12341687777E+02  0.51100000000E-03 0. -1.
        -11    1    3    3    0    0  0.28113340262E+01  0.12678900139E+02  0.13484226338E+02  0.18721176991E+02  0.51100000000E-03 0.  1.
        -12    1    3    3    0    0  0.49810796226E+01  0.97340174594E+01  0.10384008929E+02  0.15079452628E+02  0.00000000000E+00 0.  1.
</event>
<event>
 7    1  0.1503436E-008  0.4614230E+02  0.7816164E-02  0.1320468E+00
        -11   -1    0    0    0    0  0.00000000000E+00  0.00000000000E+00  0.45593999997E+02  0.45594000000E+02  0.51100000000E-03 0.  1.
         11   -1    0    0    0    0 -0.00000000000E+00 -0.00000000000E+00 -0.45593999997E+02  0.45594000000E+02  0.51100000000E-03 0. -1.
    9900012    2    1    2    0    0 -0.10723754154E+02  0.16984828998E+02  0.40319118843E+02  0.46142304717E+02  0.99998810544E+01 0.  0.
         12    1    1    2    0    0  0.10723754154E+02 -0.16984828998E+02 -0.40319118843E+02  0.45045695283E+02  0.00000000000E+00 0. -1.
         11    1    3    3    0    0 -0.85489635741E+00 -0.52939919934E+00  0.38440726152E+00  0.10765131202E+01  0.51100000000E-03 0. -1.
        -11    1    3    3    0    0 -0.73781179043E+01  0.15245255322E+02  0.36582594153E+02  0.40313032990E+02  0.51100000000E-03 0.  1.
        -12    1    3    3    0    0 -0.24907398924E+01  0.22689728763E+01  0.33521174285E+01  0.47527586073E+01  0.00000000000E+00 0.  1.
</event>
<event>
 7    1  0.1503436E-008  0.4614231E+02  0.7816164E-02  0.1320468E+00
        -11   -1    0    0    0    0  0.00000000000E+00  0.00000000000E+00  0.45593999997E+02  0.45594000000E+02  0.51100000000E-03 0. -1.
         11   -1    0    0    0    0 -0.00000000000E+00 -0.00000000000E+00 -0.45593999997E+02  0.45594000000E+02  0.51100000000E-03 0.  1.
    9900012    2    1    2    0    0 -0.24560287607E+01 -0.63484267318E+01 -0.44528409708E+02  0.46142313521E+02  0.99999613327E+01 0.  0.
         12    1    1    2    0    0  0.24560287607E+01  0.63484267318E+01  0.44528409708E+02  0.45045686479E+02  0.00000000000E+00 0. -1.
         11    1    3    3    0    0  0.20495489964E+01 -0.30857640825E+01 -0.23269633991E+02  0.23562649626E+02  0.51100000000E-03 0. -1.
        -11    1    3    3    0    0 -0.30810565403E+01 -0.37991998980E+01 -0.20043778406E+02  0.20632011107E+02  0.51100000000E-03 0.  1.
         12    1    3    3    0    0 -0.14245212167E+01  0.53653724871E+00 -0.12149973119E+01  0.19476527883E+01  0.00000000000E+00 0. -1.
</event>
<event>
 7    1  0.1503436E-008  0.4614232E+02  0.7816164E-02  0.1320468E+00
        -11   -1    0    0    0    0  0.00000000000E+00  0.00000000000E+00  0.45593999997E+02  0.45594000000E+02  0.51100000000E-03 0.  1.
         11   -1    0    0    0    0 -0.00000000000E+00 -0.00000000000E+00 -0.45593999997E+02  0.45594000000E+02  0.51100000000E-03 0. -1.
    9900012    2    1    2    0    0  0.22852121013E+02 -0.37613912568E+02 -0.95962280710E+01  0.46142318224E+02  0.10000004221E+02 0.  0.
         12    1    1    2    0    0 -0.22852121013E+02  0.37613912568E+02  0.95962280710E+01  0.45045681776E+02  0.00000000000E+00 0. -1.
         11    1    3    3    0    0  0.46521722033E+01 -0.24019457760E+01 -0.25626863156E+01  0.58291861467E+01  0.51100000000E-03 0. -1.
        -11    1    3    3    0    0  0.13723887232E+02 -0.28344316707E+02 -0.58463519340E+01  0.32030067148E+02  0.51100000000E-03 0.  1.
        -12    1    3    3    0    0  0.44760615783E+01 -0.68676500851E+01 -0.11871898214E+01  0.82830649289E+01  0.00000000000E+00 0.  1.
</event>
<event>
 7    1  0.1503436E-008  0.4614232E+02  0.7816164E-02  0.1320468E+00
        -11   -1    0    0    0    0  0.00000000000E+00  0.00000000000E+00  0.45593999997E+02  0.45594000000E+02  0.51100000000E-03 0.  1.
         11   -1    0    0    0    0 -0.00000000000E+00 -0.00000000000E+00 -0.45593999997E+02  0.45594000000E+02  0.51100000000E-03 0. -1.
    9900012    2    1    2    0    0 -0.39515711123E+01 -0.11238466120E+02  0.43441862968E+02  0.46142317709E+02  0.99999995233E+01 0.  0.
         12    1    1    2    0    0  0.39515711123E+01  0.11238466120E+02 -0.43441862968E+02  0.45045682291E+02  0.00000000000E+00 0. -1.
         11    1    3    3    0    0  0.66651296275E+00 -0.44550038351E+01  0.89582914087E+01  0.10027077537E+02  0.51100000000E-03 0. -1.
        -11    1    3    3    0    0  0.59890182818E+00 -0.11844033687E+01  0.16728923534E+02  0.16781489136E+02  0.51100000000E-03 0.  1.
        -12    1    3    3    0    0 -0.52169859033E+01 -0.55990589160E+01  0.17754648024E+02  0.19333751036E+02  0.00000000000E+00 0.  1.
</event>
<event>
 7    1  0.1503436E-008  0.4614232E+02  0.7816164E-02  0.1320468E+00
        -11   -1    0    0    0    0  0.00000000000E+00  0.00000000000E+00  0.45593999997E+02  0.45594000000E+02  0.51100000000E-03 0.  1.
         11   -1    0    0    0    0 -0.00000000000E+00 -0.00000000000E+00 -0.45593999997E+02  0.45594000000E+02  0.51100000000E-03 0. -1.
    9900012    2    1    2    0    0  0.21865150762E+02 -0.40983836077E+01  0.39169272426E+02  0.46142317983E+02  0.10000002022E+02 0.  0.
         12    1    1    2    0    0 -0.21865150762E+02  0.40983836077E+01 -0.39169272426E+02  0.45045682017E+02  0.00000000000E+00 0. -1.
         11    1    3    3    0    0  0.81549102191E+00 -0.12041892124E+01  0.26301311229E+01  0.30054429376E+01  0.51100000000E-03 0. -1.
        -11    1    3    3    0    0  0.18207627970E+02 -0.50807187981E+01  0.33365968650E+02  0.38348654266E+02  0.51100000000E-03 0.  1.
        -12    1    3    3    0    0  0.28420317702E+01  0.21865244027E+01  0.31731726522E+01  0.47882207789E+01  0.00000000000E+00 0.  1.
</event>
<event>
 7    1  0.1503436E-008  0.4614232E+02  0.7816164E-02  0.1320468E+00
        -11   -1    0    0    0    0  0.00000000000E+00  0.00000000000E+00  0.45593999997E+02  0.45594000000E+02  0.51100000000E-03 0. -1.
         11   -1    0    0    0    0 -0.00000000000E+00 -0.00000000000E+00 -0.45593999997E+02  0.45594000000E+02  0.51100000000E-03 0.  1.
    9900012    2    1    2    0    0  0.21242346155E+02  0.38783280875E+02 -0.85868104100E+01  0.46142318091E+02  0.10000003010E+02 0.  0.
         12    1    1    2    0    0 -0.21242346155E+02 -0.38783280875E+02  0.85868104100E+01  0.45045681909E+02  0.00000000000E+00 0. -1.
         11    1    3    3    0    0  0.16448860529E+02  0.28157169626E+02 -0.87258693288E+01  0.33756954984E+02  0.51100000000E-03 0.  1.
        -11    1    3    3    0    0  0.22891718460E+01  0.87950564239E+01  0.10588664027E+01  0.91495641186E+01  0.51100000000E-03 0. -1.
        -12    1    3    3    0    0  0.25043137800E+01  0.18310548258E+01 -0.91980748384E+00  0.32357989881E+01  0.00000000000E+00 0.  1.
</event>
<event>
 7    1  0.1503436E-008  0.4614232E+02  0.7816164E-02  0.1320468E+00
        -11   -1    0    0    0    0  0.00000000000E+00  0.00000000000E+00  0.45593999997E+02  0.45594000000E+02  0.51100000000E-03 0.  1.
         11   -1    0    0    0    0 -0.00000000000E+00 -0.00000000000E+00 -0.45593999997E+02  0.45594000000E+02  0.51100000000E-03 0. -1.
    9900012    2    1    2    0    0 -0.26595697260E+02 -0.24949797110E+02  0.26444092828E+02  0.46142317254E+02  0.99999953776E+01 0.  0.
         12    1    1    2    0    0  0.26595697260E+02  0.24949797110E+02 -0.26444092828E+02  0.45045682746E+02  0.00000000000E+00 0. -1.
         11    1    3    3    0    0 -0.11949240948E+02 -0.61164920147E+01  0.84460965597E+01  0.15859772418E+02  0.51100000000E-03 0. -1.
        -11    1    3    3    0    0 -0.85408992076E+01 -0.14618020031E+02  0.12255263908E+02  0.20900357955E+02  0.51100000000E-03 0.  1.
        -12    1    3    3    0    0 -0.61055571038E+01 -0.42152850638E+01  0.57427323598E+01  0.93821868812E+01  0.00000000000E+00 0.  1.
</event>
<event>
 7    1  0.1503436E-008  0.4614232E+02  0.7816164E-02  0.1320468E+00
        -11   -1    0    0    0    0  0.00000000000E+00  0.00000000000E+00  0.45593999997E+02  0.45594000000E+02  0.51100000000E-03 0.  1.
         11   -1    0    0    0    0 -0.00000000000E+00 -0.00000000000E+00 -0.45593999997E+02  0.45594000000E+02  0.51100000000E-03 0. -1.
    9900012    2    1    2    0    0  0.26629202814E+02  0.16797247652E+02  0.32215702754E+02  0.46142317908E+02  0.10000001339E+02 0.  0.
         12    1    1    2    0    0 -0.26629202814E+02 -0.16797247652E+02 -0.32215702754E+02  0.45045682092E+02  0.00000000000E+00 0. -1.
         11    1    3    3    0    0  0.84886126662E+01  0.64538616943E+01  0.16345320819E+02  0.19516105880E+02  0.51100000000E-03 0. -1.
        -11    1    3    3    0    0  0.39048093316E+01  0.48120319593E+00  0.18671758049E+01  0.43549326263E+01  0.51100000000E-03 0.  1.
        -12    1    3    3    0    0  0.14235780816E+02  0.98621827621E+01  0.14003206130E+02  0.22271279402E+02  0.00000000000E+00 0.  1.
</event>
<event>
 7    1  0.1503436E-008  0.4614232E+02  0.7816164E-02  0.1320468E+00
        -11   -1    0    0    0    0  0.00000000000E+00  0.00000000000E+00  0.45593999997E+02  0.45594000000E+02  0.51100000000E-03 0.  1.
         11   -1    0    0    0    0 -0.00000000000E+00 -0.00000000000E+00 -0.45593999997E+02  0.45594000000E+02  0.51100000000E-03 0. -1.
    9900012    2    1    2    0    0  0.59993341932E+01 -0.68585861967E+01  0.44114410856E+02  0.46142318069E+02  0.10000002811E+02 0.  0.
         12    1    1    2    0    0 -0.59993341932E+01  0.68585861967E+01 -0.44114410856E+02  0.45045681931E+02  0.00000000000E+00 0. -1.
         11    1    3    3    0    0  0.19319967902E+00 -0.26454735334E+01  0.88368899906E+01  0.92264013190E+01  0.51100000000E-03 0. -1.
        -11    1    3    3    0    0  0.48356520968E+01  0.13181028923E+01  0.20594846283E+02  0.21195957637E+02  0.51100000000E-03 0.  1.
        -12    1    3    3    0    0  0.97048241730E+00 -0.55312155555E+01  0.14682674583E+02  0.15719959114E+02  0.00000000000E+00 0.  1.
</event>
<event>
 7    1  0.1503436E-008  0.4614232E+02  0.7816164E-02  0.1320468E+00
        -11   -1    0    0    0    0  0.00000000000E+00  0.00000000000E+00  0.45593999997E+02  0.45594000000E+02  0.51100000000E-03 0.  1.
         11   -1    0    0    0    0 -0.00000000000E+00 -0.00000000000E+00 -0.45593999997E+02  0.45594000000E+02  0.51100000000E-03 0. -1.
    9900012    2    1    2    0    0 -0.13048587307E+02  0.11214222611E+02  0.41630385841E+02  0.46142318246E+02  0.10000004418E+02 0.  0.
         12    1    1    2    0    0  0.13048587307E+02 -0.11214222611E+02 -0.41630385841E+02  0.45045681754E+02  0.00000000000E+00 0. -1.
         11    1    3    3    0    0 -0.72996718224E+01  0.23887936439E+01  0.15028952390E+02  0.16877824327E+02  0.51100000000E-03 0. -1.
        -11    1    3    3    0    0 -0.43725092395E+01  0.77505903086E+01  0.25893692932E+02  0.27380172043E+02  0.51100000000E-03 0.  1.
        -12    1    3    3    0    0 -0.13764062447E+01  0.10748386583E+01  0.70774051874E+00  0.18843218763E+01  0.00000000000E+00 0.  1.
</event>
<event>
 7    1  0.1503436E-008  0.4614232E+02  0.7816164E-02  0.1320468E+00
        -11   -1    0    0    0    0  0.00000000000E+00  0.00000000000E+00  0.45593999997E+02  0.45594000000E+02  0.51100000000E-03 0.  1.
         11   -1    0    0    0    0 -0.00000000000E+00 -0.00000000000E+00 -0.45593999997E+02  0.45594000000E+02  0.51100000000E-03 0. -1.
    9900012    2    1    2    0    0 -0.11254393866E+02  0.25089259995E+02  0.35678861147E+02  0.46142317841E+02  0.10000000730E+02 0.  0.
         12    1    1    2    0    0  0.11254393866E+02 -0.25089259995E+02 -0.35678861147E+02  0.45045682159E+02  0.00000000000E+00 0. -1.
         11    1    3    3    0    0 -0.25005960213E+01  0.12567650580E+02  0.16525108897E+02  0.20911194272E+02  0.51100000000E-03 0.  1.
        -11    1    3    3    0    0 -0.32697190933E+01  0.63666856537E+01  0.13355953318E+02  0.15152796391E+02  0.51100000000E-03 0. -1.
         12    1    3    3    0    0 -0.54840787517E+01  0.61549237614E+01  0.57977989327E+01  0.10078327179E+02  0.00000000000E+00 0. -1.
</event>
<event>
 7    1  0.1503436E-008  0.4614232E+02  0.7816164E-02  0.1320468E+00
        -11   -1    0    0    0    0  0.00000000000E+00  0.00000000000E+00  0.45593999997E+02  0.45594000000E+02  0.51100000000E-03 0.  1.
         11   -1    0    0    0    0 -0.00000000000E+00 -0.00000000000E+00 -0.45593999997E+02  0.45594000000E+02  0.51100000000E-03 0. -1.
    9900012    2    1    2    0    0  0.27769419700E+01 -0.14339068079E+02  0.42612126709E+02  0.46142316270E+02  0.99999864009E+01 0.  0.
         12    1    1    2    0    0 -0.27769419700E+01  0.14339068079E+02 -0.42612126709E+02  0.45045683730E+02  0.00000000000E+00 0. -1.
         11    1    3    3    0    0  0.11015283058E+01  0.42275643588E+00  0.66018212945E+01  0.67064247016E+01  0.51100000000E-03 0. -1.
        -11    1    3    3    0    0  0.24663490229E+01 -0.13764042275E+02  0.35320593368E+02  0.37987840863E+02  0.51100000000E-03 0.  1.
         12    1    3    3    0    0 -0.79093535877E+00 -0.99778223967E+00  0.68971204602E+00  0.14480507056E+01  0.00000000000E+00 0. -1.
</event>
<event>
 7    1  0.1503436E-008  0.4614232E+02  0.7816164E-02  0.1320468E+00
        -11   -1    0    0    0    0  0.00000000000E+00  0.00000000000E+00  0.45593999997E+02  0.45594000000E+02  0.51100000000E-03 0.  1.
         11   -1    0    0    0    0 -0.00000000000E+00 -0.00000000000E+00 -0.45593999997E+02  0.45594000000E+02  0.51100000000E-03 0. -1.
    9900012    2    1    2    0    0  0.22109926233E+02 -0.84257173844E+01  0.38331081722E+02  0.46142318992E+02  0.10000011227E+02 0.  0.
         12    1    1    2    0    0 -0.22109926233E+02  0.84257173844E+01 -0.38331081722E+02  0.45045681008E+02  0.00000000000E+00 0. -1.
         11    1    3    3    0    0  0.12701022063E+02 -0.17738206205E+01  0.18515829465E+02  0.22523284443E+02  0.51100000000E-03 0. -1.
        -11    1    3    3    0    0  0.65347758359E+01 -0.35291777777E+01  0.16929225562E+02  0.18486672751E+02  0.51100000000E-03 0.  1.
        -12    1    3    3    0    0  0.28741283335E+01 -0.31227189862E+01  0.28860266944E+01  0.51323617980E+01  0.00000000000E+00 0.  1.
</event>
<event>
 7    1  0.1503436E-008  0.4614232E+02  0.7816164E-02  0.1320468E+00
        -11   -1    0    0    0    0  0.00000000000E+00  0.00000000000E+00  0.45593999997E+02  0.45594000000E+02  0.51100000000E-03 0. -1.
         11   -1    0    0    0    0 -0.00000000000E+00 -0.00000000000E+00 -0.45593999997E+02  0.45594000000E+02  0.51100000000E-03 0.  1.
    9900012    2    1    2    0    0 -0.62877802499E+01  0.44333089455E+02  0.49147283449E+01  0.46142317012E+02  0.99999931733E+01 0.  0.
         12    1    1    2    0    0  0.62877802499E+01 -0.44333089455E+02 -0.49147283449E+01  0.45045682988E+02  0.00000000000E+00 0. -1.
         11    1    3    3    0    0 -0.49249046202E+00  0.13311632100E+02  0.46547860432E+01  0.14110603438E+02  0.51100000000E-03 0. -1.
        -11    1    3    3    0    0  0.48055626585E-01  0.10179986282E+02  0.17747540733E+01  0.10333643226E+02  0.51100000000E-03 0.  1.
        -12    1    3    3    0    0 -0.58433454145E+01  0.20841471073E+02 -0.15148117716E+01  0.21698070348E+02  0.00000000000E+00 0.  1.
</event>
<event>
 7    1  0.1503436E-008  0.4614232E+02  0.7816164E-02  0.1320468E+00
        -11   -1    0    0    0    0  0.00000000000E+00  0.00000000000E+00  0.45593999997E+02  0.45594000000E+02  0.51100000000E-03 0. -1.
         11   -1    0    0    0    0 -0.00000000000E+00 -0.00000000000E+00 -0.45593999997E+02  0.45594000000E+02  0.51100000000E-03 0.  1.
    9900012    2    1    2    0    0  0.10057601505E+02 -0.15627662664E+01 -0.43880701205E+02  0.46142317358E+02  0.99999963207E+01 0.  0.
         12    1    1    2    0    0 -0.10057601505E+02  0.15627662664E+01  0.43880701205E+02  0.45045682642E+02  0.00000000000E+00 0. -1.
         11    1    3    3    0    0 -0.59176536203E+00  0.33299155932E+00 -0.93899909364E+00  0.11587878068E+01  0.51100000000E-03 0. -1.
        -11    1    3    3    0    0  0.66174094642E+01 -0.18111577722E+01 -0.37955405557E+02  0.38570496649E+02  0.51100000000E-03 0.  1.
        -12    1    3    3    0    0  0.40319574026E+01 -0.84600053525E-01 -0.49862965544E+01  0.64130329013E+01  0.00000000000E+00 0.  1.
</event>
<event>
 7    1  0.1503436E-008  0.4614232E+02  0.7816164E-02  0.1320468E+00
        -11   -1    0    0    0    0  0.00000000000E+00  0.00000000000E+00  0.45593999997E+02  0.45594000000E+02  0.51100000000E-03 0. -1.
         11   -1    0    0    0    0 -0.00000000000E+00 -0.00000000000E+00 -0.45593999997E+02  0.45594000000E+02  0.51100000000E-03 0.  1.
    9900012    2    1    2    0    0 -0.84380082207E+01  0.44049531780E+02  0.41895454643E+01  0.46142317366E+02  0.99999963981E+01 0.  0.
         12    1    1    2    0    0  0.84380082207E+01 -0.44049531780E+02 -0.41895454643E+01  0.45045682634E+02  0.00000000000E+00 0. -1.
         11    1    3    3    0    0 -0.58868147477E+01  0.10278368444E+02  0.14902577141E+01  0.11938187219E+02  0.51100000000E-03 0. -1.
        -11    1    3    3    0    0 -0.14238551816E+01  0.49889673711E+01  0.13851757033E+01  0.53699041889E+01  0.51100000000E-03 0.  1.
         12    1    3    3    0    0 -0.11273382914E+01  0.28782195965E+02  0.13141120468E+01  0.28834225959E+02  0.00000000000E+00 0. -1.
</event>
<event>
 7    1  0.1503436E-008  0.4614232E+02  0.7816164E-02  0.1320468E+00
        -11   -1    0    0    0    0  0.00000000000E+00  0.00000000000E+00  0.45593999997E+02  0.45594000000E+02  0.51100000000E-03 0.  1.
         11   -1    0    0    0    0 -0.00000000000E+00 -0.00000000000E+00 -0.45593999997E+02  0.45594000000E+02  0.51100000000E-03 0. -1.
    9900012    2    1    2    0    0  0.19655408401E+02  0.39943283986E+02  0.68784044376E+01  0.46142318047E+02  0.10000002611E+02 0.  0.
         12    1    1    2    0    0 -0.19655408401E+02 -0.39943283986E+02 -0.68784044376E+01  0.45045681953E+02  0.00000000000E+00 0. -1.
         11    1    3    3    0    0  0.67520919468E+01  0.17655087121E+02  0.54994572087E+01  0.19685956333E+02  0.51100000000E-03 0. -1.
        -11    1    3    3    0    0  0.11372887043E+02  0.21582370167E+02  0.23547569257E+01  0.24508899244E+02  0.51100000000E-03 0.  1.
         12    1    3    3    0    0  0.15304294109E+01  0.70582669842E+00 -0.97580969684E+00  0.19474624706E+01  0.00000000000E+00 0. -1.
</event>
<event>
 7    1  0.1503436E-008  0.4614232E+02  0.7816164E-02  0.1320468E+00
        -11   -1    0    0    0    0  0.00000000000E+00  0.00000000000E+00  0.45593999997E+02  0.45594000000E+02  0.51100000000E-03 0.  1.
         11   -1    0    0    0    0 -0.00000000000E+00 -0.00000000000E+00 -0.45593999997E+02  0.45594000000E+02  0.51100000000E-03 0. -1.
    9900012    2    1    2    0    0  0.12419868031E+01 -0.22214644011E+02  0.39167340381E+02  0.46142317718E+02  0.99999996069E+01 0.  0.
         12    1    1    2    0    0 -0.12419868031E+01  0.22214644011E+02 -0.39167340381E+02  0.45045682282E+02  0.00000000000E+00 0. -1.
         11    1    3    3    0    0 -0.33514534358E+01 -0.30423188928E+01  0.57628129671E+01  0.73278890502E+01  0.51100000000E-03 0. -1.
        -11    1    3    3    0    0  0.27355123428E+01 -0.13623858177E+02  0.24270823606E+02  0.27967220423E+02  0.51100000000E-03 0.  1.
         12    1    3    3    0    0  0.18579278960E+01 -0.55484669408E+01  0.91337038074E+01  0.10847208245E+02  0.00000000000E+00 0. -1.
</event>
<event>
 7    1  0.1503436E-008  0.4614232E+02  0.7816164E-02  0.1320468E+00
        -11   -1    0    0    0    0  0.00000000000E+00  0.00000000000E+00  0.45593999997E+02  0.45594000000E+02  0.51100000000E-03 0.  1.
         11   -1    0    0    0    0 -0.00000000000E+00 -0.00000000000E+00 -0.45593999997E+02  0.45594000000E+02  0.51100000000E-03 0. -1.
    9900012    2    1    2    0    0 -0.20882131696E+02  0.24462076621E+02  0.31538180932E+02  0.46142317929E+02  0.10000001527E+02 0.  0.
         12    1    1    2    0    0  0.20882131696E+02 -0.24462076621E+02 -0.31538180932E+02  0.45045682071E+02  0.00000000000E+00 0. -1.
         11    1    3    3    0    0 -0.12585563775E+01 -0.77046141820E+00  0.55638657369E+00  0.15770672886E+01  0.51100000000E-03 0. -1.
        -11    1    3    3    0    0 -0.17866958397E+02  0.23699272601E+02  0.29144552458E+02  0.41596738603E+02  0.51100000000E-03 0.  1.
         12    1    3    3    0    0 -0.17566169218E+01  0.15332654380E+01  0.18372419005E+01  0.29685120370E+01  0.00000000000E+00 0. -1.
</event>
<event>
 7    1  0.1503436E-008  0.4614232E+02  0.7816164E-02  0.1320468E+00
        -11   -1    0    0    0    0  0.00000000000E+00  0.00000000000E+00  0.45593999997E+02  0.45594000000E+02  0.51100000000E-03 0. -1.
         11   -1    0    0    0    0 -0.00000000000E+00 -0.00000000000E+00 -0.45593999997E+02  0.45594000000E+02  0.51100000000E-03 0.  1.
    9900012    2    1    2    0    0  0.82110404022E+01  0.32557252971E+02 -0.30028612873E+02  0.46142317670E+02  0.99999991680E+01 0.  0.
         12    1    1    2    0    0 -0.82110404022E+01 -0.32557252971E+02  0.30028612873E+02  0.45045682330E+02  0.00000000000E+00 0. -1.
         11    1    3    3    0    0  0.66990094483E+01  0.18882671249E+02 -0.14613442063E+02  0.24798884859E+02  0.51100000000E-03 0. -1.
        -11    1    3    3    0    0  0.16735030637E+01  0.14015794796E+02 -0.15492027321E+02  0.20958197133E+02  0.51100000000E-03 0.  1.
         12    1    3    3    0    0 -0.16147210985E+00 -0.34121307353E+00  0.76856511955E-01  0.38523567752E+00  0.00000000000E+00 0. -1.
</event>
<event>
 7    1  0.1503436E-008  0.4614232E+02  0.7816164E-02  0.1320468E+00
        -11   -1    0    0    0    0  0.00000000000E+00  0.00000000000E+00  0.45593999997E+02  0.45594000000E+02  0.51100000000E-03 0. -1.
         11   -1    0    0    0    0 -0.00000000000E+00 -0.00000000000E+00 -0.45593999997E+02  0.45594000000E+02  0.51100000000E-03 0.  1.
    9900012    2    1    2    0    0 -0.30124467302E+02 -0.22235327427E+01 -0.33416849591E+02  0.46142318024E+02  0.10000002397E+02 0.  0.
         12    1    1    2    0    0  0.30124467302E+02  0.22235327427E+01  0.33416849591E+02  0.45045681976E+02  0.00000000000E+00 0. -1.
         11    1    3    3    0    0 -0.79427210104E+01 -0.35321032329E+01 -0.60800210735E+01  0.10607979393E+02  0.51100000000E-03 0. -1.
        -11    1    3    3    0    0 -0.14641376363E+02  0.62578397176E+00 -0.21282930968E+02  0.25840368771E+02  0.51100000000E-03 0.  1.
        -12    1    3    3    0    0 -0.75403699291E+01  0.68278651843E+00 -0.60538975494E+01  0.96939698595E+01  0.00000000000E+00 0.  1.
</event>
<event>
 7    1  0.1503436E-008  0.4614232E+02  0.7816164E-02  0.1320468E+00
        -11   -1    0    0    0    0  0.00000000000E+00  0.00000000000E+00  0.45593999997E+02  0.45594000000E+02  0.51100000000E-03 0.  1.
         11   -1    0    0    0    0 -0.00000000000E+00 -0.00000000000E+00 -0.45593999997E+02  0.45594000000E+02  0.51100000000E-03 0. -1.
    9900012    2    1    2    0    0 -0.18745308630E+02  0.12214757725E+02  0.39096373723E+02  0.46142319405E+02  0.10000014994E+02 0.  0.
         12    1    1    2    0    0  0.18745308630E+02 -0.12214757725E+02 -0.39096373723E+02  0.45045680595E+02  0.00000000000E+00 0. -1.
         11    1    3    3    0    0 -0.10219637504E+02  0.98634149397E+01  0.21392366415E+02  0.25678031195E+02  0.51100000000E-03 0. -1.
        -11    1    3    3    0    0 -0.55496305163E+01  0.81731639099E+00  0.56808046762E+01  0.79836048863E+01  0.51100000000E-03 0.  1.
        -12    1    3    3    0    0 -0.29760406098E+01  0.15340263941E+01  0.12023202632E+02  0.12480683324E+02  0.00000000000E+00 0.  1.
</event>
<event>
 7    1  0.1503436E-008  0.4614232E+02  0.7816164E-02  0.1320468E+00
        -11   -1    0    0    0    0  0.00000000000E+00  0.00000000000E+00  0.45593999997E+02  0.45594000000E+02  0.51100000000E-03 0. -1.
         11   -1    0    0    0    0 -0.00000000000E+00 -0.00000000000E+00 -0.45593999997E+02  0.45594000000E+02  0.51100000000E-03 0.  1.
    9900012    2    1    2    0    0  0.18474104130E+02 -0.10776617179E+02 -0.39644489499E+02  0.46142317090E+02  0.99999938768E+01 0.  0.
         12    1    1    2    0    0 -0.18474104130E+02  0.10776617179E+02  0.39644489499E+02  0.45045682910E+02  0.00000000000E+00 0. -1.
         11    1    3    3    0    0  0.38818037857E+01  0.10314460227E+01 -0.80724471143E+01  0.90164673904E+01  0.51100000000E-03 0. -1.
        -11    1    3    3    0    0  0.13121345532E+02 -0.97193439020E+01 -0.23182869002E+02  0.28356317989E+02  0.51100000000E-03 0.  1.
        -12    1    3    3    0    0  0.14709548120E+01 -0.20887192996E+01 -0.83891733832E+01  0.87695317107E+01  0.00000000000E+00 0.  1.
</event>
<event>
 7    1  0.1503436E-008  0.4614232E+02  0.7816164E-02  0.1320468E+00
        -11   -1    0    0    0    0  0.00000000000E+00  0.00000000000E+00  0.45593999997E+02  0.45594000000E+02  0.51100000000E-03 0.  1.
         11   -1    0    0    0    0 -0.00000000000E+00 -0.00000000000E+00 -0.45593999997E+02  0.45594000000E+02  0.51100000000E-03 0. -1.
    9900012    2    1    2    0    0  0.12762690837E+02 -0.38235542867E+02  0.20106475626E+02  0.46142318988E+02  0.10000011187E+02 0.  0.
         12    1    1    2    0    0 -0.12762690837E+02  0.38235542867E+02 -0.20106475626E+02  0.45045681012E+02  0.00000000000E+00 0. -1.
         11    1    3    3    0    0 -0.78542650562E+00 -0.31379566930E+01  0.95862884752E+00  0.33738163156E+01  0.51100000000E-03 0. -1.
        -11    1    3    3    0    0  0.46076065575E+01 -0.63168226850E+01  0.19065935112E+01  0.80478187169E+01  0.51100000000E-03 0.  1.
        -12    1    3    3    0    0  0.89405107853E+01 -0.28780763489E+02  0.17241253267E+02  0.34720683955E+02  0.00000000000E+00 0.  1.
</event>
<event>
 7    1  0.1503436E-008  0.4614232E+02  0.7816164E-02  0.1320468E+00
        -11   -1    0    0    0    0  0.00000000000E+00  0.00000000000E+00  0.45593999997E+02  0.45594000000E+02  0.51100000000E-03 0. -1.
         11   -1    0    0    0    0 -0.00000000000E+00 -0.00000000000E+00 -0.45593999997E+02  0.45594000000E+02  0.51100000000E-03 0.  1.
    9900012    2    1    2    0    0  0.18066219147E+02  0.31449978501E+02 -0.26713743379E+02  0.46142317552E+02  0.99999980887E+01 0.  0.
         12    1    1    2    0    0 -0.18066219147E+02 -0.31449978501E+02  0.26713743379E+02  0.45045682448E+02  0.00000000000E+00 0. -1.
         11    1    3    3    0    0  0.65997276380E+01  0.50863841688E+01 -0.48523806663E+01  0.96422667045E+01  0.51100000000E-03 0. -1.
        -11    1    3    3    0    0  0.93395622273E+01  0.21231338086E+02 -0.20042053400E+02  0.30654217398E+02  0.51100000000E-03 0.  1.
         12    1    3    3    0    0  0.21269292816E+01  0.51322562456E+01 -0.18193093119E+01  0.58458334489E+01  0.00000000000E+00 0. -1.
</event>
<event>
 7    1  0.1503436E-008  0.4614232E+02  0.7816164E-02  0.1320468E+00
        -11   -1    0    0    0    0  0.00000000000E+00  0.00000000000E+00  0.45593999997E+02  0.45594000000E+02  0.51100000000E-03 0.  1.
         11   -1    0    0    0    0 -0.00000000000E+00 -0.00000000000E+00 -0.45593999997E+02  0.45594000000E+02  0.51100000000E-03 0. -1.
    9900012    2    1    2    0    0  0.65506452331E+01  0.44169082156E+02  0.59409338554E+01  0.46142318003E+02  0.10000002205E+02 0.  0.
         12    1    1    2    0    0 -0.65506452331E+01 -0.44169082156E+02 -0.59409338554E+01  0.45045681997E+02  0.00000000000E+00 0. -1.
         11    1    3    3    0    0  0.42122904595E+01  0.16236822621E+02  0.54308799564E+01  0.17631569899E+02  0.51100000000E-03 0.  1.
        -11    1    3    3    0    0 -0.84635503622E+00  0.19039542571E+02  0.17971646001E+00  0.19059191914E+02  0.51100000000E-03 0. -1.
         12    1    3    3    0    0  0.31847098098E+01  0.88927169649E+01  0.33033743891E+00  0.94515561901E+01  0.00000000000E+00 0. -1.
</event>
<event>
 7    1  0.1933086E-008  0.4614231E+02  0.7816164E-02  0.1320468E+00
        -11   -1    0    0    0    0  0.00000000000E+00  0.00000000000E+00  0.45593999997E+02  0.45594000000E+02  0.51100000000E-03 0. -1.
         11   -1    0    0    0    0 -0.00000000000E+00 -0.00000000000E+00 -0.45593999997E+02  0.45594000000E+02  0.51100000000E-03 0.  1.
    9900012    2    1    2    0    0  0.29772785744E+02 -0.42276401597E+01 -0.33538367185E+02  0.46142314460E+02  0.99999699017E+01 0.  0.
         12    1    1    2    0    0 -0.29772785744E+02  0.42276401597E+01  0.33538367185E+02  0.45045685540E+02  0.00000000000E+00 0. -1.
         11    1    3    3    0    0  0.37533230780E+01 -0.44240084640E+00 -0.65713256623E+00  0.38360104416E+01  0.51100000000E-03 0. -1.
        -11    1    3    3    0    0  0.17551829039E+02 -0.41083706005E+01 -0.24189199808E+02  0.30167247127E+02  0.51100000000E-03 0.  1.
        -12    1    3    3    0    0  0.84676336270E+01  0.32313128724E+00 -0.86920348105E+01  0.12139056892E+02  0.00000000000E+00 0.  1.
</event>
<event>
 7    1  0.1503436E-008  0.4614232E+02  0.7816164E-02  0.1320468E+00
        -11   -1    0    0    0    0  0.00000000000E+00  0.00000000000E+00  0.45593999997E+02  0.45594000000E+02  0.51100000000E-03 0. -1.
         11   -1    0    0    0    0 -0.00000000000E+00 -0.00000000000E+00 -0.45593999997E+02  0.45594000000E+02  0.51100000000E-03 0.  1.
    9900012    2    1    2    0    0 -0.43579866305E+02 -0.11391577421E+02  0.37504571859E+00  0.46142318269E+02  0.10000004634E+02 0.  0.
         12    1    1    2    0    0  0.43579866305E+02  0.11391577421E+02 -0.37504571859E+00  0.45045681731E+02  0.00000000000E+00 0. -1.
         11    1    3    3    0    0 -0.59690530195E+01  0.15011952165E+01 -0.10761542553E+01  0.62483029112E+01  0.51100000000E-03 0. -1.
        -11    1    3    3    0    0 -0.25870618430E+02 -0.80212300370E+01 -0.12498053476E+00  0.27085875464E+02  0.51100000000E-03 0.  1.
         12    1    3    3    0    0 -0.11740194855E+02 -0.48715426004E+01  0.15761805087E+01  0.12808139894E+02  0.00000000000E+00 0. -1.
</event>
<event>
 7    1  0.1503436E-008  0.4614232E+02  0.7816164E-02  0.1320468E+00
        -11   -1    0    0    0    0  0.00000000000E+00  0.00000000000E+00  0.45593999997E+02  0.45594000000E+02  0.51100000000E-03 0. -1.
         11   -1    0    0    0    0 -0.00000000000E+00 -0.00000000000E+00 -0.45593999997E+02  0.45594000000E+02  0.51100000000E-03 0.  1.
    9900012    2    1    2    0    0 -0.45108497687E+01  0.31244437796E+02 -0.32133329542E+02  0.46142317341E+02  0.99999961682E+01 0.  0.
         12    1    1    2    0    0  0.45108497687E+01 -0.31244437796E+02  0.32133329542E+02  0.45045682659E+02  0.00000000000E+00 0. -1.
         11    1    3    3    0    0 -0.49171158404E+00  0.19730908214E+01  0.19415027259E+00  0.20426850616E+01  0.51100000000E-03 0. -1.
        -11    1    3    3    0    0 -0.31231072027E+01  0.14295408172E+02 -0.19371847333E+02  0.24277169578E+02  0.51100000000E-03 0.  1.
         12    1    3    3    0    0 -0.89603098205E+00  0.14975938802E+02 -0.12955632481E+02  0.19822462701E+02  0.00000000000E+00 0. -1.
</event>
<event>
 7    1  0.1503436E-008  0.4614232E+02  0.7816164E-02  0.1320468E+00
        -11   -1    0    0    0    0  0.00000000000E+00  0.00000000000E+00  0.45593999997E+02  0.45594000000E+02  0.51100000000E-03 0.  1.
         11   -1    0    0    0    0 -0.00000000000E+00 -0.00000000000E+00 -0.45593999997E+02  0.45594000000E+02  0.51100000000E-03 0. -1.
    9900012    2    1    2    0    0 -0.22075557763E+02  0.29605220300E+02  0.25793684320E+02  0.46142317961E+02  0.10000001820E+02 0.  0.
         12    1    1    2    0    0  0.22075557763E+02 -0.29605220300E+02 -0.25793684320E+02  0.45045682039E+02  0.00000000000E+00 0. -1.
         11    1    3    3    0    0 -0.89965200578E+01  0.18746976771E+02  0.11870932232E+02  0.23943799688E+02  0.51100000000E-03 0. -1.
        -11    1    3    3    0    0 -0.12675872350E+02  0.10922949944E+02  0.12999639636E+02  0.21189129436E+02  0.51100000000E-03 0.  1.
         12    1    3    3    0    0 -0.40316535596E+00 -0.64706415221E-01  0.92311245210E+00  0.10093888367E+01  0.00000000000E+00 0. -1.
</event>
<event>
 7    1  0.1503436E-008  0.4614232E+02  0.7816164E-02  0.1320468E+00
        -11   -1    0    0    0    0  0.00000000000E+00  0.00000000000E+00  0.45593999997E+02  0.45594000000E+02  0.51100000000E-03 0.  1.
         11   -1    0    0    0    0 -0.00000000000E+00 -0.00000000000E+00 -0.45593999997E+02  0.45594000000E+02  0.51100000000E-03 0. -1.
    9900012    2    1    2    0    0  0.40297158196E+02  0.19462475455E+02  0.51443733475E+01  0.46142317780E+02  0.10000000176E+02 0.  0.
         12    1    1    2    0    0 -0.40297158196E+02 -0.19462475455E+02 -0.51443733475E+01  0.45045682220E+02  0.00000000000E+00 0. -1.
         11    1    3    3    0    0  0.10616190866E+02  0.43202097842E+01 -0.21016530470E+01  0.11652667801E+02  0.51100000000E-03 0. -1.
        -11    1    3    3    0    0  0.21451399055E+02  0.10472358740E+02  0.75072264773E+01  0.25023814031E+02  0.51100000000E-03 0.  1.
         12    1    3    3    0    0  0.82295682741E+01  0.46699069312E+01 -0.26120008283E+00  0.94658359486E+01  0.00000000000E+00 0. -1.
</event>
<event>
 7    1  0.1503436E-008  0.4614232E+02  0.7816164E-02  0.1320468E+00
        -11   -1    0    0    0    0  0.00000000000E+00  0.00000000000E+00  0.45593999997E+02  0.45594000000E+02  0.51100000000E-03 0.  1.
         11   -1    0    0    0    0 -0.00000000000E+00 -0.00000000000E+00 -0.45593999997E+02  0.45594000000E+02  0.51100000000E-03 0. -1.
    9900012    2    1    2    0    0 -0.31165018619E+02  0.23734676667E+02  0.22237811562E+02  0.46142317353E+02  0.99999962814E+01 0.  0.
         12    1    1    2    0    0  0.31165018619E+02 -0.23734676667E+02 -0.22237811562E+02  0.45045682647E+02  0.00000000000E+00 0. -1.
         11    1    3    3    0    0 -0.35641379184E+00 -0.30652995345E+00 -0.66386430242E+00  0.81345404082E+00  0.51100000000E-03 0. -1.
        -11    1    3    3    0    0 -0.14976703114E+02  0.12796191330E+02  0.11474474842E+02  0.22797098979E+02  0.51100000000E-03 0.  1.
         12    1    3    3    0    0 -0.15831901714E+02  0.11245015291E+02  0.11427201022E+02  0.22531764334E+02  0.00000000000E+00 0. -1.
</event>
<event>
 7    1  0.1503436E-008  0.4614232E+02  0.7816164E-02  0.1320468E+00
        -11   -1    0    0    0    0  0.00000000000E+00  0.00000000000E+00  0.45593999997E+02  0.45594000000E+02  0.51100000000E-03 0.  1.
         11   -1    0    0    0    0 -0.00000000000E+00 -0.00000000000E+00 -0.45593999997E+02  0.45594000000E+02  0.51100000000E-03 0. -1.
    9900012    2    1    2    0    0 -0.41032538224E+02  0.12857680436E+02  0.13421039283E+02  0.46142318357E+02  0.10000005433E+02 0.  0.
         12    1    1    2    0    0  0.41032538224E+02 -0.12857680436E+02 -0.13421039283E+02  0.45045681643E+02  0.00000000000E+00 0. -1.
         11    1    3    3    0    0 -0.16389662562E+01  0.10131422075E+01  0.17938242058E+01  0.26325791657E+01  0.51100000000E-03 0.  1.
        -11    1    3    3    0    0 -0.52567402998E+00 -0.84842756405E+00 -0.94731505493E-02  0.99812450072E+00  0.51100000000E-03 0. -1.
        -12    1    3    3    0    0 -0.38867897937E+02  0.12692965793E+02  0.11636688228E+02  0.42511614690E+02  0.00000000000E+00 0.  1.
</event>
<event>
 7    1  0.1503436E-008  0.4614232E+02  0.7816164E-02  0.1320468E+00
        -11   -1    0    0    0    0  0.00000000000E+00  0.00000000000E+00  0.45593999997E+02  0.45594000000E+02  0.51100000000E-03 0. -1.
         11   -1    0    0    0    0 -0.00000000000E+00 -0.00000000000E+00 -0.45593999997E+02  0.45594000000E+02  0.51100000000E-03 0.  1.
    9900012    2    1    2    0    0  0.15714287087E+02 -0.13145798022E+02 -0.40116862260E+02  0.46142318055E+02  0.10000002680E+02 0.  0.
         12    1    1    2    0    0 -0.15714287087E+02  0.13145798022E+02  0.40116862260E+02  0.45045681945E+02  0.00000000000E+00 0. -1.
         11    1    3    3    0    0  0.15508771285E+01 -0.39756616730E+00 -0.11150178300E+02  0.11264535282E+02  0.51100000000E-03 0. -1.
        -11    1    3    3    0    0  0.12285972523E+02 -0.11546853980E+02 -0.27330510464E+02  0.32112797451E+02  0.51100000000E-03 0.  1.
         12    1    3    3    0    0  0.18774374353E+01 -0.12013778743E+01 -0.16361734962E+01  0.27649853218E+01  0.00000000000E+00 0. -1.
</event>
<event>
 7    1  0.1731430E-008  0.4614232E+02  0.7816164E-02  0.1320468E+00
        -11   -1    0    0    0    0  0.00000000000E+00  0.00000000000E+00  0.45593999997E+02  0.45594000000E+02  0.51100000000E-03 0.  1.
         11   -1    0    0    0    0 -0.00000000000E+00 -0.00000000000E+00 -0.45593999997E+02  0.45594000000E+02  0.51100000000E-03 0. -1.
    9900012    2    1    2    0    0  0.32016009778E+02 -0.11517636114E+02  0.29520038911E+02  0.46142317398E+02  0.99999966898E+01 0.  0.
         12    1    1    2    0    0 -0.32016009778E+02  0.11517636114E+02 -0.29520038911E+02  0.45045682602E+02  0.00000000000E+00 0. -1.
         11    1    3    3    0    0  0.14485951824E+01  0.10748003779E+00 -0.32794693412E+00  0.14891371374E+01  0.51100000000E-03 0. -1.
        -11    1    3    3    0    0  0.30518097114E+02 -0.11953413666E+02  0.29834654778E+02  0.44320931575E+02  0.51100000000E-03 0.  1.
        -12    1    3    3    0    0  0.49317481715E-01  0.32829751396E+00  0.13331067206E-01  0.33224868552E+00  0.00000000000E+00 0.  1.
</event>
<event>
 7    1  0.1503436E-008  0.4614232E+02  0.7816164E-02  0.1320468E+00
        -11   -1    0    0    0    0  0.00000000000E+00  0.00000000000E+00  0.45593999997E+02  0.45594000000E+02  0.51100000000E-03 0.  1.
         11   -1    0    0    0    0 -0.00000000000E+00 -0.00000000000E+00 -0.45593999997E+02  0.45594000000E+02  0.51100000000E-03 0. -1.
    9900012    2    1    2    0    0 -0.20696308166E+02  0.77210681350E+01  0.39257628934E+02  0.46142317695E+02  0.99999993951E+01 0.  0.
         12    1    1    2    0    0  0.20696308166E+02 -0.77210681350E+01 -0.39257628934E+02  0.45045682305E+02  0.00000000000E+00 0. -1.
         11    1    3    3    0    0 -0.77335048869E+00 -0.77605128988E+00  0.37234759553E+01  0.38813142147E+01  0.51100000000E-03 0. -1.
        -11    1    3    3    0    0 -0.13256786688E+02  0.59013619658E+01  0.29603153160E+02  0.32968396133E+02  0.51100000000E-03 0.  1.
        -12    1    3    3    0    0 -0.66661709901E+01  0.25957574590E+01  0.59309998182E+01  0.92926073467E+01  0.00000000000E+00 0.  1.
</event>
<event>
 7    1  0.1503436E-008  0.4614232E+02  0.7816164E-02  0.1320468E+00
        -11   -1    0    0    0    0  0.00000000000E+00  0.00000000000E+00  0.45593999997E+02  0.45594000000E+02  0.51100000000E-03 0.  1.
         11   -1    0    0    0    0 -0.00000000000E+00 -0.00000000000E+00 -0.45593999997E+02  0.45594000000E+02  0.51100000000E-03 0. -1.
    9900012    2    1    2    0    0 -0.35408690693E+02 -0.22417895886E+02 -0.16515932551E+02  0.46142318069E+02  0.10000002810E+02 0.  0.
         12    1    1    2    0    0  0.35408690693E+02  0.22417895886E+02  0.16515932551E+02  0.45045681931E+02  0.00000000000E+00 0. -1.
         11    1    3    3    0    0 -0.19786715177E+02 -0.16098452658E+02 -0.13043936687E+02  0.28649931239E+02  0.51100000000E-03 0. -1.
        -11    1    3    3    0    0 -0.10852231808E+02 -0.27943608749E+01 -0.25100907244E+01  0.11483899322E+02  0.51100000000E-03 0.  1.
         12    1    3    3    0    0 -0.47697437084E+01 -0.35250823531E+01 -0.96190513957E+00  0.60084875083E+01  0.00000000000E+00 0. -1.
</event>
<event>
 7    1  0.1503436E-008  0.4614232E+02  0.7816164E-02  0.1320468E+00
        -11   -1    0    0    0    0  0.00000000000E+00  0.00000000000E+00  0.45593999997E+02  0.45594000000E+02  0.51100000000E-03 0. -1.
         11   -1    0    0    0    0 -0.00000000000E+00 -0.00000000000E+00 -0.45593999997E+02  0.45594000000E+02  0.51100000000E-03 0.  1.
    9900012    2    1    2    0    0 -0.26865690319E+02  0.29319394307E+02 -0.21159424617E+02  0.46142318199E+02  0.10000003989E+02 0.  0.
         12    1    1    2    0    0  0.26865690319E+02 -0.29319394307E+02  0.21159424617E+02  0.45045681801E+02  0.00000000000E+00 0. -1.
         11    1    3    3    0    0 -0.16244031927E+02  0.20644594548E+02 -0.16046633527E+02  0.30782499982E+02  0.51100000000E-03 0. -1.
        -11    1    3    3    0    0 -0.37428799651E+01  0.37265920525E+01 -0.43672976881E+01  0.68534610320E+01  0.51100000000E-03 0.  1.
         12    1    3    3    0    0 -0.68787784263E+01  0.49482077066E+01 -0.74549340149E+00  0.85063571849E+01  0.00000000000E+00 0. -1.
</event>
<event>
 7    1  0.1503436E-008  0.4614232E+02  0.7816164E-02  0.1320468E+00
        -11   -1    0    0    0    0  0.00000000000E+00  0.00000000000E+00  0.45593999997E+02  0.45594000000E+02  0.51100000000E-03 0.  1.
         11   -1    0    0    0    0 -0.00000000000E+00 -0.00000000000E+00 -0.45593999997E+02  0.45594000000E+02  0.51100000000E-03 0. -1.
    9900012    2    1    2    0    0 -0.27016252797E+02 -0.78122981253E+00  0.36036444829E+02  0.46142316620E+02  0.99999895967E+01 0.  0.
         12    1    1    2    0    0  0.27016252797E+02  0.78122981253E+00 -0.36036444829E+02  0.45045683380E+02  0.00000000000E+00 0. -1.
         11    1    3    3    0    0 -0.10057104405E+02 -0.17706387350E+01  0.74328313133E+01  0.12630419318E+02  0.51100000000E-03 0. -1.
        -11    1    3    3    0    0 -0.92290774146E+01 -0.14307215071E+01  0.16143788800E+02  0.18650596533E+02  0.51100000000E-03 0.  1.
         12    1    3    3    0    0 -0.77300709770E+01  0.24201304295E+01  0.12459824716E+02  0.14861300770E+02  0.00000000000E+00 0. -1.
</event>
<event>
 7    1  0.1503436E-008  0.4614232E+02  0.7816164E-02  0.1320468E+00
        -11   -1    0    0    0    0  0.00000000000E+00  0.00000000000E+00  0.45593999997E+02  0.45594000000E+02  0.51100000000E-03 0.  1.
         11   -1    0    0    0    0 -0.00000000000E+00 -0.00000000000E+00 -0.45593999997E+02  0.45594000000E+02  0.51100000000E-03 0. -1.
    9900012    2    1    2    0    0  0.41926577716E+02  0.13006896074E+02  0.10104268839E+02  0.46142317485E+02  0.99999974818E+01 0.  0.
         12    1    1    2    0    0 -0.41926577716E+02 -0.13006896074E+02 -0.10104268839E+02  0.45045682515E+02  0.00000000000E+00 0. -1.
         11    1    3    3    0    0  0.18131121252E+02  0.15713425165E+01  0.15130714503E+01  0.18261874510E+02  0.51100000000E-03 0. -1.
        -11    1    3    3    0    0  0.11080929691E+02  0.39185934078E+01  0.38102271755E+01  0.12355573985E+02  0.51100000000E-03 0.  1.
         12    1    3    3    0    0  0.12714526773E+02  0.75169601496E+01  0.47809702135E+01  0.15524868990E+02  0.00000000000E+00 0. -1.
</event>
<event>
 7    1  0.1503436E-008  0.4614232E+02  0.7816164E-02  0.1320468E+00
        -11   -1    0    0    0    0  0.00000000000E+00  0.00000000000E+00  0.45593999997E+02  0.45594000000E+02  0.51100000000E-03 0.  1.
         11   -1    0    0    0    0 -0.00000000000E+00 -0.00000000000E+00 -0.45593999997E+02  0.45594000000E+02  0.51100000000E-03 0. -1.
    9900012    2    1    2    0    0 -0.41260314861E+02 -0.33193524823E+01  0.17767441513E+02  0.46142315842E+02  0.99999824985E+01 0.  0.
         12    1    1    2    0    0  0.41260314861E+02  0.33193524823E+01 -0.17767441513E+02  0.45045684158E+02  0.00000000000E+00 0. -1.
         11    1    3    3    0    0 -0.65533401432E+01 -0.16292200928E+01  0.59484722054E+00  0.67789725343E+01  0.51100000000E-03 0. -1.
        -11    1    3    3    0    0 -0.29802379821E+02 -0.35418276668E+01  0.15920668806E+02  0.33973431997E+02  0.51100000000E-03 0.  1.
        -12    1    3    3    0    0 -0.49045948972E+01  0.18516952773E+01  0.12519254871E+01  0.53899113102E+01  0.00000000000E+00 0.  1.
</event>
<event>
 7    1  0.1503436E-008  0.4614232E+02  0.7816164E-02  0.1320468E+00
        -11   -1    0    0    0    0  0.00000000000E+00  0.00000000000E+00  0.45593999997E+02  0.45594000000E+02  0.51100000000E-03 0.  1.
         11   -1    0    0    0    0 -0.00000000000E+00 -0.00000000000E+00 -0.45593999997E+02  0.45594000000E+02  0.51100000000E-03 0. -1.
    9900012    2    1    2    0    0 -0.53592430436E+00 -0.20939127371E+01  0.44993797569E+02  0.46142317575E+02  0.99999983055E+01 0.  0.
         12    1    1    2    0    0  0.53592430436E+00  0.20939127371E+01 -0.44993797569E+02  0.45045682425E+02  0.00000000000E+00 0. -1.
         11    1    3    3    0    0  0.32269490884E+00  0.29748284247E+01  0.58769282781E+01  0.65948481717E+01  0.51100000000E-03 0. -1.
        -11    1    3    3    0    0  0.93813630612E+00 -0.17923488683E+01  0.16572326585E+02  0.16695347343E+02  0.51100000000E-03 0.  1.
         12    1    3    3    0    0 -0.17967555193E+01 -0.32763922934E+01  0.22544542706E+02  0.22852122061E+02  0.00000000000E+00 0. -1.
</event>
<event>
 7    1  0.1503436E-008  0.4614232E+02  0.7816164E-02  0.1320468E+00
        -11   -1    0    0    0    0  0.00000000000E+00  0.00000000000E+00  0.45593999997E+02  0.45594000000E+02  0.51100000000E-03 0. -1.
         11   -1    0    0    0    0 -0.00000000000E+00 -0.00000000000E+00 -0.45593999997E+02  0.45594000000E+02  0.51100000000E-03 0.  1.
    9900012    2    1    2    0    0  0.32759672233E+02 -0.30012626731E+02 -0.74269547249E+01  0.46142317137E+02  0.99999943072E+01 0.  0.
         12    1    1    2    0    0 -0.32759672233E+02  0.30012626731E+02  0.74269547249E+01  0.45045682863E+02  0.00000000000E+00 0. -1.
         11    1    3    3    0    0  0.15597094467E+02 -0.14284716052E+02 -0.53563739852E+00  0.21156780856E+02  0.51100000000E-03 0. -1.
        -11    1    3    3    0    0  0.16395540630E+02 -0.13615568909E+02 -0.76041896208E+01  0.22627884774E+02  0.51100000000E-03 0.  1.
        -12    1    3    3    0    0  0.76703713530E+00 -0.21123417699E+01  0.71287229433E+00  0.23576515069E+01  0.00000000000E+00 0.  1.
</event>
<event>
 7    1  0.1503436E-008  0.4614232E+02  0.7816164E-02  0.1320468E+00
        -11   -1    0    0    0    0  0.00000000000E+00  0.00000000000E+00  0.45593999997E+02  0.45594000000E+02  0.51100000000E-03 0.  1.
         11   -1    0    0    0    0 -0.00000000000E+00 -0.00000000000E+00 -0.45593999997E+02  0.45594000000E+02  0.51100000000E-03 0. -1.
    9900012    2    1    2    0    0  0.16073078135E+02 -0.28360065034E+02  0.31088200470E+02  0.46142319431E+02  0.10000015223E+02 0.  0.
         12    1    1    2    0    0 -0.16073078135E+02  0.28360065034E+02 -0.31088200470E+02  0.45045680569E+02  0.00000000000E+00 0. -1.
         11    1    3    3    0    0  0.81225054609E+01 -0.16028991584E+02  0.22413988728E+02  0.28727870738E+02  0.51100000000E-03 0. -1.
        -11    1    3    3    0    0  0.74924386507E+01 -0.12050527807E+02  0.89835688212E+01  0.16794533825E+02  0.51100000000E-03 0.  1.
         12    1    3    3    0    0  0.45813402372E+00 -0.28054564361E+00 -0.30935707898E+00  0.61991486847E+00  0.00000000000E+00 0. -1.
</event>
<event>
 7    1  0.1503436E-008  0.4614232E+02  0.7816164E-02  0.1320468E+00
        -11   -1    0    0    0    0  0.00000000000E+00  0.00000000000E+00  0.45593999997E+02  0.45594000000E+02  0.51100000000E-03 0. -1.
         11   -1    0    0    0    0 -0.00000000000E+00 -0.00000000000E+00 -0.45593999997E+02  0.45594000000E+02  0.51100000000E-03 0.  1.
    9900012    2    1    2    0    0 -0.10298061168E+02 -0.35570832057E+02 -0.25647212614E+02  0.46142315724E+02  0.99999814201E+01 0.  0.
         12    1    1    2    0    0  0.10298061168E+02  0.35570832057E+02  0.25647212614E+02  0.45045684276E+02  0.00000000000E+00 0. -1.
         11    1    3    3    0    0 -0.80489609776E+01 -0.18545739263E+02 -0.13518730834E+02  0.24320491386E+02  0.51100000000E-03 0. -1.
        -11    1    3    3    0    0 -0.34096808667E+01 -0.11730238029E+02 -0.10642035490E+02  0.16201152041E+02  0.51100000000E-03 0.  1.
         12    1    3    3    0    0  0.11605806764E+01 -0.52948547655E+01 -0.14864462903E+01  0.56206722968E+01  0.00000000000E+00 0. -1.
</event>
<event>
 7    1  0.1503436E-008  0.4614232E+02  0.7816164E-02  0.1320468E+00
        -11   -1    0    0    0    0  0.00000000000E+00  0.00000000000E+00  0.45593999997E+02  0.45594000000E+02  0.51100000000E-03 0. -1.
         11   -1    0    0    0    0 -0.00000000000E+00 -0.00000000000E+00 -0.45593999997E+02  0.45594000000E+02  0.51100000000E-03 0.  1.
    9900012    2    1    2    0    0 -0.17764183689E+02 -0.41051737255E+02 -0.53199769643E+01  0.46142317536E+02  0.99999979468E+01 0.  0.
         12    1    1    2    0    0  0.17764183689E+02  0.41051737255E+02  0.53199769643E+01  0.45045682464E+02  0.00000000000E+00 0. -1.
         11    1    3    3    0    0 -0.68776290296E+01 -0.15426238741E+02  0.11641131293E+01  0.16930026061E+02  0.51100000000E-03 0. -1.
        -11    1    3    3    0    0 -0.90881630823E+01 -0.22252410460E+02 -0.76350825265E+01  0.25220209455E+02  0.51100000000E-03 0.  1.
        -12    1    3    3    0    0 -0.17983915766E+01 -0.33730880535E+01  0.11509924330E+01  0.39920820208E+01  0.00000000000E+00 0.  1.
</event>
<event>
 7    1  0.1503436E-008  0.4614232E+02  0.7816164E-02  0.1320468E+00
        -11   -1    0    0    0    0  0.00000000000E+00  0.00000000000E+00  0.45593999997E+02  0.45594000000E+02  0.51100000000E-03 0.  1.
         11   -1    0    0    0    0 -0.00000000000E+00 -0.00000000000E+00 -0.45593999997E+02  0.45594000000E+02  0.51100000000E-03 0. -1.
    9900012    2    1    2    0    0  0.31469092822E+02 -0.30710232939E+02  0.97821895808E+01  0.46142318262E+02  0.10000004570E+02 0.  0.
         12    1    1    2    0    0 -0.31469092822E+02  0.30710232939E+02 -0.97821895808E+01  0.45045681738E+02  0.00000000000E+00 0. -1.
         11    1    3    3    0    0  0.49183065445E+01 -0.40763573527E+01 -0.15656814185E+01  0.65770652344E+01  0.51100000000E-03 0. -1.
        -11    1    3    3    0    0  0.17309935492E+02 -0.17630460150E+02  0.97628241513E+01  0.26566515155E+02  0.51100000000E-03 0.  1.
         12    1    3    3    0    0  0.92408507863E+01 -0.90034154361E+01  0.15850468480E+01  0.12998737873E+02  0.00000000000E+00 0. -1.
</event>
<event>
 7    1  0.1503436E-008  0.4614232E+02  0.7816164E-02  0.1320468E+00
        -11   -1    0    0    0    0  0.00000000000E+00  0.00000000000E+00  0.45593999997E+02  0.45594000000E+02  0.51100000000E-03 0.  1.
         11   -1    0    0    0    0 -0.00000000000E+00 -0.00000000000E+00 -0.45593999997E+02  0.45594000000E+02  0.51100000000E-03 0. -1.
    9900012    2    1    2    0    0  0.31779942589E+01 -0.52212750587E+01  0.44629050137E+02  0.46142317889E+02  0.10000001163E+02 0.  0.
         12    1    1    2    0    0 -0.31779942589E+01  0.52212750587E+01 -0.44629050137E+02  0.45045682111E+02  0.00000000000E+00 0. -1.
         11    1    3    3    0    0 -0.98456573285E+00  0.11530124384E+01  0.48029270244E+01  0.50365579147E+01  0.51100000000E-03 0. -1.
        -11    1    3    3    0    0  0.32549356875E+01 -0.39489618240E+01  0.36660116807E+02  0.37015578752E+02  0.51100000000E-03 0.  1.
         12    1    3    3    0    0  0.90762430433E+00 -0.24253256731E+01  0.31660063059E+01  0.40901812218E+01  0.00000000000E+00 0. -1.
</event>
<event>
 7    1  0.1503436E-008  0.4614232E+02  0.7816164E-02  0.1320468E+00
        -11   -1    0    0    0    0  0.00000000000E+00  0.00000000000E+00  0.45593999997E+02  0.45594000000E+02  0.51100000000E-03 0.  1.
         11   -1    0    0    0    0 -0.00000000000E+00 -0.00000000000E+00 -0.45593999997E+02  0.45594000000E+02  0.51100000000E-03 0. -1.
    9900012    2    1    2    0    0  0.16584544102E+02 -0.19600886849E+02  0.37011777739E+02  0.46142316969E+02  0.99999927796E+01 0.  0.
         12    1    1    2    0    0 -0.16584544102E+02  0.19600886849E+02 -0.37011777739E+02  0.45045683031E+02  0.00000000000E+00 0. -1.
         11    1    3    3    0    0  0.62688332849E+01 -0.81449742313E+01  0.97986470546E+01  0.14200435217E+02  0.51100000000E-03 0.  1.
        -11    1    3    3    0    0  0.12903491990E+01 -0.29102201926E+01  0.11357639406E+02  0.11795353143E+02  0.51100000000E-03 0. -1.
         12    1    3    3    0    0  0.90253616180E+01 -0.85456924249E+01  0.15855491278E+02  0.20146528610E+02  0.00000000000E+00 0. -1.
</event>
<event>
 7    1  0.1503436E-008  0.4614232E+02  0.7816164E-02  0.1320468E+00
        -11   -1    0    0    0    0  0.00000000000E+00  0.00000000000E+00  0.45593999997E+02  0.45594000000E+02  0.51100000000E-03 0.  1.
         11   -1    0    0    0    0 -0.00000000000E+00 -0.00000000000E+00 -0.45593999997E+02  0.45594000000E+02  0.51100000000E-03 0. -1.
    9900012    2    1    2    0    0  0.10812048492E+02  0.34176756996E+02  0.27279330356E+02  0.46142323448E+02  0.10000051857E+02 0.  0.
         12    1    1    2    0    0 -0.10812048492E+02 -0.34176756996E+02 -0.27279330356E+02  0.45045676552E+02  0.00000000000E+00 0. -1.
         11    1    3    3    0    0  0.14014945916E+01  0.16916717078E+02  0.13484586876E+02  0.21678874216E+02  0.51100000000E-03 0. -1.
        -11    1    3    3    0    0  0.47001554367E+01  0.64590353046E+01  0.31595723046E+01  0.85903140574E+01  0.51100000000E-03 0.  1.
         12    1    3    3    0    0  0.47103984632E+01  0.10801004614E+02  0.10635171175E+02  0.15873135175E+02  0.00000000000E+00 0. -1.
</event>
<event>
 7    1  0.1503436E-008  0.4614232E+02  0.7816164E-02  0.1320468E+00
        -11   -1    0    0    0    0  0.00000000000E+00  0.00000000000E+00  0.45593999997E+02  0.45594000000E+02  0.51100000000E-03 0.  1.
         11   -1    0    0    0    0 -0.00000000000E+00 -0.00000000000E+00 -0.45593999997E+02  0.45594000000E+02  0.51100000000E-03 0. -1.
    9900012    2    1    2    0    0  0.27415463646E+02 -0.35551309766E+02 -0.36891967731E+01  0.46142318233E+02  0.10000004306E+02 0.  0.
         12    1    1    2    0    0 -0.27415463646E+02  0.35551309766E+02  0.36891967731E+01  0.45045681767E+02  0.00000000000E+00 0. -1.
         11    1    3    3    0    0  0.14281302831E+02 -0.20448380900E+02 -0.28936264068E+01  0.25109061433E+02  0.51100000000E-03 0. -1.
        -11    1    3    3    0    0  0.14278265960E+01 -0.96277551286E+00  0.18028766548E+01  0.24931887152E+01  0.51100000000E-03 0.  1.
        -12    1    3    3    0    0  0.11706334219E+02 -0.14140153353E+02 -0.25984470211E+01  0.18540068085E+02  0.00000000000E+00 0.  1.
</event>
<event>
 7    1  0.1503436E-008  0.4614232E+02  0.7816164E-02  0.1320468E+00
        -11   -1    0    0    0    0  0.00000000000E+00  0.00000000000E+00  0.45593999997E+02  0.45594000000E+02  0.51100000000E-03 0.  1.
         11   -1    0    0    0    0 -0.00000000000E+00 -0.00000000000E+00 -0.45593999997E+02  0.45594000000E+02  0.51100000000E-03 0. -1.
    9900012    2    1    2    0    0 -0.20022927268E+02  0.98231479771E+01  0.39136960536E+02  0.46142317270E+02  0.99999955254E+01 0.  0.
         12    1    1    2    0    0  0.20022927268E+02 -0.98231479771E+01 -0.39136960536E+02  0.45045682730E+02  0.00000000000E+00 0. -1.
         11    1    3    3    0    0 -0.21345996202E+00  0.23626868845E+01  0.61320671178E+01  0.65749602180E+01  0.51100000000E-03 0. -1.
        -11    1    3    3    0    0 -0.17944180316E+02  0.52984230634E+01  0.30432860377E+02  0.35724303844E+02  0.51100000000E-03 0.  1.
        -12    1    3    3    0    0 -0.18652869904E+01  0.21620380291E+01  0.25720330415E+01  0.38430532084E+01  0.00000000000E+00 0.  1.
</event>
<event>
 7    1  0.1503436E-008  0.4614232E+02  0.7816164E-02  0.1320468E+00
        -11   -1    0    0    0    0  0.00000000000E+00  0.00000000000E+00  0.45593999997E+02  0.45594000000E+02  0.51100000000E-03 0.  1.
         11   -1    0    0    0    0 -0.00000000000E+00 -0.00000000000E+00 -0.45593999997E+02  0.45594000000E+02  0.51100000000E-03 0. -1.
    9900012    2    1    2    0    0 -0.37299159049E+02  0.16090046771E+02 -0.19467836227E+02  0.46142317430E+02  0.99999969776E+01 0.  0.
         12    1    1    2    0    0  0.37299159049E+02 -0.16090046771E+02  0.19467836227E+02  0.45045682570E+02  0.00000000000E+00 0. -1.
         11    1    3    3    0    0 -0.93525460145E+00  0.59173024333E+00  0.38952470941E+00  0.11732755903E+01  0.51100000000E-03 0. -1.
        -11    1    3    3    0    0 -0.20848243268E+02  0.89022312036E+01 -0.15787991144E+02  0.27625344023E+02  0.51100000000E-03 0.  1.
        -12    1    3    3    0    0 -0.15515661179E+02  0.65960853245E+01 -0.40693697932E+01  0.17343697817E+02  0.00000000000E+00 0.  1.
</event>
<event>
 7    1  0.1503436E-008  0.4614232E+02  0.7816164E-02  0.1320468E+00
        -11   -1    0    0    0    0  0.00000000000E+00  0.00000000000E+00  0.45593999997E+02  0.45594000000E+02  0.51100000000E-03 0. -1.
         11   -1    0    0    0    0 -0.00000000000E+00 -0.00000000000E+00 -0.45593999997E+02  0.45594000000E+02  0.51100000000E-03 0.  1.
    9900012    2    1    2    0    0 -0.88469834388E+01 -0.36680258317E+01 -0.44015792135E+02  0.46142317779E+02  0.10000000163E+02 0.  0.
         12    1    1    2    0    0  0.88469834388E+01  0.36680258317E+01  0.44015792135E+02  0.45045682221E+02  0.00000000000E+00 0. -1.
         11    1    3    3    0    0  0.11583647768E+01 -0.84473570567E+00 -0.10180163544E+02  0.10280618532E+02  0.51100000000E-03 0. -1.
        -11    1    3    3    0    0 -0.83767370439E+01 -0.17025877609E+01 -0.18267422681E+02  0.20168471937E+02  0.51100000000E-03 0.  1.
        -12    1    3    3    0    0 -0.16286111718E+01 -0.11207023652E+01 -0.15568205910E+02  0.15693227310E+02  0.00000000000E+00 0.  1.
</event>
<event>
 7    1  0.1503436E-008  0.4614232E+02  0.7816164E-02  0.1320468E+00
        -11   -1    0    0    0    0  0.00000000000E+00  0.00000000000E+00  0.45593999997E+02  0.45594000000E+02  0.51100000000E-03 0. -1.
         11   -1    0    0    0    0 -0.00000000000E+00 -0.00000000000E+00 -0.45593999997E+02  0.45594000000E+02  0.51100000000E-03 0.  1.
    9900012    2    1    2    0    0  0.10707642731E+01 -0.17300679280E+02 -0.41577078055E+02  0.46142318084E+02  0.10000002947E+02 0.  0.
         12    1    1    2    0    0 -0.10707642731E+01  0.17300679280E+02  0.41577078055E+02  0.45045681916E+02  0.00000000000E+00 0. -1.
         11    1    3    3    0    0 -0.54068952161E+00  0.47915779718E+00 -0.19516084618E+00  0.74834842847E+00  0.51100000000E-03 0. -1.
        -11    1    3    3    0    0  0.13916838293E+01 -0.12484971830E+02 -0.22355542113E+02  0.25643353308E+02  0.51100000000E-03 0.  1.
         12    1    3    3    0    0  0.21976996542E+00 -0.52948652472E+01 -0.19026375096E+02  0.19750616347E+02  0.00000000000E+00 0. -1.
</event>
<event>
 7    1  0.1503436E-008  0.4614232E+02  0.7816164E-02  0.1320468E+00
        -11   -1    0    0    0    0  0.00000000000E+00  0.00000000000E+00  0.45593999997E+02  0.45594000000E+02  0.51100000000E-03 0.  1.
         11   -1    0    0    0    0 -0.00000000000E+00 -0.00000000000E+00 -0.45593999997E+02  0.45594000000E+02  0.51100000000E-03 0. -1.
    9900012    2    1    2    0    0 -0.27855060879E+02  0.17041103497E+02  0.31029177354E+02  0.46142317941E+02  0.10000001637E+02 0.  0.
         12    1    1    2    0    0  0.27855060879E+02 -0.17041103497E+02 -0.31029177354E+02  0.45045682059E+02  0.00000000000E+00 0. -1.
         11    1    3    3    0    0 -0.91431346788E+01  0.20634376903E+01  0.10430613583E+02  0.14023280174E+02  0.51100000000E-03 0. -1.
        -11    1    3    3    0    0 -0.11481054587E+02  0.73849219258E+01  0.14812328391E+02  0.20143404848E+02  0.51100000000E-03 0.  1.
         12    1    3    3    0    0 -0.72308716129E+01  0.75927438808E+01  0.57862353805E+01  0.11975632919E+02  0.00000000000E+00 0. -1.
</event>
<event>
 7    1  0.1503436E-008  0.4614231E+02  0.7816164E-02  0.1320468E+00
        -11   -1    0    0    0    0  0.00000000000E+00  0.00000000000E+00  0.45593999997E+02  0.45594000000E+02  0.51100000000E-03 0. -1.
         11   -1    0    0    0    0 -0.00000000000E+00 -0.00000000000E+00 -0.45593999997E+02  0.45594000000E+02  0.51100000000E-03 0.  1.
    9900012    2    1    2    0    0 -0.44562243734E+02 -0.24232766740E+01  0.61194744838E+01  0.46142314253E+02  0.99999680122E+01 0.  0.
         12    1    1    2    0    0  0.44562243734E+02  0.24232766740E+01 -0.61194744838E+01  0.45045685747E+02  0.00000000000E+00 0. -1.
         11    1    3    3    0    0 -0.26674651562E+02  0.30442117462E+01  0.29689608382E+01  0.27011460343E+02  0.51100000000E-03 0. -1.
        -11    1    3    3    0    0 -0.10791932973E+02 -0.26256518540E+01  0.80678051814E+00  0.11136011854E+02  0.51100000000E-03 0.  1.
         12    1    3    3    0    0 -0.70956591989E+01 -0.28418365663E+01  0.23437331274E+01  0.79948420565E+01  0.00000000000E+00 0. -1.
</event>
<event>
 7    1  0.1503436E-008  0.4614232E+02  0.7816164E-02  0.1320468E+00
        -11   -1    0    0    0    0  0.00000000000E+00  0.00000000000E+00  0.45593999997E+02  0.45594000000E+02  0.51100000000E-03 0.  1.
         11   -1    0    0    0    0 -0.00000000000E+00 -0.00000000000E+00 -0.45593999997E+02  0.45594000000E+02  0.51100000000E-03 0. -1.
    9900012    2    1    2    0    0 -0.11255599100E+01 -0.41102113188E+02  0.18397360210E+02  0.46142318117E+02  0.10000003243E+02 0.  0.
         12    1    1    2    0    0  0.11255599100E+01  0.41102113188E+02 -0.18397360210E+02  0.45045681883E+02  0.00000000000E+00 0. -1.
         11    1    3    3    0    0 -0.13133909578E+00 -0.25674672233E+01  0.33185753074E+01  0.41978661523E+01  0.51100000000E-03 0. -1.
        -11    1    3    3    0    0  0.89600294542E+00 -0.24606956893E+02  0.64584823965E+01  0.25456180860E+02  0.51100000000E-03 0.  1.
        -12    1    3    3    0    0 -0.18902237596E+01 -0.13927689071E+02  0.86203025065E+01  0.16488271105E+02  0.00000000000E+00 0.  1.
</event>
<event>
 7    1  0.1503436E-008  0.4614232E+02  0.7816164E-02  0.1320468E+00
        -11   -1    0    0    0    0  0.00000000000E+00  0.00000000000E+00  0.45593999997E+02  0.45594000000E+02  0.51100000000E-03 0.  1.
         11   -1    0    0    0    0 -0.00000000000E+00 -0.00000000000E+00 -0.45593999997E+02  0.45594000000E+02  0.51100000000E-03 0. -1.
    9900012    2    1    2    0    0 -0.26772925163E+02 -0.35539083160E+02 -0.70212183019E+01  0.46142318075E+02  0.10000002865E+02 0.  0.
         12    1    1    2    0    0  0.26772925163E+02  0.35539083160E+02  0.70212183019E+01  0.45045681925E+02  0.00000000000E+00 0. -1.
         11    1    3    3    0    0 -0.22159891509E+01 -0.99189154202E+00  0.10932180750E+01  0.26626270427E+01  0.51100000000E-03 0. -1.
        -11    1    3    3    0    0 -0.77071306857E+01 -0.71547202957E+01 -0.28108268604E+01  0.10885340317E+02  0.51100000000E-03 0.  1.
         12    1    3    3    0    0 -0.16849805326E+02 -0.27392471322E+02 -0.53036095164E+01  0.32594350716E+02  0.00000000000E+00 0. -1.
</event>
<event>
 7    1  0.1503436E-008  0.4614232E+02  0.7816164E-02  0.1320468E+00
        -11   -1    0    0    0    0  0.00000000000E+00  0.00000000000E+00  0.45593999997E+02  0.45594000000E+02  0.51100000000E-03 0.  1.
         11   -1    0    0    0    0 -0.00000000000E+00 -0.00000000000E+00 -0.45593999997E+02  0.45594000000E+02  0.51100000000E-03 0. -1.
    9900012    2    1    2    0    0  0.10155596499E+02  0.34797489718E+02  0.26741581810E+02  0.46142316204E+02  0.99999858035E+01 0.  0.
         12    1    1    2    0    0 -0.10155596499E+02 -0.34797489718E+02 -0.26741581810E+02  0.45045683796E+02  0.00000000000E+00 0. -1.
         11    1    3    3    0    0  0.57165113920E+01  0.24268083013E+02  0.17483456631E+02  0.30451430371E+02  0.51100000000E-03 0. -1.
        -11    1    3    3    0    0  0.21037649768E+01  0.48796542017E+01  0.77456522341E+01  0.93931880104E+01  0.51100000000E-03 0.  1.
         12    1    3    3    0    0  0.23353201307E+01  0.56497525028E+01  0.15124729454E+01  0.62976978227E+01  0.00000000000E+00 0. -1.
</event>
<event>
 7    1  0.1503436E-008  0.4614232E+02  0.7816164E-02  0.1320468E+00
        -11   -1    0    0    0    0  0.00000000000E+00  0.00000000000E+00  0.45593999997E+02  0.45594000000E+02  0.51100000000E-03 0.  1.
         11   -1    0    0    0    0 -0.00000000000E+00 -0.00000000000E+00 -0.45593999997E+02  0.45594000000E+02  0.51100000000E-03 0. -1.
    9900012    2    1    2    0    0 -0.39020809575E+02  0.14807285042E+02  0.16947988291E+02  0.46142316774E+02  0.99999909956E+01 0.  0.
         12    1    1    2    0    0  0.39020809575E+02 -0.14807285042E+02 -0.16947988291E+02  0.45045683226E+02  0.00000000000E+00 0. -1.
         11    1    3    3    0    0 -0.17924040542E+02  0.59216034000E+01  0.10755017769E+02  0.21725722627E+02  0.51100000000E-03 0. -1.
        -11    1    3    3    0    0 -0.16955587262E+02  0.85438282699E+01  0.69002851523E+01  0.20201556285E+02  0.51100000000E-03 0.  1.
         12    1    3    3    0    0 -0.41411817706E+01  0.34185337231E+00 -0.70731463031E+00  0.42150378612E+01  0.00000000000E+00 0. -1.
</event>
<event>
 7    1  0.1503436E-008  0.4614232E+02  0.7816164E-02  0.1320468E+00
        -11   -1    0    0    0    0  0.00000000000E+00  0.00000000000E+00  0.45593999997E+02  0.45594000000E+02  0.51100000000E-03 0.  1.
         11   -1    0    0    0    0 -0.00000000000E+00 -0.00000000000E+00 -0.45593999997E+02  0.45594000000E+02  0.51100000000E-03 0. -1.
    9900012    2    1    2    0    0 -0.14278204504E+02 -0.61559633366E+01  0.42277065794E+02  0.46142319845E+02  0.10000019007E+02 0.  0.
         12    1    1    2    0    0  0.14278204504E+02  0.61559633366E+01 -0.42277065794E+02  0.45045680155E+02  0.00000000000E+00 0. -1.
         11    1    3    3    0    0 -0.63990108830E+01 -0.30473426446E+01  0.15268421723E+02  0.16833251013E+02  0.51100000000E-03 0. -1.
        -11    1    3    3    0    0 -0.10340536353E+00 -0.31013547195E+01  0.12135386802E+02  0.12525841563E+02  0.51100000000E-03 0.  1.
        -12    1    3    3    0    0 -0.77757882575E+01 -0.72659725618E-02  0.14873257268E+02  0.16783227269E+02  0.00000000000E+00 0.  1.
</event>
<event>
 7    1  0.1503436E-008  0.4614232E+02  0.7816164E-02  0.1320468E+00
        -11   -1    0    0    0    0  0.00000000000E+00  0.00000000000E+00  0.45593999997E+02  0.45594000000E+02  0.51100000000E-03 0.  1.
         11   -1    0    0    0    0 -0.00000000000E+00 -0.00000000000E+00 -0.45593999997E+02  0.45594000000E+02  0.51100000000E-03 0. -1.
    9900012    2    1    2    0    0 -0.35731474942E+02  0.16976372745E+02  0.21544788350E+02  0.46142318318E+02  0.10000005079E+02 0.  0.
         12    1    1    2    0    0  0.35731474942E+02 -0.16976372745E+02 -0.21544788350E+02  0.45045681682E+02  0.00000000000E+00 0. -1.
         11    1    3    3    0    0 -0.23209100861E+02  0.13775293204E+02  0.12038297402E+02  0.29552354732E+02  0.51100000000E-03 0. -1.
        -11    1    3    3    0    0 -0.10366380152E+02  0.26936119503E+01  0.55681664489E+01  0.12071530999E+02  0.51100000000E-03 0.  1.
         12    1    3    3    0    0 -0.21559939298E+01  0.50746759071E+00  0.39383244998E+01  0.45184325874E+01  0.00000000000E+00 0. -1.
</event>
<event>
 7    1  0.1503436E-008  0.4614232E+02  0.7816164E-02  0.1320468E+00
        -11   -1    0    0    0    0  0.00000000000E+00  0.00000000000E+00  0.45593999997E+02  0.45594000000E+02  0.51100000000E-03 0.  1.
         11   -1    0    0    0    0 -0.00000000000E+00 -0.00000000000E+00 -0.45593999997E+02  0.45594000000E+02  0.51100000000E-03 0. -1.
    9900012    2    1    2    0    0 -0.20169478651E+02 -0.33025123499E+02  0.23057471166E+02  0.46142316214E+02  0.99999858917E+01 0.  0.
         12    1    1    2    0    0  0.20169478651E+02  0.33025123499E+02 -0.23057471166E+02  0.45045683786E+02  0.00000000000E+00 0. -1.
         11    1    3    3    0    0 -0.22285293251E+01 -0.11989563763E+01 -0.26160820163E+00  0.25440673060E+01  0.51100000000E-03 0. -1.
        -11    1    3    3    0    0 -0.99651139123E+01 -0.12910381118E+02  0.10422709236E+02  0.19354955540E+02  0.51100000000E-03 0.  1.
        -12    1    3    3    0    0 -0.79758354133E+01 -0.18915786005E+02  0.12896370132E+02  0.24243293368E+02  0.00000000000E+00 0.  1.
</event>
<event>
 7    1  0.1503436E-008  0.4614232E+02  0.7816164E-02  0.1320468E+00
        -11   -1    0    0    0    0  0.00000000000E+00  0.00000000000E+00  0.45593999997E+02  0.45594000000E+02  0.51100000000E-03 0.  1.
         11   -1    0    0    0    0 -0.00000000000E+00 -0.00000000000E+00 -0.45593999997E+02  0.45594000000E+02  0.51100000000E-03 0. -1.
    9900012    2    1    2    0    0  0.32816622949E+02  0.93774120323E+01  0.29398076133E+02  0.46142317871E+02  0.10000000999E+02 0.  0.
         12    1    1    2    0    0 -0.32816622949E+02 -0.93774120323E+01 -0.29398076133E+02  0.45045682129E+02  0.00000000000E+00 0. -1.
         11    1    3    3    0    0  0.26280548346E+02  0.95079307079E+01  0.23440472662E+02  0.36476344753E+02  0.51100000000E-03 0. -1.
        -11    1    3    3    0    0  0.56828189956E+01 -0.15763825060E+01  0.50097431455E+01  0.77380191384E+01  0.51100000000E-03 0.  1.
         12    1    3    3    0    0  0.85325560792E+00  0.14458638305E+01  0.94786032524E+00  0.19279539789E+01  0.00000000000E+00 0. -1.
</event>
<event>
 7    1  0.1503436E-008  0.4614232E+02  0.7816164E-02  0.1320468E+00
        -11   -1    0    0    0    0  0.00000000000E+00  0.00000000000E+00  0.45593999997E+02  0.45594000000E+02  0.51100000000E-03 0. -1.
         11   -1    0    0    0    0 -0.00000000000E+00 -0.00000000000E+00 -0.45593999997E+02  0.45594000000E+02  0.51100000000E-03 0.  1.
    9900012    2    1    2    0    0 -0.10049684832E+01 -0.27477340499E+02 -0.35680515502E+02  0.46142318863E+02  0.10000010050E+02 0.  0.
         12    1    1    2    0    0  0.10049684832E+01  0.27477340499E+02  0.35680515502E+02  0.45045681137E+02  0.00000000000E+00 0. -1.
         11    1    3    3    0    0  0.29987980399E+01 -0.10937189789E+02 -0.12079860912E+02  0.16569186765E+02  0.51100000000E-03 0. -1.
        -11    1    3    3    0    0 -0.33758124832E+01 -0.11172482546E+02 -0.11815904473E+02  0.16608313429E+02  0.51100000000E-03 0.  1.
        -12    1    3    3    0    0 -0.62795403992E+00 -0.53676681650E+01 -0.11784750117E+02  0.12964818670E+02  0.00000000000E+00 0.  1.
</event>
<event>
 7    1  0.1503436E-008  0.4614232E+02  0.7816164E-02  0.1320468E+00
        -11   -1    0    0    0    0  0.00000000000E+00  0.00000000000E+00  0.45593999997E+02  0.45594000000E+02  0.51100000000E-03 0. -1.
         11   -1    0    0    0    0 -0.00000000000E+00 -0.00000000000E+00 -0.45593999997E+02  0.45594000000E+02  0.51100000000E-03 0.  1.
    9900012    2    1    2    0    0 -0.39868264107E+02  0.13804783947E+02 -0.15781728236E+02  0.46142317755E+02  0.99999999470E+01 0.  0.
         12    1    1    2    0    0  0.39868264107E+02 -0.13804783947E+02  0.15781728236E+02  0.45045682245E+02  0.00000000000E+00 0. -1.
         11    1    3    3    0    0 -0.18125866851E+02  0.73384230566E+01 -0.83579777028E+01  0.21266294778E+02  0.51100000000E-03 0.  1.
        -11    1    3    3    0    0 -0.25953202908E+01  0.23111234827E+01  0.89780422973E+00  0.35892940615E+01  0.51100000000E-03 0. -1.
        -12    1    3    3    0    0 -0.19147076966E+02  0.41552374082E+01 -0.83215547627E+01  0.21286728916E+02  0.00000000000E+00 0.  1.
</event>
<event>
 7    1  0.1503436E-008  0.4614232E+02  0.7816164E-02  0.1320468E+00
        -11   -1    0    0    0    0  0.00000000000E+00  0.00000000000E+00  0.45593999997E+02  0.45594000000E+02  0.51100000000E-03 0. -1.
         11   -1    0    0    0    0 -0.00000000000E+00 -0.00000000000E+00 -0.45593999997E+02  0.45594000000E+02  0.51100000000E-03 0.  1.
    9900012    2    1    2    0    0 -0.31748155997E+02  0.25378979018E+02  0.19418428471E+02  0.46142319302E+02  0.10000014053E+02 0.  0.
         12    1    1    2    0    0  0.31748155997E+02 -0.25378979018E+02 -0.19418428471E+02  0.45045680698E+02  0.00000000000E+00 0. -1.
         11    1    3    3    0    0 -0.93249595096E+01  0.62637034700E+01  0.81995306579E+01  0.13907593404E+02  0.51100000000E-03 0.  1.
        -11    1    3    3    0    0 -0.43035864630E+01  0.14699602597E+01 -0.45254307823E-01  0.45479322579E+01  0.51100000000E-03 0. -1.
         12    1    3    3    0    0 -0.18119610025E+02  0.17645315289E+02  0.11264152121E+02  0.27686793640E+02  0.00000000000E+00 0. -1.
</event>
<event>
 7    1  0.1503436E-008  0.4614231E+02  0.7816164E-02  0.1320468E+00
        -11   -1    0    0    0    0  0.00000000000E+00  0.00000000000E+00  0.45593999997E+02  0.45594000000E+02  0.51100000000E-03 0.  1.
         11   -1    0    0    0    0 -0.00000000000E+00 -0.00000000000E+00 -0.45593999997E+02  0.45594000000E+02  0.51100000000E-03 0. -1.
    9900012    2    1    2    0    0 -0.29074641940E+02  0.23869946244E+02  0.24779116475E+02  0.46142314847E+02  0.99999734298E+01 0.  0.
         12    1    1    2    0    0  0.29074641940E+02 -0.23869946244E+02 -0.24779116475E+02  0.45045685153E+02  0.00000000000E+00 0. -1.
         11    1    3    3    0    0 -0.15165249892E+01  0.31104151574E+01  0.50497414419E+01  0.61216353522E+01  0.51100000000E-03 0. -1.
        -11    1    3    3    0    0 -0.13623203601E+02  0.12426678085E+02  0.12299578476E+02  0.22165144608E+02  0.51100000000E-03 0.  1.
        -12    1    3    3    0    0 -0.13934913349E+02  0.83328530021E+01  0.74297965568E+01  0.17855534887E+02  0.00000000000E+00 0.  1.
</event>
<event>
 7    1  0.1503436E-008  0.4614232E+02  0.7816164E-02  0.1320468E+00
        -11   -1    0    0    0    0  0.00000000000E+00  0.00000000000E+00  0.45593999997E+02  0.45594000000E+02  0.51100000000E-03 0.  1.
         11   -1    0    0    0    0 -0.00000000000E+00 -0.00000000000E+00 -0.45593999997E+02  0.45594000000E+02  0.51100000000E-03 0. -1.
    9900012    2    1    2    0    0  0.21131822946E+02 -0.24691818718E+02  0.31190922947E+02  0.46142317333E+02  0.99999961005E+01 0.  0.
         12    1    1    2    0    0 -0.21131822946E+02  0.24691818718E+02 -0.31190922947E+02  0.45045682667E+02  0.00000000000E+00 0. -1.
         11    1    3    3    0    0  0.22589202422E+01 -0.44972220800E+01  0.10172449295E+01  0.51344439432E+01  0.51100000000E-03 0. -1.
        -11    1    3    3    0    0  0.40109410297E+01 -0.52120512500E+01  0.58127889899E+01  0.87773368557E+01  0.51100000000E-03 0.  1.
         12    1    3    3    0    0  0.14861961674E+02 -0.14982545388E+02  0.24360889027E+02  0.32230536535E+02  0.00000000000E+00 0. -1.
</event>
<event>
 7    1  0.1503436E-008  0.4614231E+02  0.7816164E-02  0.1320468E+00
        -11   -1    0    0    0    0  0.00000000000E+00  0.00000000000E+00  0.45593999997E+02  0.45594000000E+02  0.51100000000E-03 0.  1.
         11   -1    0    0    0    0 -0.00000000000E+00 -0.00000000000E+00 -0.45593999997E+02  0.45594000000E+02  0.51100000000E-03 0. -1.
    9900012    2    1    2    0    0 -0.27274232772E+02 -0.13347661186E+02  0.33272661127E+02  0.46142314180E+02  0.99999673475E+01 0.  0.
         12    1    1    2    0    0  0.27274232772E+02  0.13347661186E+02 -0.33272661127E+02  0.45045685820E+02  0.00000000000E+00 0. -1.
         11    1    3    3    0    0 -0.48365464097E+01 -0.35446820760E+01  0.24295844231E+01  0.64699175361E+01  0.51100000000E-03 0. -1.
        -11    1    3    3    0    0 -0.19640106228E+02 -0.82162830224E+01  0.23816596377E+02  0.31944817147E+02  0.51100000000E-03 0.  1.
         12    1    3    3    0    0 -0.27975801348E+01 -0.15866960875E+01  0.70264803277E+01  0.77275794968E+01  0.00000000000E+00 0. -1.
</event>
<event>
 7    1  0.1738317E-008  0.4614232E+02  0.7816164E-02  0.1320468E+00
        -11   -1    0    0    0    0  0.00000000000E+00  0.00000000000E+00  0.45593999997E+02  0.45594000000E+02  0.51100000000E-03 0. -1.
         11   -1    0    0    0    0 -0.00000000000E+00 -0.00000000000E+00 -0.45593999997E+02  0.45594000000E+02  0.51100000000E-03 0.  1.
    9900012    2    1    2    0    0 -0.43421942503E+02  0.34192524683E+01 -0.11487258495E+02  0.46142317788E+02  0.10000000244E+02 0.  0.
         12    1    1    2    0    0  0.43421942503E+02 -0.34192524683E+01  0.11487258495E+02  0.45045682212E+02  0.00000000000E+00 0. -1.
         11    1    3    3    0    0 -0.20945150007E+01  0.16975660260E+01  0.42670071039E+00  0.27296148553E+01  0.51100000000E-03 0. -1.
        -11    1    3    3    0    0 -0.33601130520E+02  0.21451327337E+01 -0.11789092118E+02  0.35673803552E+02  0.51100000000E-03 0.  1.
        -12    1    3    3    0    0 -0.77262969828E+01 -0.42344629141E+00 -0.12486708776E+00  0.77388993803E+01  0.00000000000E+00 0.  1.
</event>
<event>
 7    1  0.1503436E-008  0.4614232E+02  0.7816164E-02  0.1320468E+00
        -11   -1    0    0    0    0  0.00000000000E+00  0.00000000000E+00  0.45593999997E+02  0.45594000000E+02  0.51100000000E-03 0.  1.
         11   -1    0    0    0    0 -0.00000000000E+00 -0.00000000000E+00 -0.45593999997E+02  0.45594000000E+02  0.51100000000E-03 0. -1.
    9900012    2    1    2    0    0  0.13515664318E+01  0.18270941062E+02  0.41151662533E+02  0.46142319315E+02  0.10000014171E+02 0.  0.
         12    1    1    2    0    0 -0.13515664318E+01 -0.18270941062E+02 -0.41151662533E+02  0.45045680685E+02  0.00000000000E+00 0. -1.
         11    1    3    3    0    0 -0.37572500908E+00  0.12909463337E+02  0.28235219813E+02  0.31048720603E+02  0.51100000000E-03 0. -1.
        -11    1    3    3    0    0  0.13031989115E+01  0.34734792048E+01  0.24409956293E+01  0.44409284066E+01  0.51100000000E-03 0.  1.
        -12    1    3    3    0    0  0.42409252941E+00  0.18879985210E+01  0.10475447091E+02  0.10652670306E+02  0.00000000000E+00 0.  1.
</event>
<event>
 7    1  0.1503436E-008  0.4614232E+02  0.7816164E-02  0.1320468E+00
        -11   -1    0    0    0    0  0.00000000000E+00  0.00000000000E+00  0.45593999997E+02  0.45594000000E+02  0.51100000000E-03 0. -1.
         11   -1    0    0    0    0 -0.00000000000E+00 -0.00000000000E+00 -0.45593999997E+02  0.45594000000E+02  0.51100000000E-03 0.  1.
    9900012    2    1    2    0    0  0.37519193388E+02 -0.23881588392E+02 -0.71479591949E+01  0.46142318106E+02  0.10000003145E+02 0.  0.
         12    1    1    2    0    0 -0.37519193388E+02  0.23881588392E+02  0.71479591949E+01  0.45045681894E+02  0.00000000000E+00 0. -1.
         11    1    3    3    0    0  0.19990807322E+02 -0.84329600406E+01 -0.65402491019E+01  0.22661024933E+02  0.51100000000E-03 0. -1.
        -11    1    3    3    0    0  0.14453521378E+02 -0.11510906388E+02 -0.52091268848E+00  0.18484496108E+02  0.51100000000E-03 0.  1.
         12    1    3    3    0    0  0.30748646882E+01 -0.39377219639E+01 -0.86797404550E-01  0.49967970647E+01  0.00000000000E+00 0. -1.
</event>
<event>
 7    1  0.1503436E-008  0.4614232E+02  0.7816164E-02  0.1320468E+00
        -11   -1    0    0    0    0  0.00000000000E+00  0.00000000000E+00  0.45593999997E+02  0.45594000000E+02  0.51100000000E-03 0.  1.
         11   -1    0    0    0    0 -0.00000000000E+00 -0.00000000000E+00 -0.45593999997E+02  0.45594000000E+02  0.51100000000E-03 0. -1.
    9900012    2    1    2    0    0 -0.22564752269E+02  0.36329428752E+02 -0.14146312418E+02  0.46142316595E+02  0.99999893691E+01 0.  0.
         12    1    1    2    0    0  0.22564752269E+02 -0.36329428752E+02  0.14146312418E+02  0.45045683405E+02  0.00000000000E+00 0. -1.
         11    1    3    3    0    0 -0.17908306843E+02  0.27116985715E+02 -0.10974760989E+02  0.34299908852E+02  0.51100000000E-03 0. -1.
        -11    1    3    3    0    0 -0.34426110512E+01  0.63595689076E+01  0.23608332477E+00  0.72354283313E+01  0.51100000000E-03 0.  1.
         12    1    3    3    0    0 -0.12138343745E+01  0.28528741295E+01 -0.34076347538E+01  0.46069794121E+01  0.00000000000E+00 0. -1.
</event>
<event>
 7    1  0.1503436E-008  0.4614232E+02  0.7816164E-02  0.1320468E+00
        -11   -1    0    0    0    0  0.00000000000E+00  0.00000000000E+00  0.45593999997E+02  0.45594000000E+02  0.51100000000E-03 0.  1.
         11   -1    0    0    0    0 -0.00000000000E+00 -0.00000000000E+00 -0.45593999997E+02  0.45594000000E+02  0.51100000000E-03 0. -1.
    9900012    2    1    2    0    0 -0.34901440060E+02 -0.11039005238E+02  0.26251542619E+02  0.46142316025E+02  0.99999841682E+01 0.  0.
         12    1    1    2    0    0  0.34901440060E+02  0.11039005238E+02 -0.26251542619E+02  0.45045683975E+02  0.00000000000E+00 0. -1.
         11    1    3    3    0    0 -0.35260877878E+01 -0.81140629319E+00  0.89664595085E+00  0.37276868809E+01  0.51100000000E-03 0. -1.
        -11    1    3    3    0    0 -0.13484989546E+02 -0.77395308883E+01  0.14949711991E+02  0.21569403569E+02  0.51100000000E-03 0.  1.
        -12    1    3    3    0    0 -0.17890362726E+02 -0.24880680566E+01  0.10405184677E+02  0.20845225575E+02  0.00000000000E+00 0.  1.
</event>
<event>
 7    1  0.1503436E-008  0.4614232E+02  0.7816164E-02  0.1320468E+00
        -11   -1    0    0    0    0  0.00000000000E+00  0.00000000000E+00  0.45593999997E+02  0.45594000000E+02  0.51100000000E-03 0.  1.
         11   -1    0    0    0    0 -0.00000000000E+00 -0.00000000000E+00 -0.45593999997E+02  0.45594000000E+02  0.51100000000E-03 0. -1.
    9900012    2    1    2    0    0  0.23210489109E+00  0.37343759678E+02  0.25189348459E+02  0.46142317240E+02  0.99999952479E+01 0.  0.
         12    1    1    2    0    0 -0.23210489109E+00 -0.37343759678E+02 -0.25189348459E+02  0.45045682760E+02  0.00000000000E+00 0. -1.
         11    1    3    3    0    0  0.18100421877E+00  0.13435520131E+02  0.45335054834E+01  0.14180925074E+02  0.51100000000E-03 0. -1.
        -11    1    3    3    0    0 -0.20138551794E+01  0.18052802680E+02  0.15895333966E+02  0.24137542116E+02  0.51100000000E-03 0.  1.
        -12    1    3    3    0    0  0.20649558518E+01  0.58554368667E+01  0.47605090100E+01  0.78238500499E+01  0.00000000000E+00 0.  1.
</event>
<event>
 7    1  0.1503436E-008  0.4614232E+02  0.7816164E-02  0.1320468E+00
        -11   -1    0    0    0    0  0.00000000000E+00  0.00000000000E+00  0.45593999997E+02  0.45594000000E+02  0.51100000000E-03 0. -1.
         11   -1    0    0    0    0 -0.00000000000E+00 -0.00000000000E+00 -0.45593999997E+02  0.45594000000E+02  0.51100000000E-03 0.  1.
    9900012    2    1    2    0    0  0.38397366416E+02 -0.23311540012E+02  0.33656838170E+01  0.46142317932E+02  0.10000001555E+02 0.  0.
         12    1    1    2    0    0 -0.38397366416E+02  0.23311540012E+02 -0.33656838170E+01  0.45045682068E+02  0.00000000000E+00 0. -1.
         11    1    3    3    0    0  0.12808575571E+02 -0.11676229990E+02 -0.98782585784E+00  0.17360004468E+02  0.51100000000E-03 0. -1.
        -11    1    3    3    0    0  0.92705444521E+01 -0.35670012536E+01 -0.48958961132E+00  0.99451591556E+01  0.51100000000E-03 0.  1.
         12    1    3    3    0    0  0.16318246393E+02 -0.80683087678E+01  0.48430992862E+01  0.18837154308E+02  0.00000000000E+00 0. -1.
</event>
<event>
 7    1  0.1503436E-008  0.4614232E+02  0.7816164E-02  0.1320468E+00
        -11   -1    0    0    0    0  0.00000000000E+00  0.00000000000E+00  0.45593999997E+02  0.45594000000E+02  0.51100000000E-03 0. -1.
         11   -1    0    0    0    0 -0.00000000000E+00 -0.00000000000E+00 -0.45593999997E+02  0.45594000000E+02  0.51100000000E-03 0.  1.
    9900012    2    1    2    0    0  0.11605793916E+01  0.36535991951E+02 -0.26322760641E+02  0.46142318963E+02  0.10000010956E+02 0.  0.
         12    1    1    2    0    0 -0.11605793916E+01 -0.36535991951E+02  0.26322760641E+02  0.45045681037E+02  0.00000000000E+00 0. -1.
         11    1    3    3    0    0 -0.54016795930E+00  0.11476392691E+02 -0.45215995858E+01  0.12346830917E+02  0.51100000000E-03 0. -1.
        -11    1    3    3    0    0  0.17131812923E+01  0.65914510573E+01 -0.91640295610E+01  0.11417602867E+02  0.51100000000E-03 0.  1.
        -12    1    3    3    0    0 -0.12433941354E-01  0.18468148203E+02 -0.12637131494E+02  0.22377885178E+02  0.00000000000E+00 0.  1.
</event>
<event>
 7    1  0.1503436E-008  0.4614232E+02  0.7816164E-02  0.1320468E+00
        -11   -1    0    0    0    0  0.00000000000E+00  0.00000000000E+00  0.45593999997E+02  0.45594000000E+02  0.51100000000E-03 0.  1.
         11   -1    0    0    0    0 -0.00000000000E+00 -0.00000000000E+00 -0.45593999997E+02  0.45594000000E+02  0.51100000000E-03 0. -1.
    9900012    2    1    2    0    0  0.34602869021E+02  0.21730531579E+02  0.18961514217E+02  0.46142316870E+02  0.99999918757E+01 0.  0.
         12    1    1    2    0    0 -0.34602869021E+02 -0.21730531579E+02 -0.18961514217E+02  0.45045683130E+02  0.00000000000E+00 0. -1.
         11    1    3    3    0    0  0.67136994056E+00 -0.33409547331E+00  0.73427858699E+00  0.10495345096E+01  0.51100000000E-03 0. -1.
        -11    1    3    3    0    0  0.32015491584E+02  0.17971861647E+02  0.15902971141E+02  0.40011048522E+02  0.51100000000E-03 0.  1.
        -12    1    3    3    0    0  0.19160074965E+01  0.40927654058E+01  0.23242644886E+01  0.50817338386E+01  0.00000000000E+00 0.  1.
</event>
<event>
 7    1  0.1503436E-008  0.4614232E+02  0.7816164E-02  0.1320468E+00
        -11   -1    0    0    0    0  0.00000000000E+00  0.00000000000E+00  0.45593999997E+02  0.45594000000E+02  0.51100000000E-03 0.  1.
         11   -1    0    0    0    0 -0.00000000000E+00 -0.00000000000E+00 -0.45593999997E+02  0.45594000000E+02  0.51100000000E-03 0. -1.
    9900012    2    1    2    0    0 -0.23740108188E+02 -0.35942050246E+02  0.13179143027E+02  0.46142317370E+02  0.99999964314E+01 0.  0.
         12    1    1    2    0    0  0.23740108188E+02  0.35942050246E+02 -0.13179143027E+02  0.45045682630E+02  0.00000000000E+00 0. -1.
         11    1    3    3    0    0 -0.12509471956E+02 -0.14256521208E+02  0.85958556622E+01  0.20823640902E+02  0.51100000000E-03 0. -1.
        -11    1    3    3    0    0 -0.96492210169E+01 -0.17058957549E+02  0.17722730499E+01  0.19678832560E+02  0.51100000000E-03 0.  1.
        -12    1    3    3    0    0 -0.15814152148E+01 -0.46265714890E+01  0.28110143154E+01  0.56398439080E+01  0.00000000000E+00 0.  1.
</event>
<event>
 7    1  0.1503436E-008  0.4614232E+02  0.7816164E-02  0.1320468E+00
        -11   -1    0    0    0    0  0.00000000000E+00  0.00000000000E+00  0.45593999997E+02  0.45594000000E+02  0.51100000000E-03 0.  1.
         11   -1    0    0    0    0 -0.00000000000E+00 -0.00000000000E+00 -0.45593999997E+02  0.45594000000E+02  0.51100000000E-03 0. -1.
    9900012    2    1    2    0    0 -0.20371862157E+02  0.35452175102E+02  0.18900899512E+02  0.46142317748E+02  0.99999998782E+01 0.  0.
         12    1    1    2    0    0  0.20371862157E+02 -0.35452175102E+02 -0.18900899512E+02  0.45045682252E+02  0.00000000000E+00 0. -1.
         11    1    3    3    0    0 -0.44428079536E+01  0.65603165264E+01 -0.92891879633E-01  0.79236938736E+01  0.51100000000E-03 0. -1.
        -11    1    3    3    0    0 -0.11147598484E+02  0.17144449069E+02  0.10908722317E+02  0.23177603601E+02  0.51100000000E-03 0.  1.
         12    1    3    3    0    0 -0.47814557191E+01  0.11747409506E+02  0.80850690747E+01  0.15041020273E+02  0.00000000000E+00 0. -1.
</event>
<event>
 7    1  0.1503436E-008  0.4614232E+02  0.7816164E-02  0.1320468E+00
        -11   -1    0    0    0    0  0.00000000000E+00  0.00000000000E+00  0.45593999997E+02  0.45594000000E+02  0.51100000000E-03 0. -1.
         11   -1    0    0    0    0 -0.00000000000E+00 -0.00000000000E+00 -0.45593999997E+02  0.45594000000E+02  0.51100000000E-03 0.  1.
    9900012    2    1    2    0    0 -0.43710411032E+02 -0.10855827781E+02 -0.81515095275E+00  0.46142317627E+02  0.99999987775E+01 0.  0.
         12    1    1    2    0    0  0.43710411032E+02  0.10855827781E+02  0.81515095275E+00  0.45045682373E+02  0.00000000000E+00 0. -1.
         11    1    3    3    0    0 -0.25778869254E+02 -0.62598647594E+01 -0.48529201148E+01  0.26968256167E+02  0.51100000000E-03 0. -1.
        -11    1    3    3    0    0 -0.11086757191E+02 -0.37784187498E+01  0.14130957663E+01  0.11797858838E+02  0.51100000000E-03 0.  1.
        -12    1    3    3    0    0 -0.68447845866E+01 -0.81754427203E+00  0.26246733958E+01  0.73762026211E+01  0.00000000000E+00 0.  1.
</event>
<event>
 7    1  0.1503436E-008  0.4614232E+02  0.7816164E-02  0.1320468E+00
        -11   -1    0    0    0    0  0.00000000000E+00  0.00000000000E+00  0.45593999997E+02  0.45594000000E+02  0.51100000000E-03 0.  1.
         11   -1    0    0    0    0 -0.00000000000E+00 -0.00000000000E+00 -0.45593999997E+02  0.45594000000E+02  0.51100000000E-03 0. -1.
    9900012    2    1    2    0    0  0.91225293852E+00  0.18343788746E+02  0.41131334138E+02  0.46142318310E+02  0.10000005005E+02 0.  0.
         12    1    1    2    0    0 -0.91225293852E+00 -0.18343788746E+02 -0.41131334138E+02  0.45045681690E+02  0.00000000000E+00 0. -1.
         11    1    3    3    0    0 -0.72842424425E+00  0.58901555012E+01  0.70055342662E+01  0.91816144727E+01  0.51100000000E-03 0. -1.
        -11    1    3    3    0    0 -0.15666378414E+01  0.41764498045E+01  0.60608927186E+01  0.75253908805E+01  0.51100000000E-03 0.  1.
        -12    1    3    3    0    0  0.32073150242E+01  0.82771834398E+01  0.28064907153E+02  0.29435312957E+02  0.00000000000E+00 0.  1.
</event>
<event>
 7    1  0.1503436E-008  0.4614231E+02  0.7816164E-02  0.1320468E+00
        -11   -1    0    0    0    0  0.00000000000E+00  0.00000000000E+00  0.45593999997E+02  0.45594000000E+02  0.51100000000E-03 0.  1.
         11   -1    0    0    0    0 -0.00000000000E+00 -0.00000000000E+00 -0.45593999997E+02  0.45594000000E+02  0.51100000000E-03 0. -1.
    9900012    2    1    2    0    0 -0.12356002394E+02  0.77421696688E+01  0.42620438851E+02  0.46142314367E+02  0.99999690500E+01 0.  0.
         12    1    1    2    0    0  0.12356002394E+02 -0.77421696688E+01 -0.42620438851E+02  0.45045685633E+02  0.00000000000E+00 0. -1.
         11    1    3    3    0    0 -0.32169022902E+01  0.28102251132E+00  0.34134573683E+01  0.46988429919E+01  0.51100000000E-03 0. -1.
        -11    1    3    3    0    0 -0.99530586808E+01  0.74894338690E+01  0.37982991265E+02  0.39973273852E+02  0.51100000000E-03 0.  1.
         12    1    3    3    0    0  0.81395857743E+00 -0.28286711462E-01  0.12239902174E+01  0.14701975228E+01  0.00000000000E+00 0. -1.
</event>
<event>
 7    1  0.1503436E-008  0.4614232E+02  0.7816164E-02  0.1320468E+00
        -11   -1    0    0    0    0  0.00000000000E+00  0.00000000000E+00  0.45593999997E+02  0.45594000000E+02  0.51100000000E-03 0.  1.
         11   -1    0    0    0    0 -0.00000000000E+00 -0.00000000000E+00 -0.45593999997E+02  0.45594000000E+02  0.51100000000E-03 0. -1.
    9900012    2    1    2    0    0  0.20620944842E+02 -0.38754519974E+02  0.10098366649E+02  0.46142321033E+02  0.10000029835E+02 0.  0.
         12    1    1    2    0    0 -0.20620944842E+02  0.38754519974E+02 -0.10098366649E+02  0.45045678967E+02  0.00000000000E+00 0. -1.
         11    1    3    3    0    0  0.12977816766E+02 -0.19365756976E+02  0.10314347077E+01  0.23334955091E+02  0.51100000000E-03 0. -1.
        -11    1    3    3    0    0  0.43512563493E+01 -0.12833001587E+02  0.65600432409E+01  0.15055016743E+02  0.51100000000E-03 0.  1.
         12    1    3    3    0    0  0.32918717266E+01 -0.65557614112E+01  0.25068887007E+01  0.77523491990E+01  0.00000000000E+00 0. -1.
</event>
<event>
 7    1  0.1503436E-008  0.4614232E+02  0.7816164E-02  0.1320468E+00
        -11   -1    0    0    0    0  0.00000000000E+00  0.00000000000E+00  0.45593999997E+02  0.45594000000E+02  0.51100000000E-03 0. -1.
         11   -1    0    0    0    0 -0.00000000000E+00 -0.00000000000E+00 -0.45593999997E+02  0.45594000000E+02  0.51100000000E-03 0.  1.
    9900012    2    1    2    0    0 -0.20359351141E+02  0.36982367681E+02 -0.15713522504E+02  0.46142317769E+02  0.10000000068E+02 0.  0.
         12    1    1    2    0    0  0.20359351141E+02 -0.36982367681E+02  0.15713522504E+02  0.45045682231E+02  0.00000000000E+00 0. -1.
         11    1    3    3    0    0 -0.32144467055E+01  0.73218080963E+01 -0.25562660962E+01  0.83950007765E+01  0.51100000000E-03 0.  1.
        -11    1    3    3    0    0 -0.41552377313E+01  0.26923954893E+01  0.22996980483E+00  0.49565996859E+01  0.51100000000E-03 0. -1.
        -12    1    3    3    0    0 -0.12989666705E+02  0.26968164096E+02 -0.13387226212E+02  0.32790717306E+02  0.00000000000E+00 0.  1.
</event>
<event>
 7    1  0.1503436E-008  0.4614232E+02  0.7816164E-02  0.1320468E+00
        -11   -1    0    0    0    0  0.00000000000E+00  0.00000000000E+00  0.45593999997E+02  0.45594000000E+02  0.51100000000E-03 0.  1.
         11   -1    0    0    0    0 -0.00000000000E+00 -0.00000000000E+00 -0.45593999997E+02  0.45594000000E+02  0.51100000000E-03 0. -1.
    9900012    2    1    2    0    0 -0.20443304360E+01  0.15018950445E+02  0.42418927127E+02  0.46142317210E+02  0.99999949706E+01 0.  0.
         12    1    1    2    0    0  0.20443304360E+01 -0.15018950445E+02 -0.42418927127E+02  0.45045682790E+02  0.00000000000E+00 0. -1.
         11    1    3    3    0    0  0.22310440017E+01  0.20230687992E+01  0.40910646669E+01  0.50800762862E+01  0.51100000000E-03 0. -1.
        -11    1    3    3    0    0 -0.29649821800E+01  0.95134657166E+01  0.33596204094E+02  0.35042860600E+02  0.51100000000E-03 0.  1.
         12    1    3    3    0    0 -0.13103922576E+01  0.34824159297E+01  0.47316583666E+01  0.60193803231E+01  0.00000000000E+00 0. -1.
</event>
<event>
 7    1  0.1503436E-008  0.4614232E+02  0.7816164E-02  0.1320468E+00
        -11   -1    0    0    0    0  0.00000000000E+00  0.00000000000E+00  0.45593999997E+02  0.45594000000E+02  0.51100000000E-03 0.  1.
         11   -1    0    0    0    0 -0.00000000000E+00 -0.00000000000E+00 -0.45593999997E+02  0.45594000000E+02  0.51100000000E-03 0. -1.
    9900012    2    1    2    0    0 -0.26648604284E+02  0.14000274336E+02  0.33510562020E+02  0.46142316981E+02  0.99999928882E+01 0.  0.
         12    1    1    2    0    0  0.26648604284E+02 -0.14000274336E+02 -0.33510562020E+02  0.45045683019E+02  0.00000000000E+00 0. -1.
         11    1    3    3    0    0 -0.16162015801E+02  0.82915093826E+01  0.23457007972E+02  0.29668014863E+02  0.51100000000E-03 0.  1.
        -11    1    3    3    0    0 -0.53108315532E+01  0.41907205260E-01  0.49300047190E+01  0.72464912055E+01  0.51100000000E-03 0. -1.
         12    1    3    3    0    0 -0.51757569291E+01  0.56668577486E+01  0.51235493282E+01  0.92278109132E+01  0.00000000000E+00 0. -1.
</event>
<event>
 7    1  0.1503436E-008  0.4614232E+02  0.7816164E-02  0.1320468E+00
        -11   -1    0    0    0    0  0.00000000000E+00  0.00000000000E+00  0.45593999997E+02  0.45594000000E+02  0.51100000000E-03 0. -1.
         11   -1    0    0    0    0 -0.00000000000E+00 -0.00000000000E+00 -0.45593999997E+02  0.45594000000E+02  0.51100000000E-03 0.  1.
    9900012    2    1    2    0    0 -0.39797612506E+02 -0.13660298382E+02 -0.16082904190E+02  0.46142317407E+02  0.99999967686E+01 0.  0.
         12    1    1    2    0    0  0.39797612506E+02  0.13660298382E+02  0.16082904190E+02  0.45045682593E+02  0.00000000000E+00 0. -1.
         11    1    3    3    0    0 -0.13489432344E+01  0.50661453011E+00 -0.40220606220E+00  0.14960200899E+01  0.51100000000E-03 0. -1.
        -11    1    3    3    0    0 -0.33870949524E+02 -0.10070810236E+02 -0.11291799264E+02  0.37096727232E+02  0.51100000000E-03 0.  1.
         12    1    3    3    0    0 -0.45777197485E+01 -0.40961026755E+01 -0.43888988646E+01  0.75495700849E+01  0.00000000000E+00 0. -1.
</event>
<event>
 7    1  0.1503436E-008  0.4614232E+02  0.7816164E-02  0.1320468E+00
        -11   -1    0    0    0    0  0.00000000000E+00  0.00000000000E+00  0.45593999997E+02  0.45594000000E+02  0.51100000000E-03 0. -1.
         11   -1    0    0    0    0 -0.00000000000E+00 -0.00000000000E+00 -0.45593999997E+02  0.45594000000E+02  0.51100000000E-03 0.  1.
    9900012    2    1    2    0    0 -0.16238930748E+02  0.26418676112E+00 -0.42015958923E+02  0.46142317957E+02  0.10000001786E+02 0.  0.
         12    1    1    2    0    0  0.16238930748E+02 -0.26418676112E+00  0.42015958923E+02  0.45045682043E+02  0.00000000000E+00 0. -1.
         11    1    3    3    0    0 -0.32904766432E+01 -0.34518196825E+01 -0.11892850512E+02  0.12813359794E+02  0.51100000000E-03 0. -1.
        -11    1    3    3    0    0 -0.31261651013E+01  0.29910346409E+01 -0.75718778770E+01  0.87208102438E+01  0.51100000000E-03 0.  1.
        -12    1    3    3    0    0 -0.98222890032E+01  0.72497180282E+00 -0.22551230535E+02  0.24608147919E+02  0.00000000000E+00 0.  1.
</event>
<event>
 7    1  0.1503436E-008  0.4614232E+02  0.7816164E-02  0.1320468E+00
        -11   -1    0    0    0    0  0.00000000000E+00  0.00000000000E+00  0.45593999997E+02  0.45594000000E+02  0.51100000000E-03 0. -1.
         11   -1    0    0    0    0 -0.00000000000E+00 -0.00000000000E+00 -0.45593999997E+02  0.45594000000E+02  0.51100000000E-03 0.  1.
    9900012    2    1    2    0    0  0.21987758954E+02  0.87112305679E+01 -0.38337533182E+02  0.46142317273E+02  0.99999955527E+01 0.  0.
         12    1    1    2    0    0 -0.21987758954E+02 -0.87112305679E+01  0.38337533182E+02  0.45045682727E+02  0.00000000000E+00 0. -1.
         11    1    3    3    0    0  0.81586136810E+00  0.21956765270E+01 -0.85234842747E+01  0.88394801672E+01  0.51100000000E-03 0. -1.
        -11    1    3    3    0    0  0.15069799997E+02  0.55008705885E+01 -0.23587031022E+02  0.28525540869E+02  0.51100000000E-03 0.  1.
         12    1    3    3    0    0  0.61020975886E+01  0.10146834525E+01 -0.62270178855E+01  0.87772962372E+01  0.00000000000E+00 0. -1.
</event>
<event>
 7    1  0.1503436E-008  0.4614232E+02  0.7816164E-02  0.1320468E+00
        -11   -1    0    0    0    0  0.00000000000E+00  0.00000000000E+00  0.45593999997E+02  0.45594000000E+02  0.51100000000E-03 0. -1.
         11   -1    0    0    0    0 -0.00000000000E+00 -0.00000000000E+00 -0.45593999997E+02  0.45594000000E+02  0.51100000000E-03 0.  1.
    9900012    2    1    2    0    0  0.56072183491E+01  0.21066637308E+02 -0.39419151289E+02  0.46142316595E+02  0.99999893694E+01 0.  0.
         12    1    1    2    0    0 -0.56072183491E+01 -0.21066637308E+02  0.39419151289E+02  0.45045683405E+02  0.00000000000E+00 0. -1.
         11    1    3    3    0    0 -0.18817474536E+01  0.19948123190E+01 -0.65672174136E+01  0.71167825937E+01  0.51100000000E-03 0. -1.
        -11    1    3    3    0    0  0.62803596834E+01  0.96355640406E+01 -0.16631726386E+02  0.20221308933E+02  0.51100000000E-03 0.  1.
        -12    1    3    3    0    0  0.12086061194E+01  0.94362609483E+01 -0.16220207489E+02  0.18804225068E+02  0.00000000000E+00 0.  1.
</event>
<event>
 7    1  0.1503436E-008  0.4614232E+02  0.7816164E-02  0.1320468E+00
        -11   -1    0    0    0    0  0.00000000000E+00  0.00000000000E+00  0.45593999997E+02  0.45594000000E+02  0.51100000000E-03 0.  1.
         11   -1    0    0    0    0 -0.00000000000E+00 -0.00000000000E+00 -0.45593999997E+02  0.45594000000E+02  0.51100000000E-03 0. -1.
    9900012    2    1    2    0    0  0.41972052587E+02  0.16177209094E+02  0.23996223817E+01  0.46142317854E+02  0.10000000847E+02 0.  0.
         12    1    1    2    0    0 -0.41972052587E+02 -0.16177209094E+02 -0.23996223817E+01  0.45045682146E+02  0.00000000000E+00 0. -1.
         11    1    3    3    0    0  0.45690690404E+01  0.99674227419E-01 -0.43669871055E+00  0.45909729767E+01  0.51100000000E-03 0. -1.
        -11    1    3    3    0    0  0.13130312615E+02  0.53591376725E+01  0.47303051457E+01  0.14949958294E+02  0.51100000000E-03 0.  1.
        -12    1    3    3    0    0  0.24272670932E+02  0.10718397194E+02 -0.18939840534E+01  0.26601386583E+02  0.00000000000E+00 0.  1.
</event>
<event>
 7    1  0.1503436E-008  0.4614232E+02  0.7816164E-02  0.1320468E+00
        -11   -1    0    0    0    0  0.00000000000E+00  0.00000000000E+00  0.45593999997E+02  0.45594000000E+02  0.51100000000E-03 0.  1.
         11   -1    0    0    0    0 -0.00000000000E+00 -0.00000000000E+00 -0.45593999997E+02  0.45594000000E+02  0.51100000000E-03 0. -1.
    9900012    2    1    2    0    0  0.20368242450E+02  0.96448181188E+01  0.39002893834E+02  0.46142317138E+02  0.99999943180E+01 0.  0.
         12    1    1    2    0    0 -0.20368242450E+02 -0.96448181188E+01 -0.39002893834E+02  0.45045682862E+02  0.00000000000E+00 0. -1.
         11    1    3    3    0    0  0.96015925799E+01  0.52727390968E+00  0.11741438903E+02  0.15176626293E+02  0.51100000000E-03 0. -1.
        -11    1    3    3    0    0  0.75356217362E+01  0.48914874976E+01  0.13543076782E+02  0.16251989844E+02  0.51100000000E-03 0.  1.
         12    1    3    3    0    0  0.32310281341E+01  0.42260567115E+01  0.13718378149E+02  0.14713701002E+02  0.00000000000E+00 0. -1.
</event>
<event>
 7    1  0.1503436E-008  0.4614232E+02  0.7816164E-02  0.1320468E+00
        -11   -1    0    0    0    0  0.00000000000E+00  0.00000000000E+00  0.45593999997E+02  0.45594000000E+02  0.51100000000E-03 0.  1.
         11   -1    0    0    0    0 -0.00000000000E+00 -0.00000000000E+00 -0.45593999997E+02  0.45594000000E+02  0.51100000000E-03 0. -1.
    9900012    2    1    2    0    0 -0.21730933985E+02  0.36893045045E+02  0.13992252506E+02  0.46142318801E+02  0.10000009480E+02 0.  0.
         12    1    1    2    0    0  0.21730933985E+02 -0.36893045045E+02 -0.13992252506E+02  0.45045681199E+02  0.00000000000E+00 0. -1.
         11    1    3    3    0    0 -0.11038434417E+01  0.15771770838E+00  0.71232870068E-01  0.11173269898E+01  0.51100000000E-03 0. -1.
        -11    1    3    3    0    0 -0.84203618311E+01  0.11407738605E+02  0.80438809606E+01  0.16301626134E+02  0.51100000000E-03 0.  1.
        -12    1    3    3    0    0 -0.12206728712E+02  0.25327588731E+02  0.58771386752E+01  0.28723365677E+02  0.00000000000E+00 0.  1.
</event>
<event>
 7    1  0.1503436E-008  0.4614232E+02  0.7816164E-02  0.1320468E+00
        -11   -1    0    0    0    0  0.00000000000E+00  0.00000000000E+00  0.45593999997E+02  0.45594000000E+02  0.51100000000E-03 0.  1.
         11   -1    0    0    0    0 -0.00000000000E+00 -0.00000000000E+00 -0.45593999997E+02  0.45594000000E+02  0.51100000000E-03 0. -1.
    9900012    2    1    2    0    0  0.10997199355E+02  0.84336145095E+01  0.42860812066E+02  0.46142318095E+02  0.10000003042E+02 0.  0.
         12    1    1    2    0    0 -0.10997199355E+02 -0.84336145095E+01 -0.42860812066E+02  0.45045681905E+02  0.00000000000E+00 0. -1.
         11    1    3    3    0    0  0.22699882295E+01  0.21705067820E+01  0.20315225768E+02  0.20556564511E+02  0.51100000000E-03 0. -1.
        -11    1    3    3    0    0  0.17953459310E+01  0.36753265161E+01  0.12193196651E+02  0.12861000616E+02  0.51100000000E-03 0.  1.
         12    1    3    3    0    0  0.69318651947E+01  0.25877812114E+01  0.10352389647E+02  0.12724752968E+02  0.00000000000E+00 0. -1.
</event>
<event>
 7    1  0.1503436E-008  0.4614232E+02  0.7816164E-02  0.1320468E+00
        -11   -1    0    0    0    0  0.00000000000E+00  0.00000000000E+00  0.45593999997E+02  0.45594000000E+02  0.51100000000E-03 0.  1.
         11   -1    0    0    0    0 -0.00000000000E+00 -0.00000000000E+00 -0.45593999997E+02  0.45594000000E+02  0.51100000000E-03 0. -1.
    9900012    2    1    2    0    0 -0.23060368773E+02  0.36504672195E+01  0.38522809896E+02  0.46142318729E+02  0.10000008827E+02 0.  0.
         12    1    1    2    0    0  0.23060368773E+02 -0.36504672195E+01 -0.38522809896E+02  0.45045681271E+02  0.00000000000E+00 0. -1.
         11    1    3    3    0    0 -0.54556425460E+01  0.17371139667E+00  0.49199157211E+01  0.73484544091E+01  0.51100000000E-03 0.  1.
        -11    1    3    3    0    0 -0.50442507858E+01  0.26646532387E+01  0.51673842845E+01  0.76971880240E+01  0.51100000000E-03 0. -1.
         12    1    3    3    0    0 -0.12560475441E+02  0.81210258416E+00  0.28435509891E+02  0.31096676296E+02  0.00000000000E+00 0. -1.
</event>
<event>
 7    1  0.1503436E-008  0.4614232E+02  0.7816164E-02  0.1320468E+00
        -11   -1    0    0    0    0  0.00000000000E+00  0.00000000000E+00  0.45593999997E+02  0.45594000000E+02  0.51100000000E-03 0.  1.
         11   -1    0    0    0    0 -0.00000000000E+00 -0.00000000000E+00 -0.45593999997E+02  0.45594000000E+02  0.51100000000E-03 0. -1.
    9900012    2    1    2    0    0  0.33818451551E+02  0.28124003879E+01  0.29622899988E+02  0.46142318021E+02  0.10000002369E+02 0.  0.
         12    1    1    2    0    0 -0.33818451551E+02 -0.28124003879E+01 -0.29622899988E+02  0.45045681979E+02  0.00000000000E+00 0. -1.
         11    1    3    3    0    0  0.13900497082E+02  0.42062088893E+01  0.80314765053E+01  0.16595801501E+02  0.51100000000E-03 0. -1.
        -11    1    3    3    0    0  0.12658180530E+02  0.29014020603E+00  0.14633604906E+02  0.19350868417E+02  0.51100000000E-03 0.  1.
         12    1    3    3    0    0  0.72597739385E+01 -0.16839487074E+01  0.69578185769E+01  0.10195648103E+02  0.00000000000E+00 0. -1.
</event>
<event>
 7    1  0.1503436E-008  0.4614232E+02  0.7816164E-02  0.1320468E+00
        -11   -1    0    0    0    0  0.00000000000E+00  0.00000000000E+00  0.45593999997E+02  0.45594000000E+02  0.51100000000E-03 0.  1.
         11   -1    0    0    0    0 -0.00000000000E+00 -0.00000000000E+00 -0.45593999997E+02  0.45594000000E+02  0.51100000000E-03 0. -1.
    9900012    2    1    2    0    0 -0.23423091037E+02 -0.35043203722E+02  0.15888554764E+02  0.46142317707E+02  0.99999995027E+01 0.  0.
         12    1    1    2    0    0  0.23423091037E+02  0.35043203722E+02 -0.15888554764E+02  0.45045682293E+02  0.00000000000E+00 0. -1.
         11    1    3    3    0    0 -0.40533627251E+01 -0.54654440910E+01  0.56905977593E+01  0.88703850882E+01  0.51100000000E-03 0. -1.
        -11    1    3    3    0    0 -0.87564954127E+01 -0.18229736781E+02  0.44679678087E+01  0.20711403902E+02  0.51100000000E-03 0.  1.
        -12    1    3    3    0    0 -0.10613232899E+02 -0.11348022850E+02  0.57299891960E+01  0.16560528716E+02  0.00000000000E+00 0.  1.
</event>
<event>
 7    1  0.1503436E-008  0.4614232E+02  0.7816164E-02  0.1320468E+00
        -11   -1    0    0    0    0  0.00000000000E+00  0.00000000000E+00  0.45593999997E+02  0.45594000000E+02  0.51100000000E-03 0. -1.
         11   -1    0    0    0    0 -0.00000000000E+00 -0.00000000000E+00 -0.45593999997E+02  0.45594000000E+02  0.51100000000E-03 0.  1.
    9900012    2    1    2    0    0  0.42318981753E+02  0.12248138998E+02 -0.93915068534E+01  0.46142317338E+02  0.99999961391E+01 0.  0.
         12    1    1    2    0    0 -0.42318981753E+02 -0.12248138998E+02  0.93915068534E+01  0.45045682662E+02  0.00000000000E+00 0. -1.
         11    1    3    3    0    0  0.18678838467E+02  0.57202557705E+00 -0.46634025664E+01  0.19260673495E+02  0.51100000000E-03 0. -1.
        -11    1    3    3    0    0  0.20047109174E+02  0.93224519027E+01 -0.32909625198E+01  0.22352295862E+02  0.51100000000E-03 0.  1.
        -12    1    3    3    0    0  0.35930341119E+01  0.23536615179E+01 -0.14371417672E+01  0.45293479805E+01  0.00000000000E+00 0.  1.
</event>
<event>
 7    1  0.1503436E-008  0.4614232E+02  0.7816164E-02  0.1320468E+00
        -11   -1    0    0    0    0  0.00000000000E+00  0.00000000000E+00  0.45593999997E+02  0.45594000000E+02  0.51100000000E-03 0. -1.
         11   -1    0    0    0    0 -0.00000000000E+00 -0.00000000000E+00 -0.45593999997E+02  0.45594000000E+02  0.51100000000E-03 0.  1.
    9900012    2    1    2    0    0  0.10448195375E+02  0.37490671246E+02 -0.22680349527E+02  0.46142317946E+02  0.10000001683E+02 0.  0.
         12    1    1    2    0    0 -0.10448195375E+02 -0.37490671246E+02  0.22680349527E+02  0.45045682054E+02  0.00000000000E+00 0. -1.
         11    1    3    3    0    0  0.15924916082E+01  0.51511163673E+01 -0.59901821357E+01  0.80592996985E+01  0.51100000000E-03 0. -1.
        -11    1    3    3    0    0  0.18417461866E+01  0.40243388432E+01  0.96531606933E-01  0.44268104491E+01  0.51100000000E-03 0.  1.
        -12    1    3    3    0    0  0.70139575803E+01  0.28315216036E+02 -0.16786698998E+02  0.33656207798E+02  0.00000000000E+00 0.  1.
</event>
<event>
 7    1  0.1503436E-008  0.4614232E+02  0.7816164E-02  0.1320468E+00
        -11   -1    0    0    0    0  0.00000000000E+00  0.00000000000E+00  0.45593999997E+02  0.45594000000E+02  0.51100000000E-03 0.  1.
         11   -1    0    0    0    0 -0.00000000000E+00 -0.00000000000E+00 -0.45593999997E+02  0.45594000000E+02  0.51100000000E-03 0. -1.
    9900012    2    1    2    0    0  0.35609350550E+01 -0.18424903668E+02  0.40950656274E+02  0.46142316711E+02  0.99999904280E+01 0.  0.
         12    1    1    2    0    0 -0.35609350550E+01  0.18424903668E+02 -0.40950656274E+02  0.45045683289E+02  0.00000000000E+00 0. -1.
         11    1    3    3    0    0 -0.44636719585E+00 -0.99143798276E+01  0.14617908744E+02  0.17668543441E+02  0.51100000000E-03 0. -1.
        -11    1    3    3    0    0  0.56273641150E+00 -0.58056224099E+01  0.19535883869E+02  0.20388052449E+02  0.51100000000E-03 0.  1.
        -12    1    3    3    0    0  0.34445658394E+01 -0.27049014306E+01  0.67968636614E+01  0.80857208215E+01  0.00000000000E+00 0.  1.
</event>
<event>
 7    1  0.1503436E-008  0.4614232E+02  0.7816164E-02  0.1320468E+00
        -11   -1    0    0    0    0  0.00000000000E+00  0.00000000000E+00  0.45593999997E+02  0.45594000000E+02  0.51100000000E-03 0.  1.
         11   -1    0    0    0    0 -0.00000000000E+00 -0.00000000000E+00 -0.45593999997E+02  0.45594000000E+02  0.51100000000E-03 0. -1.
    9900012    2    1    2    0    0 -0.17994653781E+02 -0.71776054872E+01  0.40666792732E+02  0.46142316341E+02  0.99999870466E+01 0.  0.
         12    1    1    2    0    0  0.17994653781E+02  0.71776054872E+01 -0.40666792732E+02  0.45045683659E+02  0.00000000000E+00 0. -1.
         11    1    3    3    0    0  0.36011979766E+00 -0.66507613148E+00  0.84452116048E+00  0.11336793113E+01  0.51100000000E-03 0. -1.
        -11    1    3    3    0    0 -0.18558325022E+02 -0.51874668796E+01  0.38803908006E+02  0.43325102620E+02  0.51100000000E-03 0.  1.
        -12    1    3    3    0    0  0.20355144288E+00 -0.13250624761E+01  0.10183635657E+01  0.16835344094E+01  0.00000000000E+00 0.  1.
</event>
<event>
 7    1  0.1503436E-008  0.4614232E+02  0.7816164E-02  0.1320468E+00
        -11   -1    0    0    0    0  0.00000000000E+00  0.00000000000E+00  0.45593999997E+02  0.45594000000E+02  0.51100000000E-03 0.  1.
         11   -1    0    0    0    0 -0.00000000000E+00 -0.00000000000E+00 -0.45593999997E+02  0.45594000000E+02  0.51100000000E-03 0. -1.
    9900012    2    1    2    0    0 -0.21745299920E+01 -0.13541484976E+02  0.42907028902E+02  0.46142317352E+02  0.99999962692E+01 0.  0.
         12    1    1    2    0    0  0.21745299920E+01  0.13541484976E+02 -0.42907028902E+02  0.45045682648E+02  0.00000000000E+00 0. -1.
         11    1    3    3    0    0 -0.38835888171E+01 -0.89769603045E+01  0.16750124728E+02  0.19396771821E+02  0.51100000000E-03 0. -1.
        -11    1    3    3    0    0 -0.38089058994E+00 -0.84314026822E+00  0.97058981294E+01  0.97498934308E+01  0.51100000000E-03 0.  1.
         12    1    3    3    0    0  0.20899494151E+01 -0.37213844029E+01  0.16451006045E+02  0.16995652100E+02  0.00000000000E+00 0. -1.
</event>
<event>
 7    1  0.1503436E-008  0.4614232E+02  0.7816164E-02  0.1320468E+00
        -11   -1    0    0    0    0  0.00000000000E+00  0.00000000000E+00  0.45593999997E+02  0.45594000000E+02  0.51100000000E-03 0.  1.
         11   -1    0    0    0    0 -0.00000000000E+00 -0.00000000000E+00 -0.45593999997E+02  0.45594000000E+02  0.51100000000E-03 0. -1.
    9900012    2    1    2    0    0 -0.25729191187E+02  0.12781266547E+02  0.34695264042E+02  0.46142318735E+02  0.10000008885E+02 0.  0.
         12    1    1    2    0    0  0.25729191187E+02 -0.12781266547E+02 -0.34695264042E+02  0.45045681265E+02  0.00000000000E+00 0. -1.
         11    1    3    3    0    0 -0.13271277252E+02  0.41616117317E+01  0.22916106721E+02  0.26806599180E+02  0.51100000000E-03 0.  1.
        -11    1    3    3    0    0 -0.84898634591E+01  0.71435668197E+01  0.83137902839E+01  0.13864610979E+02  0.51100000000E-03 0. -1.
        -12    1    3    3    0    0 -0.39680504757E+01  0.14760879953E+01  0.34653670366E+01  0.54711085756E+01  0.00000000000E+00 0.  1.
</event>
<event>
 7    1  0.1503436E-008  0.4614232E+02  0.7816164E-02  0.1320468E+00
        -11   -1    0    0    0    0  0.00000000000E+00  0.00000000000E+00  0.45593999997E+02  0.45594000000E+02  0.51100000000E-03 0.  1.
         11   -1    0    0    0    0 -0.00000000000E+00 -0.00000000000E+00 -0.45593999997E+02  0.45594000000E+02  0.51100000000E-03 0. -1.
    9900012    2    1    2    0    0 -0.46874899473E+01  0.27635956475E+02  0.35261804275E+02  0.46142317709E+02  0.99999995236E+01 0.  0.
         12    1    1    2    0    0  0.46874899473E+01 -0.27635956475E+02 -0.35261804275E+02  0.45045682291E+02  0.00000000000E+00 0. -1.
         11    1    3    3    0    0  0.70580496696E+00  0.30861075986E+01  0.21384686823E+01  0.38203755480E+01  0.51100000000E-03 0. -1.
        -11    1    3    3    0    0 -0.33827083195E+01  0.16514982619E+02  0.27684445990E+02  0.32413205897E+02  0.51100000000E-03 0.  1.
        -12    1    3    3    0    0 -0.20105865948E+01  0.80348662575E+01  0.54388896032E+01  0.99087362639E+01  0.00000000000E+00 0.  1.
</event>
<event>
 7    1  0.1503436E-008  0.4614232E+02  0.7816164E-02  0.1320468E+00
        -11   -1    0    0    0    0  0.00000000000E+00  0.00000000000E+00  0.45593999997E+02  0.45594000000E+02  0.51100000000E-03 0.  1.
         11   -1    0    0    0    0 -0.00000000000E+00 -0.00000000000E+00 -0.45593999997E+02  0.45594000000E+02  0.51100000000E-03 0. -1.
    9900012    2    1    2    0    0  0.15760089631E+02 -0.38508294270E+02  0.17258165960E+02  0.46142318242E+02  0.10000004388E+02 0.  0.
         12    1    1    2    0    0 -0.15760089631E+02  0.38508294270E+02 -0.17258165960E+02  0.45045681758E+02  0.00000000000E+00 0. -1.
         11    1    3    3    0    0  0.13388916043E+02 -0.25255625929E+02  0.96195795801E+01  0.30160338616E+02  0.51100000000E-03 0.  1.
        -11    1    3    3    0    0 -0.65649645922E+00 -0.11461940805E+01 -0.54351248174E-01  0.13220071068E+01  0.51100000000E-03 0. -1.
        -12    1    3    3    0    0  0.30276700464E+01 -0.12106474260E+02  0.76929376278E+01  0.14659972520E+02  0.00000000000E+00 0.  1.
</event>
<event>
 7    1  0.1503436E-008  0.4614232E+02  0.7816164E-02  0.1320468E+00
        -11   -1    0    0    0    0  0.00000000000E+00  0.00000000000E+00  0.45593999997E+02  0.45594000000E+02  0.51100000000E-03 0.  1.
         11   -1    0    0    0    0 -0.00000000000E+00 -0.00000000000E+00 -0.45593999997E+02  0.45594000000E+02  0.51100000000E-03 0. -1.
    9900012    2    1    2    0    0 -0.99191221757E+01 -0.33225895538E+02  0.28753509152E+02  0.46142318658E+02  0.10000008176E+02 0.  0.
         12    1    1    2    0    0  0.99191221757E+01  0.33225895538E+02 -0.28753509152E+02  0.45045681342E+02  0.00000000000E+00 0. -1.
         11    1    3    3    0    0  0.87264661429E+00 -0.44373130646E+01  0.73791251698E+01  0.86546373626E+01  0.51100000000E-03 0. -1.
        -11    1    3    3    0    0 -0.84896341720E+01 -0.24419660820E+02  0.17685024974E+02  0.31323375162E+02  0.51100000000E-03 0.  1.
         12    1    3    3    0    0 -0.23021346179E+01 -0.43689216534E+01  0.36893590086E+01  0.61643061335E+01  0.00000000000E+00 0. -1.
</event>
<event>
 7    1  0.1503436E-008  0.4614232E+02  0.7816164E-02  0.1320468E+00
        -11   -1    0    0    0    0  0.00000000000E+00  0.00000000000E+00  0.45593999997E+02  0.45594000000E+02  0.51100000000E-03 0. -1.
         11   -1    0    0    0    0 -0.00000000000E+00 -0.00000000000E+00 -0.45593999997E+02  0.45594000000E+02  0.51100000000E-03 0.  1.
    9900012    2    1    2    0    0  0.21677168627E+02 -0.10557586920E+02 -0.38049326518E+02  0.46142317302E+02  0.99999958142E+01 0.  0.
         12    1    1    2    0    0 -0.21677168627E+02  0.10557586920E+02  0.38049326518E+02  0.45045682698E+02  0.00000000000E+00 0. -1.
         11    1    3    3    0    0  0.80850805504E+01 -0.65225485257E+01 -0.16290559633E+02  0.19320830732E+02  0.51100000000E-03 0. -1.
        -11    1    3    3    0    0  0.10676891026E+02 -0.58772476426E+01 -0.17781862356E+02  0.21557659218E+02  0.51100000000E-03 0.  1.
         12    1    3    3    0    0  0.29151970502E+01  0.18422092486E+01 -0.39769045295E+01  0.52638273522E+01  0.00000000000E+00 0. -1.
</event>
<event>
 7    1  0.1503436E-008  0.4614232E+02  0.7816164E-02  0.1320468E+00
        -11   -1    0    0    0    0  0.00000000000E+00  0.00000000000E+00  0.45593999997E+02  0.45594000000E+02  0.51100000000E-03 0. -1.
         11   -1    0    0    0    0 -0.00000000000E+00 -0.00000000000E+00 -0.45593999997E+02  0.45594000000E+02  0.51100000000E-03 0.  1.
    9900012    2    1    2    0    0 -0.25330613801E+01 -0.26983115190E+02 -0.35980670173E+02  0.46142317284E+02  0.99999956454E+01 0.  0.
         12    1    1    2    0    0  0.25330613801E+01  0.26983115190E+02  0.35980670173E+02  0.45045682716E+02  0.00000000000E+00 0. -1.
         11    1    3    3    0    0  0.26363636495E+00 -0.41762331502E+00 -0.57317664410E+01  0.57530044465E+01  0.51100000000E-03 0. -1.
        -11    1    3    3    0    0 -0.21747874659E+01 -0.24690744284E+02 -0.28150858486E+02  0.37507777694E+02  0.51100000000E-03 0.  1.
         12    1    3    3    0    0 -0.62191027908E+00 -0.18747475901E+01 -0.20980452464E+01  0.28815351426E+01  0.00000000000E+00 0. -1.
</event>
<event>
 7    1  0.1503436E-008  0.4614232E+02  0.7816164E-02  0.1320468E+00
        -11   -1    0    0    0    0  0.00000000000E+00  0.00000000000E+00  0.45593999997E+02  0.45594000000E+02  0.51100000000E-03 0.  1.
         11   -1    0    0    0    0 -0.00000000000E+00 -0.00000000000E+00 -0.45593999997E+02  0.45594000000E+02  0.51100000000E-03 0. -1.
    9900012    2    1    2    0    0  0.31448275483E+02 -0.20461042679E+02  0.24929201117E+02  0.46142319111E+02  0.10000012314E+02 0.  0.
         12    1    1    2    0    0 -0.31448275483E+02  0.20461042679E+02 -0.24929201117E+02  0.45045680889E+02  0.00000000000E+00 0. -1.
         11    1    3    3    0    0  0.22279171156E+02 -0.14747109451E+02  0.18879490819E+02  0.32715040553E+02  0.51100000000E-03 0. -1.
        -11    1    3    3    0    0  0.22789088835E+01  0.12026728658E+00  0.32567217040E+01  0.39766979314E+01  0.51100000000E-03 0.  1.
         12    1    3    3    0    0  0.68901954431E+01 -0.58342005150E+01  0.27929885943E+01  0.94505806266E+01  0.00000000000E+00 0. -1.
</event>
<event>
 7    1  0.1503436E-008  0.4614232E+02  0.7816164E-02  0.1320468E+00
        -11   -1    0    0    0    0  0.00000000000E+00  0.00000000000E+00  0.45593999997E+02  0.45594000000E+02  0.51100000000E-03 0.  1.
         11   -1    0    0    0    0 -0.00000000000E+00 -0.00000000000E+00 -0.45593999997E+02  0.45594000000E+02  0.51100000000E-03 0. -1.
    9900012    2    1    2    0    0 -0.43764202118E+01  0.30415817591E+02  0.32936886913E+02  0.46142317265E+02  0.99999954716E+01 0.  0.
         12    1    1    2    0    0  0.43764202118E+01 -0.30415817591E+02 -0.32936886913E+02  0.45045682735E+02  0.00000000000E+00 0. -1.
         11    1    3    3    0    0 -0.10077187952E+01  0.12654774986E+01 -0.35382472598E+00  0.16559355868E+01  0.51100000000E-03 0. -1.
        -11    1    3    3    0    0 -0.77803488822E+00  0.15755117148E+02  0.16102720997E+02  0.22541665387E+02  0.51100000000E-03 0.  1.
        -12    1    3    3    0    0 -0.25906665283E+01  0.13395222944E+02  0.17187990642E+02  0.21944716291E+02  0.00000000000E+00 0.  1.
</event>
<event>
 7    1  0.1503436E-008  0.4614232E+02  0.7816164E-02  0.1320468E+00
        -11   -1    0    0    0    0  0.00000000000E+00  0.00000000000E+00  0.45593999997E+02  0.45594000000E+02  0.51100000000E-03 0.  1.
         11   -1    0    0    0    0 -0.00000000000E+00 -0.00000000000E+00 -0.45593999997E+02  0.45594000000E+02  0.51100000000E-03 0. -1.
    9900012    2    1    2    0    0  0.12839796169E+02  0.14006290782E+02  0.40842096033E+02  0.46142319236E+02  0.10000013449E+02 0.  0.
         12    1    1    2    0    0 -0.12839796169E+02 -0.14006290782E+02 -0.40842096033E+02  0.45045680764E+02  0.00000000000E+00 0. -1.
         11    1    3    3    0    0  0.83461732057E+00  0.55038838440E+01  0.66181980528E+01  0.86481136190E+01  0.51100000000E-03 0. -1.
        -11    1    3    3    0    0  0.11120595849E+02  0.63450964541E+01  0.26586256876E+02  0.29508591223E+02  0.51100000000E-03 0.  1.
        -12    1    3    3    0    0  0.88458299920E+00  0.21573104844E+01  0.76376411039E+01  0.79856143935E+01  0.00000000000E+00 0.  1.
</event>
<event>
 7    1  0.1503436E-008  0.4614232E+02  0.7816164E-02  0.1320468E+00
        -11   -1    0    0    0    0  0.00000000000E+00  0.00000000000E+00  0.45593999997E+02  0.45594000000E+02  0.51100000000E-03 0. -1.
         11   -1    0    0    0    0 -0.00000000000E+00 -0.00000000000E+00 -0.45593999997E+02  0.45594000000E+02  0.51100000000E-03 0.  1.
    9900012    2    1    2    0    0  0.31084072705E+02 -0.32503249987E+02  0.25362489964E+01  0.46142318802E+02  0.10000009490E+02 0.  0.
         12    1    1    2    0    0 -0.31084072705E+02  0.32503249987E+02 -0.25362489964E+01  0.45045681198E+02  0.00000000000E+00 0. -1.
         11    1    3    3    0    0  0.20237147755E+01 -0.80014187375E+00  0.36617305850E-01  0.21764626344E+01  0.51100000000E-03 0. -1.
        -11    1    3    3    0    0  0.26268083623E+02 -0.27641869134E+02  0.49663054024E+01  0.38454509957E+02  0.51100000000E-03 0.  1.
        -12    1    3    3    0    0  0.27922743067E+01 -0.40612389789E+01 -0.24666737118E+01  0.55113462102E+01  0.00000000000E+00 0.  1.
</event>
<event>
 7    1  0.1503436E-008  0.4614232E+02  0.7816164E-02  0.1320468E+00
        -11   -1    0    0    0    0  0.00000000000E+00  0.00000000000E+00  0.45593999997E+02  0.45594000000E+02  0.51100000000E-03 0.  1.
         11   -1    0    0    0    0 -0.00000000000E+00 -0.00000000000E+00 -0.45593999997E+02  0.45594000000E+02  0.51100000000E-03 0. -1.
    9900012    2    1    2    0    0 -0.51619699549E+00  0.35875981550E+02  0.27235289331E+02  0.46142317672E+02  0.99999991831E+01 0.  0.
         12    1    1    2    0    0  0.51619699549E+00 -0.35875981550E+02 -0.27235289331E+02  0.45045682328E+02  0.00000000000E+00 0. -1.
         11    1    3    3    0    0 -0.12215861038E+01  0.92851879705E+00  0.15883369092E+01  0.22084460971E+01  0.51100000000E-03 0. -1.
        -11    1    3    3    0    0  0.12523592160E+01  0.33212722076E+02  0.21998330852E+02  0.39856992760E+02  0.51100000000E-03 0.  1.
        -12    1    3    3    0    0 -0.54697010770E+00  0.17347406770E+01  0.36486215692E+01  0.40768788148E+01  0.00000000000E+00 0.  1.
</event>
<event>
 7    1  0.1503436E-008  0.4614232E+02  0.7816164E-02  0.1320468E+00
        -11   -1    0    0    0    0  0.00000000000E+00  0.00000000000E+00  0.45593999997E+02  0.45594000000E+02  0.51100000000E-03 0.  1.
         11   -1    0    0    0    0 -0.00000000000E+00 -0.00000000000E+00 -0.45593999997E+02  0.45594000000E+02  0.51100000000E-03 0. -1.
    9900012    2    1    2    0    0 -0.40055731684E+02 -0.20606779682E+02  0.11208665973E+00  0.46142316822E+02  0.99999914328E+01 0.  0.
         12    1    1    2    0    0  0.40055731684E+02  0.20606779682E+02 -0.11208665973E+00  0.45045683178E+02  0.00000000000E+00 0. -1.
         11    1    3    3    0    0 -0.22848347937E+02 -0.14632008856E+02  0.51100874458E+00  0.27136761354E+02  0.51100000000E-03 0. -1.
        -11    1    3    3    0    0 -0.16202004241E+02 -0.59373898558E+01  0.99749692501E+00  0.17284459497E+02  0.51100000000E-03 0.  1.
        -12    1    3    3    0    0 -0.10053795058E+01 -0.37380970328E-01 -0.13964190099E+01  0.17210959702E+01  0.00000000000E+00 0.  1.
</event>
<event>
 7    1  0.1503436E-008  0.4614232E+02  0.7816164E-02  0.1320468E+00
        -11   -1    0    0    0    0  0.00000000000E+00  0.00000000000E+00  0.45593999997E+02  0.45594000000E+02  0.51100000000E-03 0.  1.
         11   -1    0    0    0    0 -0.00000000000E+00 -0.00000000000E+00 -0.45593999997E+02  0.45594000000E+02  0.51100000000E-03 0. -1.
    9900012    2    1    2    0    0  0.19168003085E+02  0.19341671241E+02  0.35883155942E+02  0.46142317976E+02  0.10000001958E+02 0.  0.
         12    1    1    2    0    0 -0.19168003085E+02 -0.19341671241E+02 -0.35883155942E+02  0.45045682024E+02  0.00000000000E+00 0. -1.
         11    1    3    3    0    0  0.53900060220E+01  0.91010939395E+00  0.83995993273E+01  0.10021663193E+02  0.51100000000E-03 0. -1.
        -11    1    3    3    0    0  0.11059245546E+02  0.11600642918E+02  0.20002362004E+02  0.25631549195E+02  0.51100000000E-03 0.  1.
         12    1    3    3    0    0  0.27187515168E+01  0.68309189297E+01  0.74811946109E+01  0.10489105588E+02  0.00000000000E+00 0. -1.
</event>
<event>
 7    1  0.1503436E-008  0.4614232E+02  0.7816164E-02  0.1320468E+00
        -11   -1    0    0    0    0  0.00000000000E+00  0.00000000000E+00  0.45593999997E+02  0.45594000000E+02  0.51100000000E-03 0.  1.
         11   -1    0    0    0    0 -0.00000000000E+00 -0.00000000000E+00 -0.45593999997E+02  0.45594000000E+02  0.51100000000E-03 0. -1.
    9900012    2    1    2    0    0  0.42608927935E+02 -0.14129865078E+02  0.37335184579E+01  0.46142323326E+02  0.10000050746E+02 0.  0.
         12    1    1    2    0    0 -0.42608927935E+02  0.14129865078E+02 -0.37335184579E+01  0.45045676674E+02  0.00000000000E+00 0. -1.
         11    1    3    3    0    0  0.47602764755E+01 -0.78904242147E+00  0.27102146585E+01  0.55342645241E+01  0.51100000000E-03 0. -1.
        -11    1    3    3    0    0  0.31188997423E+02 -0.12138220221E+02 -0.11872699752E+01  0.33488797539E+02  0.51100000000E-03 0.  1.
        -12    1    3    3    0    0  0.66596540374E+01 -0.12026024353E+01  0.22105737745E+01  0.71192612628E+01  0.00000000000E+00 0.  1.
</event>
<event>
 7    1  0.1503436E-008  0.4614232E+02  0.7816164E-02  0.1320468E+00
        -11   -1    0    0    0    0  0.00000000000E+00  0.00000000000E+00  0.45593999997E+02  0.45594000000E+02  0.51100000000E-03 0.  1.
         11   -1    0    0    0    0 -0.00000000000E+00 -0.00000000000E+00 -0.45593999997E+02  0.45594000000E+02  0.51100000000E-03 0. -1.
    9900012    2    1    2    0    0 -0.11796684586E+02 -0.30095648265E+02  0.31372020114E+02  0.46142318101E+02  0.10000003096E+02 0.  0.
         12    1    1    2    0    0  0.11796684586E+02  0.30095648265E+02 -0.31372020114E+02  0.45045681899E+02  0.00000000000E+00 0. -1.
         11    1    3    3    0    0  0.60078781757E+00 -0.81183281030E+00  0.40735446463E+01  0.41968779777E+01  0.51100000000E-03 0. -1.
        -11    1    3    3    0    0 -0.80394503256E+01 -0.17502417153E+02  0.15712310147E+02  0.24856469141E+02  0.51100000000E-03 0.  1.
         12    1    3    3    0    0 -0.43580220780E+01 -0.11781398302E+02  0.11586165321E+02  0.17088970982E+02  0.00000000000E+00 0. -1.
</event>
<event>
 7    1  0.1503436E-008  0.4614232E+02  0.7816164E-02  0.1320468E+00
        -11   -1    0    0    0    0  0.00000000000E+00  0.00000000000E+00  0.45593999997E+02  0.45594000000E+02  0.51100000000E-03 0.  1.
         11   -1    0    0    0    0 -0.00000000000E+00 -0.00000000000E+00 -0.45593999997E+02  0.45594000000E+02  0.51100000000E-03 0. -1.
    9900012    2    1    2    0    0 -0.32150623048E+02  0.89989375977E+01  0.30240205206E+02  0.46142318174E+02  0.10000003766E+02 0.  0.
         12    1    1    2    0    0  0.32150623048E+02 -0.89989375977E+01 -0.30240205206E+02  0.45045681826E+02  0.00000000000E+00 0. -1.
         11    1    3    3    0    0 -0.24082226692E+01 -0.11414585856E+01  0.63258480359E+00  0.27390925362E+01  0.51100000000E-03 0. -1.
        -11    1    3    3    0    0 -0.18490385520E+02  0.40433593872E+01  0.18243364414E+02  0.26288085842E+02  0.51100000000E-03 0.  1.
         12    1    3    3    0    0 -0.11252014859E+02  0.60970367962E+01  0.11364255988E+02  0.17115139796E+02  0.00000000000E+00 0. -1.
</event>
<event>
 7    1  0.1503436E-008  0.4614232E+02  0.7816164E-02  0.1320468E+00
        -11   -1    0    0    0    0  0.00000000000E+00  0.00000000000E+00  0.45593999997E+02  0.45594000000E+02  0.51100000000E-03 0.  1.
         11   -1    0    0    0    0 -0.00000000000E+00 -0.00000000000E+00 -0.45593999997E+02  0.45594000000E+02  0.51100000000E-03 0. -1.
    9900012    2    1    2    0    0 -0.63735399810E+01  0.34108426757E+02  0.28724662489E+02  0.46142322929E+02  0.10000047122E+02 0.  0.
         12    1    1    2    0    0  0.63735399810E+01 -0.34108426757E+02 -0.28724662489E+02  0.45045677071E+02  0.00000000000E+00 0. -1.
         11    1    3    3    0    0 -0.44075070343E+01  0.20138453586E+02  0.16529747093E+02  0.26423776609E+02  0.51100000000E-03 0. -1.
        -11    1    3    3    0    0 -0.67041642500E+00  0.12485615197E+02  0.73871880239E+01  0.14522761176E+02  0.51100000000E-03 0.  1.
         12    1    3    3    0    0 -0.12956165218E+01  0.14843579741E+01  0.48077273722E+01  0.51957851430E+01  0.00000000000E+00 0. -1.
</event>
<event>
 7    1  0.1503436E-008  0.4614232E+02  0.7816164E-02  0.1320468E+00
        -11   -1    0    0    0    0  0.00000000000E+00  0.00000000000E+00  0.45593999997E+02  0.45594000000E+02  0.51100000000E-03 0.  1.
         11   -1    0    0    0    0 -0.00000000000E+00 -0.00000000000E+00 -0.45593999997E+02  0.45594000000E+02  0.51100000000E-03 0. -1.
    9900012    2    1    2    0    0 -0.14069587350E+02 -0.41091671042E+02  0.11942982297E+02  0.46142317151E+02  0.99999944338E+01 0.  0.
         12    1    1    2    0    0  0.14069587350E+02  0.41091671042E+02 -0.11942982297E+02  0.45045682849E+02  0.00000000000E+00 0. -1.
         11    1    3    3    0    0 -0.73458205202E+01 -0.28939411805E+02  0.92533737486E+01  0.31258207894E+02  0.51100000000E-03 0. -1.
        -11    1    3    3    0    0 -0.31600740307E+01 -0.25989514980E+01  0.22701710537E+01  0.46791338560E+01  0.51100000000E-03 0.  1.
         12    1    3    3    0    0 -0.35636927988E+01 -0.95533077393E+01  0.41943749422E+00  0.10204975401E+02  0.00000000000E+00 0. -1.
</event>
<event>
 7    1  0.1503436E-008  0.4614232E+02  0.7816164E-02  0.1320468E+00
        -11   -1    0    0    0    0  0.00000000000E+00  0.00000000000E+00  0.45593999997E+02  0.45594000000E+02  0.51100000000E-03 0.  1.
         11   -1    0    0    0    0 -0.00000000000E+00 -0.00000000000E+00 -0.45593999997E+02  0.45594000000E+02  0.51100000000E-03 0. -1.
    9900012    2    1    2    0    0 -0.36735985224E+02  0.89678980568E+01  0.24477697245E+02  0.46142317984E+02  0.10000002029E+02 0.  0.
         12    1    1    2    0    0  0.36735985224E+02 -0.89678980568E+01 -0.24477697245E+02  0.45045682016E+02  0.00000000000E+00 0. -1.
         11    1    3    3    0    0 -0.14432074495E+02  0.56446712886E+01  0.86202872838E+01  0.17732919706E+02  0.51100000000E-03 0. -1.
        -11    1    3    3    0    0 -0.13326366301E+02  0.60196240723E+00  0.12941041372E+02  0.18585611359E+02  0.51100000000E-03 0.  1.
        -12    1    3    3    0    0 -0.89775444278E+01  0.27212643609E+01  0.29163685887E+01  0.98237869185E+01  0.00000000000E+00 0.  1.
</event>
<event>
 7    1  0.1503436E-008  0.4614232E+02  0.7816164E-02  0.1320468E+00
        -11   -1    0    0    0    0  0.00000000000E+00  0.00000000000E+00  0.45593999997E+02  0.45594000000E+02  0.51100000000E-03 0. -1.
         11   -1    0    0    0    0 -0.00000000000E+00 -0.00000000000E+00 -0.45593999997E+02  0.45594000000E+02  0.51100000000E-03 0.  1.
    9900012    2    1    2    0    0  0.23379583630E+02  0.38113777615E+02 -0.54633801060E+01  0.46142317665E+02  0.99999991244E+01 0.  0.
         12    1    1    2    0    0 -0.23379583630E+02 -0.38113777615E+02  0.54633801060E+01  0.45045682335E+02  0.00000000000E+00 0. -1.
         11    1    3    3    0    0  0.10958433014E+02  0.19857926802E+02 -0.71171623817E+01  0.23771380095E+02  0.51100000000E-03 0. -1.
        -11    1    3    3    0    0  0.71902070131E+01  0.13080733987E+02  0.61129283706E+00  0.14939155188E+02  0.51100000000E-03 0.  1.
         12    1    3    3    0    0  0.52309436035E+01  0.51751168260E+01  0.10424894387E+01  0.74317823821E+01  0.00000000000E+00 0. -1.
</event>
<event>
 7    1  0.1503436E-008  0.4614232E+02  0.7816164E-02  0.1320468E+00
        -11   -1    0    0    0    0  0.00000000000E+00  0.00000000000E+00  0.45593999997E+02  0.45594000000E+02  0.51100000000E-03 0. -1.
         11   -1    0    0    0    0 -0.00000000000E+00 -0.00000000000E+00 -0.45593999997E+02  0.45594000000E+02  0.51100000000E-03 0.  1.
    9900012    2    1    2    0    0  0.13979967571E+02  0.20693645601E+02 -0.37489291583E+02  0.46142318243E+02  0.10000004396E+02 0.  0.
         12    1    1    2    0    0 -0.13979967571E+02 -0.20693645601E+02  0.37489291583E+02  0.45045681757E+02  0.00000000000E+00 0. -1.
         11    1    3    3    0    0 -0.40689152366E+00 -0.44182804310E+00 -0.71617887925E-01  0.60489843337E+00  0.51100000000E-03 0. -1.
        -11    1    3    3    0    0  0.10516812235E+02  0.16712736716E+02 -0.25520287977E+02  0.32267692927E+02  0.51100000000E-03 0.  1.
        -12    1    3    3    0    0  0.38700468599E+01  0.44227369281E+01 -0.11897385718E+02  0.13269726883E+02  0.00000000000E+00 0.  1.
</event>
<event>
 7    1  0.1503436E-008  0.4614232E+02  0.7816164E-02  0.1320468E+00
        -11   -1    0    0    0    0  0.00000000000E+00  0.00000000000E+00  0.45593999997E+02  0.45594000000E+02  0.51100000000E-03 0.  1.
         11   -1    0    0    0    0 -0.00000000000E+00 -0.00000000000E+00 -0.45593999997E+02  0.45594000000E+02  0.51100000000E-03 0. -1.
    9900012    2    1    2    0    0  0.98273546195E+01  0.10933304280E+02  0.42579330845E+02  0.46142318115E+02  0.10000003228E+02 0.  0.
         12    1    1    2    0    0 -0.98273546195E+01 -0.10933304280E+02 -0.42579330845E+02  0.45045681885E+02  0.00000000000E+00 0. -1.
         11    1    3    3    0    0 -0.94757908781E+00 -0.74686952921E+00  0.71627314343E+01  0.72636383502E+01  0.51100000000E-03 0. -1.
        -11    1    3    3    0    0  0.92122772940E+01  0.10129010253E+02  0.28464547491E+02  0.31586284456E+02  0.51100000000E-03 0.  1.
         12    1    3    3    0    0  0.15626564133E+01  0.15511635562E+01  0.69520519197E+01  0.72923953087E+01  0.00000000000E+00 0. -1.
</event>
<event>
 7    1  0.1503436E-008  0.4614232E+02  0.7816164E-02  0.1320468E+00
        -11   -1    0    0    0    0  0.00000000000E+00  0.00000000000E+00  0.45593999997E+02  0.45594000000E+02  0.51100000000E-03 0.  1.
         11   -1    0    0    0    0 -0.00000000000E+00 -0.00000000000E+00 -0.45593999997E+02  0.45594000000E+02  0.51100000000E-03 0. -1.
    9900012    2    1    2    0    0 -0.31818756450E+02 -0.31211999915E+01  0.31732290968E+02  0.46142318281E+02  0.10000004745E+02 0.  0.
         12    1    1    2    0    0  0.31818756450E+02  0.31211999915E+01 -0.31732290968E+02  0.45045681719E+02  0.00000000000E+00 0. -1.
         11    1    3    3    0    0 -0.80234638847E+01  0.22292346757E+01  0.11300982436E+02  0.14037722900E+02  0.51100000000E-03 0. -1.
        -11    1    3    3    0    0 -0.58093993508E+01 -0.14534634040E+01  0.75715069991E+01  0.96534654494E+01  0.51100000000E-03 0.  1.
         12    1    3    3    0    0 -0.17985893214E+02 -0.38969712631E+01  0.12859801534E+02  0.22451129932E+02  0.00000000000E+00 0. -1.
</event>
<event>
 7    1  0.1503436E-008  0.4614232E+02  0.7816164E-02  0.1320468E+00
        -11   -1    0    0    0    0  0.00000000000E+00  0.00000000000E+00  0.45593999997E+02  0.45594000000E+02  0.51100000000E-03 0.  1.
         11   -1    0    0    0    0 -0.00000000000E+00 -0.00000000000E+00 -0.45593999997E+02  0.45594000000E+02  0.51100000000E-03 0. -1.
    9900012    2    1    2    0    0 -0.22658807930E+02 -0.86579727153E+01  0.37956968316E+02  0.46142317498E+02  0.99999975991E+01 0.  0.
         12    1    1    2    0    0  0.22658807930E+02  0.86579727153E+01 -0.37956968316E+02  0.45045682502E+02  0.00000000000E+00 0. -1.
         11    1    3    3    0    0  0.22268261753E+00  0.20967140476E-01  0.15851866477E+01  0.16008885465E+01  0.51100000000E-03 0. -1.
        -11    1    3    3    0    0 -0.15402002087E+02 -0.61356321584E+01  0.17620994681E+02  0.24194360997E+02  0.51100000000E-03 0.  1.
        -12    1    3    3    0    0 -0.74794884609E+01 -0.25433076974E+01  0.18750786987E+02  0.20347067954E+02  0.00000000000E+00 0.  1.
</event>
<event>
 7    1  0.1503436E-008  0.4614232E+02  0.7816164E-02  0.1320468E+00
        -11   -1    0    0    0    0  0.00000000000E+00  0.00000000000E+00  0.45593999997E+02  0.45594000000E+02  0.51100000000E-03 0.  1.
         11   -1    0    0    0    0 -0.00000000000E+00 -0.00000000000E+00 -0.45593999997E+02  0.45594000000E+02  0.51100000000E-03 0. -1.
    9900012    2    1    2    0    0  0.10680250779E+02  0.31933382860E+02  0.29921643739E+02  0.46142318058E+02  0.10000002703E+02 0.  0.
         12    1    1    2    0    0 -0.10680250779E+02 -0.31933382860E+02 -0.29921643739E+02  0.45045681942E+02  0.00000000000E+00 0. -1.
         11    1    3    3    0    0  0.36870804289E+00 -0.61776083549E+00  0.63398359367E+00  0.95891059485E+00  0.51100000000E-03 0. -1.
        -11    1    3    3    0    0  0.77207234484E+01  0.26741392226E+02  0.21774339875E+02  0.35338838493E+02  0.51100000000E-03 0.  1.
         12    1    3    3    0    0  0.25908192877E+01  0.58097514700E+01  0.75133202702E+01  0.98445689701E+01  0.00000000000E+00 0. -1.
</event>
<event>
 7    1  0.1503436E-008  0.4614232E+02  0.7816164E-02  0.1320468E+00
        -11   -1    0    0    0    0  0.00000000000E+00  0.00000000000E+00  0.45593999997E+02  0.45594000000E+02  0.51100000000E-03 0.  1.
         11   -1    0    0    0    0 -0.00000000000E+00 -0.00000000000E+00 -0.45593999997E+02  0.45594000000E+02  0.51100000000E-03 0. -1.
    9900012    2    1    2    0    0  0.33949041218E+02  0.29579239534E+02 -0.12824321776E+01  0.46142318261E+02  0.10000004561E+02 0.  0.
         12    1    1    2    0    0 -0.33949041218E+02 -0.29579239534E+02  0.12824321776E+01  0.45045681739E+02  0.00000000000E+00 0. -1.
         11    1    3    3    0    0  0.42515382532E+00 -0.29063133414E+00  0.92065670212E+00  0.10549082291E+01  0.51100000000E-03 0. -1.
        -11    1    3    3    0    0  0.17172886515E+02  0.16026285533E+02  0.49038089872E+00  0.23494474519E+02  0.51100000000E-03 0.  1.
         12    1    3    3    0    0  0.16351000877E+02  0.13843585336E+02 -0.26934697784E+01  0.21592935513E+02  0.00000000000E+00 0. -1.
</event>
<event>
 7    1  0.1503436E-008  0.4614232E+02  0.7816164E-02  0.1320468E+00
        -11   -1    0    0    0    0  0.00000000000E+00  0.00000000000E+00  0.45593999997E+02  0.45594000000E+02  0.51100000000E-03 0.  1.
         11   -1    0    0    0    0 -0.00000000000E+00 -0.00000000000E+00 -0.45593999997E+02  0.45594000000E+02  0.51100000000E-03 0. -1.
    9900012    2    1    2    0    0 -0.24056624642E+02 -0.37937354612E+02 -0.33390683846E+01  0.46142318278E+02  0.10000004714E+02 0.  0.
         12    1    1    2    0    0  0.24056624642E+02  0.37937354612E+02  0.33390683846E+01  0.45045681722E+02  0.00000000000E+00 0. -1.
         11    1    3    3    0    0 -0.53200255535E+01 -0.15319210715E+02 -0.17276205799E+01  0.16308450630E+02  0.51100000000E-03 0. -1.
        -11    1    3    3    0    0 -0.14464948861E+02 -0.19793812705E+02 -0.17972094524E+00  0.24516567191E+02  0.51100000000E-03 0.  1.
        -12    1    3    3    0    0 -0.42716502281E+01 -0.28243311915E+01 -0.14317268595E+01  0.53173004571E+01  0.00000000000E+00 0.  1.
</event>
<event>
 7    1  0.1503436E-008  0.4614232E+02  0.7816164E-02  0.1320468E+00
        -11   -1    0    0    0    0  0.00000000000E+00  0.00000000000E+00  0.45593999997E+02  0.45594000000E+02  0.51100000000E-03 0.  1.
         11   -1    0    0    0    0 -0.00000000000E+00 -0.00000000000E+00 -0.45593999997E+02  0.45594000000E+02  0.51100000000E-03 0. -1.
    9900012    2    1    2    0    0 -0.22121723388E+02  0.39233161817E+02 -0.70842942077E+00  0.46142317587E+02  0.99999984158E+01 0.  0.
         12    1    1    2    0    0  0.22121723388E+02 -0.39233161817E+02  0.70842942077E+00  0.45045682413E+02  0.00000000000E+00 0. -1.
         11    1    3    3    0    0 -0.14802927145E+02  0.19095968189E+02  0.91858325887E+00  0.24179049787E+02  0.51100000000E-03 0. -1.
        -11    1    3    3    0    0 -0.12761585640E+01  0.95145650461E+01 -0.16597314043E+01  0.97421885268E+01  0.51100000000E-03 0.  1.
        -12    1    3    3    0    0 -0.60426376787E+01  0.10622628582E+02  0.32718724626E-01  0.12221079274E+02  0.00000000000E+00 0.  1.
</event>
<event>
 7    1  0.1503436E-008  0.4614232E+02  0.7816164E-02  0.1320468E+00
        -11   -1    0    0    0    0  0.00000000000E+00  0.00000000000E+00  0.45593999997E+02  0.45594000000E+02  0.51100000000E-03 0.  1.
         11   -1    0    0    0    0 -0.00000000000E+00 -0.00000000000E+00 -0.45593999997E+02  0.45594000000E+02  0.51100000000E-03 0. -1.
    9900012    2    1    2    0    0 -0.15554137086E+02 -0.20685786134E+02  0.36868422615E+02  0.46142317470E+02  0.99999973444E+01 0.  0.
         12    1    1    2    0    0  0.15554137086E+02  0.20685786134E+02 -0.36868422615E+02  0.45045682530E+02  0.00000000000E+00 0. -1.
         11    1    3    3    0    0 -0.18391700589E+01 -0.10383489436E+01  0.55118555330E+01  0.59026491267E+01  0.51100000000E-03 0. -1.
        -11    1    3    3    0    0 -0.87231199150E+01 -0.17276298016E+02  0.26908383572E+02  0.33145503479E+02  0.51100000000E-03 0.  1.
        -12    1    3    3    0    0 -0.49918471121E+01 -0.23711391743E+01  0.44481835105E+01  0.70941648640E+01  0.00000000000E+00 0.  1.
</event>
<event>
 7    1  0.1503436E-008  0.4614232E+02  0.7816164E-02  0.1320468E+00
        -11   -1    0    0    0    0  0.00000000000E+00  0.00000000000E+00  0.45593999997E+02  0.45594000000E+02  0.51100000000E-03 0.  1.
         11   -1    0    0    0    0 -0.00000000000E+00 -0.00000000000E+00 -0.45593999997E+02  0.45594000000E+02  0.51100000000E-03 0. -1.
    9900012    2    1    2    0    0 -0.24023877388E+02  0.15971960092E+02  0.34595711147E+02  0.46142318479E+02  0.10000006549E+02 0.  0.
         12    1    1    2    0    0  0.24023877388E+02 -0.15971960092E+02 -0.34595711147E+02  0.45045681521E+02  0.00000000000E+00 0. -1.
         11    1    3    3    0    0 -0.44658454464E+01  0.11807882376E+01  0.10470763619E+02  0.11444427790E+02  0.51100000000E-03 0. -1.
        -11    1    3    3    0    0 -0.12999076557E+02  0.70577390561E+01  0.14708187934E+02  0.20859493390E+02  0.51100000000E-03 0.  1.
        -12    1    3    3    0    0 -0.65589553849E+01  0.77334327979E+01  0.94167595940E+01  0.13838397300E+02  0.00000000000E+00 0.  1.
</event>
<event>
 7    1  0.1503436E-008  0.4614232E+02  0.7816164E-02  0.1320468E+00
        -11   -1    0    0    0    0  0.00000000000E+00  0.00000000000E+00  0.45593999997E+02  0.45594000000E+02  0.51100000000E-03 0.  1.
         11   -1    0    0    0    0 -0.00000000000E+00 -0.00000000000E+00 -0.45593999997E+02  0.45594000000E+02  0.51100000000E-03 0. -1.
    9900012    2    1    2    0    0  0.41375028176E+02 -0.57662733683E+01  0.16851427994E+02  0.46142317737E+02  0.99999997783E+01 0.  0.
         12    1    1    2    0    0 -0.41375028176E+02  0.57662733683E+01 -0.16851427994E+02  0.45045682263E+02  0.00000000000E+00 0. -1.
         11    1    3    3    0    0  0.17907157284E+02 -0.18664751060E+01  0.23839538401E+01  0.18161311833E+02  0.51100000000E-03 0. -1.
        -11    1    3    3    0    0  0.89690292223E+01 -0.24470881812E+01  0.67761506635E+01  0.11504257639E+02  0.51100000000E-03 0.  1.
        -12    1    3    3    0    0  0.14498841670E+02 -0.14527100811E+01  0.76913234906E+01  0.16476748265E+02  0.00000000000E+00 0.  1.
</event>
<event>
 7    1  0.1503436E-008  0.4614232E+02  0.7816164E-02  0.1320468E+00
        -11   -1    0    0    0    0  0.00000000000E+00  0.00000000000E+00  0.45593999997E+02  0.45594000000E+02  0.51100000000E-03 0.  1.
         11   -1    0    0    0    0 -0.00000000000E+00 -0.00000000000E+00 -0.45593999997E+02  0.45594000000E+02  0.51100000000E-03 0. -1.
    9900012    2    1    2    0    0 -0.25723064984E+01  0.43482751438E+02 -0.11478110334E+02  0.46142318185E+02  0.10000003863E+02 0.  0.
         12    1    1    2    0    0  0.25723064984E+01 -0.43482751438E+02  0.11478110334E+02  0.45045681815E+02  0.00000000000E+00 0. -1.
         11    1    3    3    0    0  0.16492809182E+01  0.44411683471E+01  0.42471264647E+00  0.47565202541E+01  0.51100000000E-03 0. -1.
        -11    1    3    3    0    0 -0.21961864441E+01  0.21889549017E+02 -0.38671889616E+01  0.22336757638E+02  0.51100000000E-03 0.  1.
        -12    1    3    3    0    0 -0.20254009726E+01  0.17152034074E+02 -0.80356340186E+01  0.19049040293E+02  0.00000000000E+00 0.  1.
</event>
<event>
 7    1  0.1503436E-008  0.4614232E+02  0.7816164E-02  0.1320468E+00
        -11   -1    0    0    0    0  0.00000000000E+00  0.00000000000E+00  0.45593999997E+02  0.45594000000E+02  0.51100000000E-03 0.  1.
         11   -1    0    0    0    0 -0.00000000000E+00 -0.00000000000E+00 -0.45593999997E+02  0.45594000000E+02  0.51100000000E-03 0. -1.
    9900012    2    1    2    0    0 -0.11235764371E+02 -0.28930540747E+02  0.32648045521E+02  0.46142318018E+02  0.10000002341E+02 0.  0.
         12    1    1    2    0    0  0.11235764371E+02  0.28930540747E+02 -0.32648045521E+02  0.45045681982E+02  0.00000000000E+00 0. -1.
         11    1    3    3    0    0  0.89593460844E+00 -0.12972596520E+01  0.34629332424E+00  0.16141563601E+01  0.51100000000E-03 0. -1.
        -11    1    3    3    0    0 -0.89800128956E+01 -0.16166835417E+02  0.16753698640E+02  0.24953829714E+02  0.51100000000E-03 0.  1.
        -12    1    3    3    0    0 -0.31516860834E+01 -0.11466445678E+02  0.15548053556E+02  0.19574331944E+02  0.00000000000E+00 0.  1.
</event>
<event>
 7    1  0.1503436E-008  0.4614232E+02  0.7816164E-02  0.1320468E+00
        -11   -1    0    0    0    0  0.00000000000E+00  0.00000000000E+00  0.45593999997E+02  0.45594000000E+02  0.51100000000E-03 0.  1.
         11   -1    0    0    0    0 -0.00000000000E+00 -0.00000000000E+00 -0.45593999997E+02  0.45594000000E+02  0.51100000000E-03 0. -1.
    9900012    2    1    2    0    0  0.16094631633E+02 -0.14509788554E+02  0.39491037114E+02  0.46142321587E+02  0.10000034892E+02 0.  0.
         12    1    1    2    0    0 -0.16094631633E+02  0.14509788554E+02 -0.39491037114E+02  0.45045678413E+02  0.00000000000E+00 0. -1.
         11    1    3    3    0    0  0.14741360500E+00 -0.34501745092E+00 -0.17032311887E+00  0.41204130657E+00  0.51100000000E-03 0. -1.
        -11    1    3    3    0    0  0.88597439057E+01 -0.26709346566E+01  0.16719081977E+02  0.19109072621E+02  0.51100000000E-03 0.  1.
        -12    1    3    3    0    0  0.70874741224E+01 -0.11493836447E+02  0.22942278256E+02  0.26621207660E+02  0.00000000000E+00 0.  1.
</event>
<event>
 7    1  0.1503436E-008  0.4614232E+02  0.7816164E-02  0.1320468E+00
        -11   -1    0    0    0    0  0.00000000000E+00  0.00000000000E+00  0.45593999997E+02  0.45594000000E+02  0.51100000000E-03 0.  1.
         11   -1    0    0    0    0 -0.00000000000E+00 -0.00000000000E+00 -0.45593999997E+02  0.45594000000E+02  0.51100000000E-03 0. -1.
    9900012    2    1    2    0    0 -0.22208380787E+02 -0.89017926623E+01  0.38166207612E+02  0.46142317707E+02  0.99999995062E+01 0.  0.
         12    1    1    2    0    0  0.22208380787E+02  0.89017926623E+01 -0.38166207612E+02  0.45045682293E+02  0.00000000000E+00 0. -1.
         11    1    3    3    0    0 -0.84886272450E+01 -0.54361878804E+01  0.14981681622E+02  0.18057123682E+02  0.51100000000E-03 0. -1.
        -11    1    3    3    0    0  0.16212155389E+00  0.73558916701E+00  0.18458198792E-01  0.75346916797E+00  0.51100000000E-03 0.  1.
        -12    1    3    3    0    0 -0.13881875096E+02 -0.42011939489E+01  0.23166067791E+02  0.27331724857E+02  0.00000000000E+00 0.  1.
</event>
<event>
 7    1  0.1503436E-008  0.4614232E+02  0.7816164E-02  0.1320468E+00
        -11   -1    0    0    0    0  0.00000000000E+00  0.00000000000E+00  0.45593999997E+02  0.45594000000E+02  0.51100000000E-03 0. -1.
         11   -1    0    0    0    0 -0.00000000000E+00 -0.00000000000E+00 -0.45593999997E+02  0.45594000000E+02  0.51100000000E-03 0.  1.
    9900012    2    1    2    0    0 -0.44622755365E+02 -0.55819085968E+01 -0.26010302289E+01  0.46142319206E+02  0.10000013178E+02 0.  0.
         12    1    1    2    0    0  0.44622755365E+02  0.55819085968E+01  0.26010302289E+01  0.45045680794E+02  0.00000000000E+00 0. -1.
         11    1    3    3    0    0 -0.14956315736E+01 -0.72140369423E+00 -0.17321975083E+01  0.23995511170E+01  0.51100000000E-03 0. -1.
        -11    1    3    3    0    0 -0.39528266619E+02 -0.43937434969E+01  0.72707948230E+00  0.39778354524E+02  0.51100000000E-03 0.  1.
        -12    1    3    3    0    0 -0.35988571721E+01 -0.46676140575E+00 -0.15959122029E+01  0.39644135650E+01  0.00000000000E+00 0.  1.
</event>
<event>
 7    1  0.1503436E-008  0.4614232E+02  0.7816164E-02  0.1320468E+00
        -11   -1    0    0    0    0  0.00000000000E+00  0.00000000000E+00  0.45593999997E+02  0.45594000000E+02  0.51100000000E-03 0.  1.
         11   -1    0    0    0    0 -0.00000000000E+00 -0.00000000000E+00 -0.45593999997E+02  0.45594000000E+02  0.51100000000E-03 0. -1.
    9900012    2    1    2    0    0 -0.37182650417E+02  0.10144188056E+02  0.23316506612E+02  0.46142317366E+02  0.99999964012E+01 0.  0.
         12    1    1    2    0    0  0.37182650417E+02 -0.10144188056E+02 -0.23316506612E+02  0.45045682634E+02  0.00000000000E+00 0. -1.
         11    1    3    3    0    0 -0.12487704237E+01  0.11292910903E+01  0.72756448788E+00  0.18341418383E+01  0.51100000000E-03 0. -1.
        -11    1    3    3    0    0 -0.74112426211E+01 -0.16486359227E+01  0.34272819457E+01  0.83301128079E+01  0.51100000000E-03 0.  1.
        -12    1    3    3    0    0 -0.28522637372E+02  0.10663532888E+02  0.19161660178E+02  0.35978062720E+02  0.00000000000E+00 0.  1.
</event>
<event>
 7    1  0.1503436E-008  0.4614232E+02  0.7816164E-02  0.1320468E+00
        -11   -1    0    0    0    0  0.00000000000E+00  0.00000000000E+00  0.45593999997E+02  0.45594000000E+02  0.51100000000E-03 0.  1.
         11   -1    0    0    0    0 -0.00000000000E+00 -0.00000000000E+00 -0.45593999997E+02  0.45594000000E+02  0.51100000000E-03 0. -1.
    9900012    2    1    2    0    0 -0.70033617036E+00  0.49235500889E+01  0.44770322228E+02  0.46142316870E+02  0.99999918743E+01 0.  0.
         12    1    1    2    0    0  0.70033617036E+00 -0.49235500889E+01 -0.44770322228E+02  0.45045683130E+02  0.00000000000E+00 0. -1.
         11    1    3    3    0    0  0.24419773138E+01  0.52893503032E+00  0.69920648461E+01  0.74250923590E+01  0.51100000000E-03 0. -1.
        -11    1    3    3    0    0 -0.17342148619E+01 -0.38603608471E+00  0.23807582381E+01  0.29706119059E+01  0.51100000000E-03 0.  1.
        -12    1    3    3    0    0 -0.14080986223E+01  0.47806511433E+01  0.35397499144E+02  0.35746612605E+02  0.00000000000E+00 0.  1.
</event>
<event>
 7    1  0.1503436E-008  0.4614232E+02  0.7816164E-02  0.1320468E+00
        -11   -1    0    0    0    0  0.00000000000E+00  0.00000000000E+00  0.45593999997E+02  0.45594000000E+02  0.51100000000E-03 0.  1.
         11   -1    0    0    0    0 -0.00000000000E+00 -0.00000000000E+00 -0.45593999997E+02  0.45594000000E+02  0.51100000000E-03 0. -1.
    9900012    2    1    2    0    0 -0.89828352107E+00 -0.35589324945E+02  0.27599021008E+02  0.46142324027E+02  0.10000057135E+02 0.  0.
         12    1    1    2    0    0  0.89828352107E+00  0.35589324945E+02 -0.27599021008E+02  0.45045675973E+02  0.00000000000E+00 0. -1.
         11    1    3    3    0    0  0.11566614562E+01 -0.12436484782E+02  0.86175421244E+01  0.15174519827E+02  0.51100000000E-03 0.  1.
        -11    1    3    3    0    0 -0.12720490206E+01 -0.14262397134E+02  0.67600721495E+01  0.15834539982E+02  0.51100000000E-03 0. -1.
        -12    1    3    3    0    0 -0.78289595666E+00 -0.88904430291E+01  0.12221406734E+02  0.15133264218E+02  0.00000000000E+00 0.  1.
</event>
<event>
 7    1  0.1503436E-008  0.4614232E+02  0.7816164E-02  0.1320468E+00
        -11   -1    0    0    0    0  0.00000000000E+00  0.00000000000E+00  0.45593999997E+02  0.45594000000E+02  0.51100000000E-03 0.  1.
         11   -1    0    0    0    0 -0.00000000000E+00 -0.00000000000E+00 -0.45593999997E+02  0.45594000000E+02  0.51100000000E-03 0. -1.
    9900012    2    1    2    0    0 -0.31111717516E+02  0.97281754343E+00  0.32561144846E+02  0.46142317693E+02  0.99999993832E+01 0.  0.
         12    1    1    2    0    0  0.31111717516E+02 -0.97281754343E+00 -0.32561144846E+02  0.45045682307E+02  0.00000000000E+00 0. -1.
         11    1    3    3    0    0  0.25970171982E-02 -0.11884656747E+01  0.17479278846E+01  0.21136957102E+01  0.51100000000E-03 0. -1.
        -11    1    3    3    0    0 -0.23195326487E+02  0.15346261592E+01  0.25307266653E+02  0.34363294283E+02  0.51100000000E-03 0.  1.
        -12    1    3    3    0    0 -0.79189880470E+01  0.62665705896E+00  0.55059503080E+01  0.96653277002E+01  0.00000000000E+00 0.  1.
</event>
<event>
 7    1  0.1503436E-008  0.4614232E+02  0.7816164E-02  0.1320468E+00
        -11   -1    0    0    0    0  0.00000000000E+00  0.00000000000E+00  0.45593999997E+02  0.45594000000E+02  0.51100000000E-03 0.  1.
         11   -1    0    0    0    0 -0.00000000000E+00 -0.00000000000E+00 -0.45593999997E+02  0.45594000000E+02  0.51100000000E-03 0. -1.
    9900012    2    1    2    0    0  0.42645802220E+02 -0.90013276078E+01  0.11376516064E+02  0.46142318037E+02  0.10000002519E+02 0.  0.
         12    1    1    2    0    0 -0.42645802220E+02  0.90013276078E+01 -0.11376516064E+02  0.45045681963E+02  0.00000000000E+00 0. -1.
         11    1    3    3    0    0  0.91765916533E+01 -0.27897781796E+01  0.53958873948E+01  0.11004921522E+02  0.51100000000E-03 0. -1.
        -11    1    3    3    0    0  0.93251527610E+01 -0.22068604924E+01 -0.11358331212E+01  0.96498095520E+01  0.51100000000E-03 0.  1.
        -12    1    3    3    0    0  0.24144057806E+02 -0.40046889358E+01  0.71164617901E+01  0.25487586964E+02  0.00000000000E+00 0.  1.
</event>
<event>
 7    1  0.1503436E-008  0.4614232E+02  0.7816164E-02  0.1320468E+00
        -11   -1    0    0    0    0  0.00000000000E+00  0.00000000000E+00  0.45593999997E+02  0.45594000000E+02  0.51100000000E-03 0.  1.
         11   -1    0    0    0    0 -0.00000000000E+00 -0.00000000000E+00 -0.45593999997E+02  0.45594000000E+02  0.51100000000E-03 0. -1.
    9900012    2    1    2    0    0  0.10457356096E+02  0.22993547808E+02  0.37296835820E+02  0.46142317638E+02  0.99999988731E+01 0.  0.
         12    1    1    2    0    0 -0.10457356096E+02 -0.22993547808E+02 -0.37296835820E+02  0.45045682362E+02  0.00000000000E+00 0. -1.
         11    1    3    3    0    0  0.54835024428E+01  0.15481393941E+02  0.23276223291E+02  0.28487276605E+02  0.51100000000E-03 0. -1.
        -11    1    3    3    0    0  0.24985453241E+01  0.78376307758E+01  0.11014632772E+02  0.13747484143E+02  0.51100000000E-03 0.  1.
         12    1    3    3    0    0  0.24753083293E+01 -0.32547690894E+00  0.30059797567E+01  0.39075568890E+01  0.00000000000E+00 0. -1.
</event>
<event>
 7    1  0.1503436E-008  0.4614232E+02  0.7816164E-02  0.1320468E+00
        -11   -1    0    0    0    0  0.00000000000E+00  0.00000000000E+00  0.45593999997E+02  0.45594000000E+02  0.51100000000E-03 0. -1.
         11   -1    0    0    0    0 -0.00000000000E+00 -0.00000000000E+00 -0.45593999997E+02  0.45594000000E+02  0.51100000000E-03 0.  1.
    9900012    2    1    2    0    0  0.13716486500E+02  0.42540400642E+02  0.55933767501E+01  0.46142317053E+02  0.99999935436E+01 0.  0.
         12    1    1    2    0    0 -0.13716486500E+02 -0.42540400642E+02 -0.55933767501E+01  0.45045682947E+02  0.00000000000E+00 0. -1.
         11    1    3    3    0    0 -0.14163013586E+01  0.18788486060E+01  0.74926057087E+00  0.24692859873E+01  0.51100000000E-03 0. -1.
        -11    1    3    3    0    0  0.11546672018E+02  0.29865289588E+02  0.39328296007E+01  0.32260320919E+02  0.51100000000E-03 0.  1.
         12    1    3    3    0    0  0.35861158407E+01  0.10796262448E+02  0.91128657854E+00  0.11412710147E+02  0.00000000000E+00 0. -1.
</event>
<event>
 7    1  0.1503436E-008  0.4614232E+02  0.7816164E-02  0.1320468E+00
        -11   -1    0    0    0    0  0.00000000000E+00  0.00000000000E+00  0.45593999997E+02  0.45594000000E+02  0.51100000000E-03 0.  1.
         11   -1    0    0    0    0 -0.00000000000E+00 -0.00000000000E+00 -0.45593999997E+02  0.45594000000E+02  0.51100000000E-03 0. -1.
    9900012    2    1    2    0    0 -0.98417476862E+00 -0.52790702572E+01  0.44724448706E+02  0.46142317690E+02  0.99999993502E+01 0.  0.
         12    1    1    2    0    0  0.98417476862E+00  0.52790702572E+01 -0.44724448706E+02  0.45045682310E+02  0.00000000000E+00 0. -1.
         11    1    3    3    0    0 -0.65001578782E+00  0.72365064497E-01  0.67243858687E+00  0.93804644939E+00  0.51100000000E-03 0. -1.
        -11    1    3    3    0    0  0.53209526324E+00 -0.76269245228E+01  0.35399654350E+02  0.36215861600E+02  0.51100000000E-03 0.  1.
        -12    1    3    3    0    0 -0.86625424405E+00  0.22754892011E+01  0.86523557685E+01  0.89884096404E+01  0.00000000000E+00 0.  1.
</event>
<event>
 7    1  0.1503436E-008  0.4614232E+02  0.7816164E-02  0.1320468E+00
        -11   -1    0    0    0    0  0.00000000000E+00  0.00000000000E+00  0.45593999997E+02  0.45594000000E+02  0.51100000000E-03 0.  1.
         11   -1    0    0    0    0 -0.00000000000E+00 -0.00000000000E+00 -0.45593999997E+02  0.45594000000E+02  0.51100000000E-03 0. -1.
    9900012    2    1    2    0    0  0.18311778872E+02  0.72975719613E+00  0.41149238014E+02  0.46142316742E+02  0.99999907104E+01 0.  0.
         12    1    1    2    0    0 -0.18311778872E+02 -0.72975719613E+00 -0.41149238014E+02  0.45045683258E+02  0.00000000000E+00 0. -1.
         11    1    3    3    0    0  0.10686627411E+02  0.16623943452E+01  0.18305210078E+02  0.21261426967E+02  0.51100000000E-03 0.  1.
        -11    1    3    3    0    0 -0.11479355334E+00  0.14632086792E+01  0.17480747823E+01  0.22825255540E+01  0.51100000000E-03 0. -1.
        -12    1    3    3    0    0  0.77399450137E+01 -0.23958458283E+01  0.21095953153E+02  0.22598364222E+02  0.00000000000E+00 0.  1.
</event>
<event>
 7    1  0.1503436E-008  0.4614232E+02  0.7816164E-02  0.1320468E+00
        -11   -1    0    0    0    0  0.00000000000E+00  0.00000000000E+00  0.45593999997E+02  0.45594000000E+02  0.51100000000E-03 0. -1.
         11   -1    0    0    0    0 -0.00000000000E+00 -0.00000000000E+00 -0.45593999997E+02  0.45594000000E+02  0.51100000000E-03 0.  1.
    9900012    2    1    2    0    0 -0.38754602109E+02 -0.19079676389E+02  0.12773419241E+02  0.46142317911E+02  0.10000001369E+02 0.  0.
         12    1    1    2    0    0  0.38754602109E+02  0.19079676389E+02 -0.12773419241E+02  0.45045682089E+02  0.00000000000E+00 0. -1.
         11    1    3    3    0    0 -0.20604035013E+02 -0.95220574468E+01  0.81114681068E+01  0.24103770492E+02  0.51100000000E-03 0. -1.
        -11    1    3    3    0    0 -0.18363935719E+02 -0.83594747854E+01  0.49761433458E+01  0.20781649517E+02  0.51100000000E-03 0.  1.
         12    1    3    3    0    0  0.21336862293E+00 -0.11981441569E+01 -0.31419221203E+00  0.12568979020E+01  0.00000000000E+00 0. -1.
</event>
<event>
 7    1  0.1503436E-008  0.4614232E+02  0.7816164E-02  0.1320468E+00
        -11   -1    0    0    0    0  0.00000000000E+00  0.00000000000E+00  0.45593999997E+02  0.45594000000E+02  0.51100000000E-03 0.  1.
         11   -1    0    0    0    0 -0.00000000000E+00 -0.00000000000E+00 -0.45593999997E+02  0.45594000000E+02  0.51100000000E-03 0. -1.
    9900012    2    1    2    0    0 -0.25596810243E+02  0.21144184808E+00  0.37065775966E+02  0.46142321514E+02  0.10000034219E+02 0.  0.
         12    1    1    2    0    0  0.25596810243E+02 -0.21144184808E+00 -0.37065775966E+02  0.45045678486E+02  0.00000000000E+00 0. -1.
         11    1    3    3    0    0 -0.13589327674E+02  0.11289223754E+01  0.18607786880E+02  0.23069330836E+02  0.51100000000E-03 0. -1.
        -11    1    3    3    0    0 -0.44830606045E+01  0.10974827927E+01  0.23474322693E+01  0.51781019094E+01  0.51100000000E-03 0.  1.
        -12    1    3    3    0    0 -0.75244219646E+01 -0.20149633200E+01  0.16110556817E+02  0.17894888769E+02  0.00000000000E+00 0.  1.
</event>
<event>
 7    1  0.1503436E-008  0.4614232E+02  0.7816164E-02  0.1320468E+00
        -11   -1    0    0    0    0  0.00000000000E+00  0.00000000000E+00  0.45593999997E+02  0.45594000000E+02  0.51100000000E-03 0.  1.
         11   -1    0    0    0    0 -0.00000000000E+00 -0.00000000000E+00 -0.45593999997E+02  0.45594000000E+02  0.51100000000E-03 0. -1.
    9900012    2    1    2    0    0 -0.13919131707E+02 -0.40903409832E+02  0.12739012338E+02  0.46142316536E+02  0.99999888283E+01 0.  0.
         12    1    1    2    0    0  0.13919131707E+02  0.40903409832E+02 -0.12739012338E+02  0.45045683464E+02  0.00000000000E+00 0. -1.
         11    1    3    3    0    0 -0.86923675807E+01 -0.13373323285E+02  0.25170290633E+01  0.16147398100E+02  0.51100000000E-03 0. -1.
        -11    1    3    3    0    0 -0.30185613099E+01 -0.10834234669E+02  0.27965095417E+01  0.11589340754E+02  0.51100000000E-03 0.  1.
         12    1    3    3    0    0 -0.22082028165E+01 -0.16695851879E+02  0.74254737328E+01  0.18405577681E+02  0.00000000000E+00 0. -1.
</event>
<event>
 7    1  0.1503436E-008  0.4614232E+02  0.7816164E-02  0.1320468E+00
        -11   -1    0    0    0    0  0.00000000000E+00  0.00000000000E+00  0.45593999997E+02  0.45594000000E+02  0.51100000000E-03 0. -1.
         11   -1    0    0    0    0 -0.00000000000E+00 -0.00000000000E+00 -0.45593999997E+02  0.45594000000E+02  0.51100000000E-03 0.  1.
    9900012    2    1    2    0    0  0.23451805132E+01 -0.33606034268E+02 -0.29903980440E+02  0.46142318109E+02  0.10000003171E+02 0.  0.
         12    1    1    2    0    0 -0.23451805132E+01  0.33606034268E+02  0.29903980440E+02  0.45045681891E+02  0.00000000000E+00 0. -1.
         11    1    3    3    0    0  0.73546128658E+00 -0.25581308764E+02 -0.24933822097E+02  0.35730095802E+02  0.51100000000E-03 0.  1.
        -11    1    3    3    0    0  0.29590116242E+01 -0.53969047329E+01 -0.28918232088E+01  0.68003655946E+01  0.51100000000E-03 0. -1.
         12    1    3    3    0    0 -0.13492923975E+01 -0.26278207708E+01 -0.20783351346E+01  0.36118567122E+01  0.00000000000E+00 0. -1.
</event>
<event>
 7    1  0.1503436E-008  0.4614232E+02  0.7816164E-02  0.1320468E+00
        -11   -1    0    0    0    0  0.00000000000E+00  0.00000000000E+00  0.45593999997E+02  0.45594000000E+02  0.51100000000E-03 0.  1.
         11   -1    0    0    0    0 -0.00000000000E+00 -0.00000000000E+00 -0.45593999997E+02  0.45594000000E+02  0.51100000000E-03 0. -1.
    9900012    2    1    2    0    0  0.16364744687E+02 -0.21087324286E+02  0.36285444426E+02  0.46142316617E+02  0.99999895707E+01 0.  0.
         12    1    1    2    0    0 -0.16364744687E+02  0.21087324286E+02 -0.36285444426E+02  0.45045683383E+02  0.00000000000E+00 0. -1.
         11    1    3    3    0    0  0.76845356474E+01 -0.61449446845E+01  0.17496197042E+02  0.20073100021E+02  0.51100000000E-03 0. -1.
        -11    1    3    3    0    0  0.21640946450E+01 -0.89322083418E+01  0.10110985557E+02  0.13663809157E+02  0.51100000000E-03 0.  1.
         12    1    3    3    0    0  0.65161143943E+01 -0.60101712593E+01  0.86782618279E+01  0.12405407439E+02  0.00000000000E+00 0. -1.
</event>
<event>
 7    1  0.1503436E-008  0.4614232E+02  0.7816164E-02  0.1320468E+00
        -11   -1    0    0    0    0  0.00000000000E+00  0.00000000000E+00  0.45593999997E+02  0.45594000000E+02  0.51100000000E-03 0.  1.
         11   -1    0    0    0    0 -0.00000000000E+00 -0.00000000000E+00 -0.45593999997E+02  0.45594000000E+02  0.51100000000E-03 0. -1.
    9900012    2    1    2    0    0 -0.25187101174E+02 -0.31716910998E+02  0.19717023388E+02  0.46142317409E+02  0.99999967909E+01 0.  0.
         12    1    1    2    0    0  0.25187101174E+02  0.31716910998E+02 -0.19717023388E+02  0.45045682591E+02  0.00000000000E+00 0. -1.
         11    1    3    3    0    0 -0.63195146574E+01 -0.76435126472E+01  0.36141963192E+01  0.10555660396E+02  0.51100000000E-03 0. -1.
        -11    1    3    3    0    0 -0.70278840840E+00 -0.15967073941E+01 -0.99509576843E+00  0.20083829064E+01  0.51100000000E-03 0.  1.
        -12    1    3    3    0    0 -0.18164798108E+02 -0.22476690956E+02  0.17097922838E+02  0.33578274107E+02  0.00000000000E+00 0.  1.
</event>
<event>
 7    1  0.1503436E-008  0.4614232E+02  0.7816164E-02  0.1320468E+00
        -11   -1    0    0    0    0  0.00000000000E+00  0.00000000000E+00  0.45593999997E+02  0.45594000000E+02  0.51100000000E-03 0.  1.
         11   -1    0    0    0    0 -0.00000000000E+00 -0.00000000000E+00 -0.45593999997E+02  0.45594000000E+02  0.51100000000E-03 0. -1.
    9900012    2    1    2    0    0 -0.11454591277E+02  0.14595832031E+02  0.41047136893E+02  0.46142318508E+02  0.10000006810E+02 0.  0.
         12    1    1    2    0    0  0.11454591277E+02 -0.14595832031E+02 -0.41047136893E+02  0.45045681492E+02  0.00000000000E+00 0. -1.
         11    1    3    3    0    0 -0.85096895526E+01  0.10126584293E+02  0.37259584574E+02  0.39537819472E+02  0.51100000000E-03 0.  1.
        -11    1    3    3    0    0 -0.22079129797E+01  0.29394885675E+01  0.29363405848E+01  0.47050578164E+01  0.51100000000E-03 0. -1.
        -12    1    3    3    0    0 -0.73698874488E+00  0.15297591705E+01  0.85121173372E+00  0.18994412192E+01  0.00000000000E+00 0.  1.
</event>
<event>
 7    1  0.1503436E-008  0.4614232E+02  0.7816164E-02  0.1320468E+00
        -11   -1    0    0    0    0  0.00000000000E+00  0.00000000000E+00  0.45593999997E+02  0.45594000000E+02  0.51100000000E-03 0. -1.
         11   -1    0    0    0    0 -0.00000000000E+00 -0.00000000000E+00 -0.45593999997E+02  0.45594000000E+02  0.51100000000E-03 0.  1.
    9900012    2    1    2    0    0 -0.16893397798E+02 -0.35751616598E+02  0.21576573648E+02  0.46142317533E+02  0.99999979165E+01 0.  0.
         12    1    1    2    0    0  0.16893397798E+02  0.35751616598E+02 -0.21576573648E+02  0.45045682467E+02  0.00000000000E+00 0. -1.
         11    1    3    3    0    0 -0.12697872047E+02 -0.27233118329E+02  0.15732493234E+02  0.33917400137E+02  0.51100000000E-03 0.  1.
        -11    1    3    3    0    0 -0.13783618291E+01 -0.20008587036E+01  0.43296338290E+01  0.49647805831E+01  0.51100000000E-03 0. -1.
        -12    1    3    3    0    0 -0.28171639219E+01 -0.65176395662E+01  0.15144465843E+01  0.72601368124E+01  0.00000000000E+00 0.  1.
</event>
<event>
 7    1  0.1503436E-008  0.4614232E+02  0.7816164E-02  0.1320468E+00
        -11   -1    0    0    0    0  0.00000000000E+00  0.00000000000E+00  0.45593999997E+02  0.45594000000E+02  0.51100000000E-03 0. -1.
         11   -1    0    0    0    0 -0.00000000000E+00 -0.00000000000E+00 -0.45593999997E+02  0.45594000000E+02  0.51100000000E-03 0.  1.
    9900012    2    1    2    0    0  0.27858685667E+02  0.28028118524E+02  0.21620168847E+02  0.46142317675E+02  0.99999992189E+01 0.  0.
         12    1    1    2    0    0 -0.27858685667E+02 -0.28028118524E+02 -0.21620168847E+02  0.45045682325E+02  0.00000000000E+00 0. -1.
         11    1    3    3    0    0  0.64927856545E+01  0.29497498136E+01  0.64698776377E+01  0.96289462781E+01  0.51100000000E-03 0. -1.
        -11    1    3    3    0    0  0.10294307745E+02  0.12706831356E+02  0.98251658721E+01  0.19078003557E+02  0.51100000000E-03 0.  1.
        -12    1    3    3    0    0  0.11071592268E+02  0.12371537355E+02  0.53251253373E+01  0.17435367840E+02  0.00000000000E+00 0.  1.
</event>
<event>
 7    1  0.1503436E-008  0.4614232E+02  0.7816164E-02  0.1320468E+00
        -11   -1    0    0    0    0  0.00000000000E+00  0.00000000000E+00  0.45593999997E+02  0.45594000000E+02  0.51100000000E-03 0. -1.
         11   -1    0    0    0    0 -0.00000000000E+00 -0.00000000000E+00 -0.45593999997E+02  0.45594000000E+02  0.51100000000E-03 0.  1.
    9900012    2    1    2    0    0  0.10549013160E+02  0.26761795260E+02 -0.34664653098E+02  0.46142317203E+02  0.99999949140E+01 0.  0.
         12    1    1    2    0    0 -0.10549013160E+02 -0.26761795260E+02  0.34664653098E+02  0.45045682797E+02  0.00000000000E+00 0. -1.
         11    1    3    3    0    0 -0.45415535719E+00 -0.14128264115E+00 -0.18724388701E+01  0.19319020308E+01  0.51100000000E-03 0. -1.
        -11    1    3    3    0    0  0.89369317887E+01  0.22584489727E+02 -0.30235974014E+02  0.38783270244E+02  0.51100000000E-03 0.  1.
         12    1    3    3    0    0  0.20662367287E+01  0.43185881745E+01 -0.25562402142E+01  0.54271449282E+01  0.00000000000E+00 0. -1.
</event>
<event>
 7    1  0.1503436E-008  0.4614232E+02  0.7816164E-02  0.1320468E+00
        -11   -1    0    0    0    0  0.00000000000E+00  0.00000000000E+00  0.45593999997E+02  0.45594000000E+02  0.51100000000E-03 0.  1.
         11   -1    0    0    0    0 -0.00000000000E+00 -0.00000000000E+00 -0.45593999997E+02  0.45594000000E+02  0.51100000000E-03 0. -1.
    9900012    2    1    2    0    0  0.33703108837E+02 -0.29871960390E+02 -0.93809980477E+00  0.46142316588E+02  0.99999892986E+01 0.  0.
         12    1    1    2    0    0 -0.33703108837E+02  0.29871960390E+02  0.93809980477E+00  0.45045683412E+02  0.00000000000E+00 0. -1.
         11    1    3    3    0    0  0.95938837487E+01 -0.36604686034E+01 -0.12506718430E+01  0.10344361561E+02  0.51100000000E-03 0. -1.
        -11    1    3    3    0    0  0.23841843238E+02 -0.24964441758E+02  0.34620061153E+00  0.34522118944E+02  0.51100000000E-03 0.  1.
        -12    1    3    3    0    0  0.26738185026E+00 -0.12470500287E+01 -0.33628573279E-01  0.12758360822E+01  0.00000000000E+00 0.  1.
</event>
<event>
 7    1  0.1503436E-008  0.4614232E+02  0.7816164E-02  0.1320468E+00
        -11   -1    0    0    0    0  0.00000000000E+00  0.00000000000E+00  0.45593999997E+02  0.45594000000E+02  0.51100000000E-03 0.  1.
         11   -1    0    0    0    0 -0.00000000000E+00 -0.00000000000E+00 -0.45593999997E+02  0.45594000000E+02  0.51100000000E-03 0. -1.
    9900012    2    1    2    0    0 -0.33803814284E+02  0.15457371328E+02  0.25445732007E+02  0.46142318011E+02  0.10000002277E+02 0.  0.
         12    1    1    2    0    0  0.33803814284E+02 -0.15457371328E+02 -0.25445732007E+02  0.45045681989E+02  0.00000000000E+00 0. -1.
         11    1    3    3    0    0 -0.10238398831E+02  0.11489936745E+01  0.46963891146E+01  0.11322591049E+02  0.51100000000E-03 0. -1.
        -11    1    3    3    0    0 -0.16319214358E+02  0.73026071885E+01  0.12972445907E+02  0.22089119088E+02  0.51100000000E-03 0.  1.
        -12    1    3    3    0    0 -0.72462010946E+01  0.70057704648E+01  0.77768969855E+01  0.12730607874E+02  0.00000000000E+00 0.  1.
</event>
<event>
 7    1  0.1503436E-008  0.4614232E+02  0.7816164E-02  0.1320468E+00
        -11   -1    0    0    0    0  0.00000000000E+00  0.00000000000E+00  0.45593999997E+02  0.45594000000E+02  0.51100000000E-03 0. -1.
         11   -1    0    0    0    0 -0.00000000000E+00 -0.00000000000E+00 -0.45593999997E+02  0.45594000000E+02  0.51100000000E-03 0.  1.
    9900012    2    1    2    0    0  0.16290109321E+02 -0.17174509503E+01 -0.41961842209E+02  0.46142317621E+02  0.99999987183E+01 0.  0.
         12    1    1    2    0    0 -0.16290109321E+02  0.17174509503E+01  0.41961842209E+02  0.45045682379E+02  0.00000000000E+00 0. -1.
         11    1    3    3    0    0  0.10206635839E+01  0.26063823772E+01 -0.38527035651E+01  0.47621747416E+01  0.51100000000E-03 0. -1.
        -11    1    3    3    0    0  0.13961877501E+02 -0.46685901870E+01 -0.35721021027E+02  0.38635749005E+02  0.51100000000E-03 0.  1.
        -12    1    3    3    0    0  0.13075682367E+01  0.34475685949E+00 -0.23881176167E+01  0.27443938743E+01  0.00000000000E+00 0.  1.
</event>
<event>
 7    1  0.1503436E-008  0.4614231E+02  0.7816164E-02  0.1320468E+00
        -11   -1    0    0    0    0  0.00000000000E+00  0.00000000000E+00  0.45593999997E+02  0.45594000000E+02  0.51100000000E-03 0.  1.
         11   -1    0    0    0    0 -0.00000000000E+00 -0.00000000000E+00 -0.45593999997E+02  0.45594000000E+02  0.51100000000E-03 0. -1.
    9900012    2    1    2    0    0  0.97398391125E+01  0.21628190650E+02  0.38294530005E+02  0.46142310694E+02  0.99999355593E+01 0.  0.
         12    1    1    2    0    0 -0.97398391125E+01 -0.21628190650E+02 -0.38294530005E+02  0.45045689306E+02  0.00000000000E+00 0. -1.
         11    1    3    3    0    0  0.49758773095E+01  0.66052203392E+01  0.15914915256E+02  0.17935239575E+02  0.51100000000E-03 0. -1.
        -11    1    3    3    0    0  0.40345672374E+01  0.10226495685E+02  0.19955985574E+02  0.22783772894E+02  0.51100000000E-03 0.  1.
         12    1    3    3    0    0  0.72939456562E+00  0.47964746257E+01  0.24236291743E+01  0.54232982254E+01  0.00000000000E+00 0. -1.
</event>
<event>
 7    1  0.1503436E-008  0.4614232E+02  0.7816164E-02  0.1320468E+00
        -11   -1    0    0    0    0  0.00000000000E+00  0.00000000000E+00  0.45593999997E+02  0.45594000000E+02  0.51100000000E-03 0.  1.
         11   -1    0    0    0    0 -0.00000000000E+00 -0.00000000000E+00 -0.45593999997E+02  0.45594000000E+02  0.51100000000E-03 0. -1.
    9900012    2    1    2    0    0  0.26247810272E+02  0.31525018542E+02  0.18610190126E+02  0.46142317469E+02  0.99999973378E+01 0.  0.
         12    1    1    2    0    0 -0.26247810272E+02 -0.31525018542E+02 -0.18610190126E+02  0.45045682531E+02  0.00000000000E+00 0. -1.
         11    1    3    3    0    0  0.10798201914E+02  0.20443937993E+02  0.11333898605E+02  0.25749039265E+02  0.51100000000E-03 0. -1.
        -11    1    3    3    0    0  0.58452667161E+01  0.44771965977E+01  0.22402563681E+01  0.76961796505E+01  0.51100000000E-03 0.  1.
         12    1    3    3    0    0  0.96043416418E+01  0.66038839520E+01  0.50360351525E+01  0.12697098554E+02  0.00000000000E+00 0. -1.
</event>
<event>
 7    1  0.1503436E-008  0.4614232E+02  0.7816164E-02  0.1320468E+00
        -11   -1    0    0    0    0  0.00000000000E+00  0.00000000000E+00  0.45593999997E+02  0.45594000000E+02  0.51100000000E-03 0. -1.
         11   -1    0    0    0    0 -0.00000000000E+00 -0.00000000000E+00 -0.45593999997E+02  0.45594000000E+02  0.51100000000E-03 0.  1.
    9900012    2    1    2    0    0 -0.26416669280E+02  0.33089783764E+02 -0.15373329670E+02  0.46142317959E+02  0.10000001806E+02 0.  0.
         12    1    1    2    0    0  0.26416669280E+02 -0.33089783764E+02  0.15373329670E+02  0.45045682041E+02  0.00000000000E+00 0. -1.
         11    1    3    3    0    0 -0.17632040051E+02  0.16244521411E+02 -0.63189996553E+01  0.24793206108E+02  0.51100000000E-03 0.  1.
        -11    1    3    3    0    0 -0.59998024984E+01  0.11316734072E+02 -0.79086909659E+01  0.15053687028E+02  0.51100000000E-03 0. -1.
        -12    1    3    3    0    0 -0.27848267303E+01  0.55285282812E+01 -0.11456390491E+01  0.62954248232E+01  0.00000000000E+00 0.  1.
</event>
<event>
 7    1  0.1503436E-008  0.4614232E+02  0.7816164E-02  0.1320468E+00
        -11   -1    0    0    0    0  0.00000000000E+00  0.00000000000E+00  0.45593999997E+02  0.45594000000E+02  0.51100000000E-03 0.  1.
         11   -1    0    0    0    0 -0.00000000000E+00 -0.00000000000E+00 -0.45593999997E+02  0.45594000000E+02  0.51100000000E-03 0. -1.
    9900012    2    1    2    0    0  0.14693540818E+02  0.32555893072E+02  0.27446809463E+02  0.46142315798E+02  0.99999820986E+01 0.  0.
         12    1    1    2    0    0 -0.14693540818E+02 -0.32555893072E+02 -0.27446809463E+02  0.45045684202E+02  0.00000000000E+00 0. -1.
         11    1    3    3    0    0  0.57052954189E+01  0.12103173451E+02  0.65013470955E+01  0.14876313983E+02  0.51100000000E-03 0. -1.
        -11    1    3    3    0    0  0.61957337126E+01  0.16720711762E+02  0.13048270166E+02  0.22095851933E+02  0.51100000000E-03 0.  1.
         12    1    3    3    0    0  0.27925116869E+01  0.37320078589E+01  0.78971922016E+01  0.91701498815E+01  0.00000000000E+00 0. -1.
</event>
<event>
 7    1  0.1503436E-008  0.4614232E+02  0.7816164E-02  0.1320468E+00
        -11   -1    0    0    0    0  0.00000000000E+00  0.00000000000E+00  0.45593999997E+02  0.45594000000E+02  0.51100000000E-03 0.  1.
         11   -1    0    0    0    0 -0.00000000000E+00 -0.00000000000E+00 -0.45593999997E+02  0.45594000000E+02  0.51100000000E-03 0. -1.
    9900012    2    1    2    0    0  0.12131765895E+02  0.40701930409E+02  0.15009540852E+02  0.46142320970E+02  0.10000029258E+02 0.  0.
         12    1    1    2    0    0 -0.12131765895E+02 -0.40701930409E+02 -0.15009540852E+02  0.45045679030E+02  0.00000000000E+00 0. -1.
         11    1    3    3    0    0 -0.75875998013E+00  0.48070542490E+01  0.42376776214E+01  0.64530147330E+01  0.51100000000E-03 0. -1.
        -11    1    3    3    0    0  0.78502345406E+01  0.18714816943E+02  0.58532136715E+01  0.21121805465E+02  0.51100000000E-03 0.  1.
         12    1    3    3    0    0  0.50402913341E+01  0.17180059216E+02  0.49186495591E+01  0.18567500771E+02  0.00000000000E+00 0. -1.
</event>
<event>
 7    1  0.1503436E-008  0.4614232E+02  0.7816164E-02  0.1320468E+00
        -11   -1    0    0    0    0  0.00000000000E+00  0.00000000000E+00  0.45593999997E+02  0.45594000000E+02  0.51100000000E-03 0.  1.
         11   -1    0    0    0    0 -0.00000000000E+00 -0.00000000000E+00 -0.45593999997E+02  0.45594000000E+02  0.51100000000E-03 0. -1.
    9900012    2    1    2    0    0 -0.28472435566E+02 -0.16275180156E+02  0.30879643921E+02  0.46142317800E+02  0.10000000353E+02 0.  0.
         12    1    1    2    0    0  0.28472435566E+02  0.16275180156E+02 -0.30879643921E+02  0.45045682200E+02  0.00000000000E+00 0. -1.
         11    1    3    3    0    0 -0.11108979271E+02 -0.25632969273E+01  0.12890266389E+02  0.17208686162E+02  0.51100000000E-03 0. -1.
        -11    1    3    3    0    0 -0.17064786929E+02 -0.11851210984E+02  0.16545433421E+02  0.26559546722E+02  0.51100000000E-03 0.  1.
        -12    1    3    3    0    0 -0.29866936639E+00 -0.18606722449E+01  0.14439441113E+01  0.23740849163E+01  0.00000000000E+00 0.  1.
</event>
<event>
 7    1  0.1503436E-008  0.4614232E+02  0.7816164E-02  0.1320468E+00
        -11   -1    0    0    0    0  0.00000000000E+00  0.00000000000E+00  0.45593999997E+02  0.45594000000E+02  0.51100000000E-03 0.  1.
         11   -1    0    0    0    0 -0.00000000000E+00 -0.00000000000E+00 -0.45593999997E+02  0.45594000000E+02  0.51100000000E-03 0. -1.
    9900012    2    1    2    0    0 -0.35786866684E+02  0.11519807732E+02 -0.24813453455E+02  0.46142320190E+02  0.10000022146E+02 0.  0.
         12    1    1    2    0    0  0.35786866684E+02 -0.11519807732E+02  0.24813453455E+02  0.45045679810E+02  0.00000000000E+00 0. -1.
         11    1    3    3    0    0 -0.25705368212E+02  0.84994725702E+01 -0.13635262134E+02  0.30313814715E+02  0.51100000000E-03 0.  1.
        -11    1    3    3    0    0 -0.74765521465E+01  0.29822455454E+01 -0.60260622053E+01  0.10055150245E+02  0.51100000000E-03 0. -1.
         12    1    3    3    0    0 -0.26049463259E+01  0.38089616160E-01 -0.51521291157E+01  0.57733552294E+01  0.00000000000E+00 0. -1.
</event>
<event>
 7    1  0.1503436E-008  0.4614233E+02  0.7816164E-02  0.1320468E+00
        -11   -1    0    0    0    0  0.00000000000E+00  0.00000000000E+00  0.45593999997E+02  0.45594000000E+02  0.51100000000E-03 0. -1.
         11   -1    0    0    0    0 -0.00000000000E+00 -0.00000000000E+00 -0.45593999997E+02  0.45594000000E+02  0.51100000000E-03 0.  1.
    9900012    2    1    2    0    0 -0.33788775345E+02  0.21293989331E+02 -0.20832598225E+02  0.46142329067E+02  0.10000103100E+02 0.  0.
         12    1    1    2    0    0  0.33788775345E+02 -0.21293989331E+02  0.20832598225E+02  0.45045670933E+02  0.00000000000E+00 0. -1.
         11    1    3    3    0    0 -0.84892698096E+01  0.55975144139E+01 -0.29949239910E+01  0.10600445249E+02  0.51100000000E-03 0. -1.
        -11    1    3    3    0    0 -0.14448760992E+02  0.47434249044E+01 -0.73136759614E+01  0.16874733490E+02  0.51100000000E-03 0.  1.
        -12    1    3    3    0    0 -0.10850744544E+02  0.10953050013E+02 -0.10523998272E+02  0.18667150328E+02  0.00000000000E+00 0.  1.
</event>
<event>
 7    1  0.1503436E-008  0.4614232E+02  0.7816164E-02  0.1320468E+00
        -11   -1    0    0    0    0  0.00000000000E+00  0.00000000000E+00  0.45593999997E+02  0.45594000000E+02  0.51100000000E-03 0.  1.
         11   -1    0    0    0    0 -0.00000000000E+00 -0.00000000000E+00 -0.45593999997E+02  0.45594000000E+02  0.51100000000E-03 0. -1.
    9900012    2    1    2    0    0 -0.93972617004E+01  0.38815477345E+01  0.43883236504E+02  0.46142318894E+02  0.10000010330E+02 0.  0.
         12    1    1    2    0    0  0.93972617004E+01 -0.38815477345E+01 -0.43883236504E+02  0.45045681106E+02  0.00000000000E+00 0. -1.
         11    1    3    3    0    0 -0.47290673967E+01  0.16302058803E+01  0.21419946558E+02  0.21996266967E+02  0.51100000000E-03 0.  1.
        -11    1    3    3    0    0 -0.11582878948E+01  0.44228860678E+01  0.95265943828E+01  0.10566908385E+02  0.51100000000E-03 0. -1.
         12    1    3    3    0    0 -0.35099064089E+01 -0.21715442135E+01  0.12936695563E+02  0.13579143543E+02  0.00000000000E+00 0. -1.
</event>
<event>
 7    1  0.1503436E-008  0.4614232E+02  0.7816164E-02  0.1320468E+00
        -11   -1    0    0    0    0  0.00000000000E+00  0.00000000000E+00  0.45593999997E+02  0.45594000000E+02  0.51100000000E-03 0. -1.
         11   -1    0    0    0    0 -0.00000000000E+00 -0.00000000000E+00 -0.45593999997E+02  0.45594000000E+02  0.51100000000E-03 0.  1.
    9900012    2    1    2    0    0 -0.92477017431E+01  0.44050710786E+02 -0.17687123894E+01  0.46142318167E+02  0.10000003700E+02 0.  0.
         12    1    1    2    0    0  0.92477017431E+01 -0.44050710786E+02  0.17687123894E+01  0.45045681833E+02  0.00000000000E+00 0. -1.
         11    1    3    3    0    0  0.47833775953E+00  0.14902914513E+02 -0.25706358313E+01  0.15130559700E+02  0.51100000000E-03 0. -1.
        -11    1    3    3    0    0 -0.58242213002E+01  0.12574675712E+02  0.16998972949E+01  0.13961864993E+02  0.51100000000E-03 0.  1.
         12    1    3    3    0    0 -0.39018182025E+01  0.16573120561E+02 -0.89797385306E+00  0.17049893474E+02  0.00000000000E+00 0. -1.
</event>
<event>
 7    1  0.1503436E-008  0.4614230E+02  0.7816164E-02  0.1320468E+00
        -11   -1    0    0    0    0  0.00000000000E+00  0.00000000000E+00  0.45593999997E+02  0.45594000000E+02  0.51100000000E-03 0. -1.
         11   -1    0    0    0    0 -0.00000000000E+00 -0.00000000000E+00 -0.45593999997E+02  0.45594000000E+02  0.51100000000E-03 0.  1.
    9900012    2    1    2    0    0 -0.39299475583E+02 -0.26544467455E+01 -0.21854516316E+02  0.46142303735E+02  0.99998720995E+01 0.  0.
         12    1    1    2    0    0  0.39299475583E+02  0.26544467455E+01  0.21854516316E+02  0.45045696265E+02  0.00000000000E+00 0. -1.
         11    1    3    3    0    0 -0.28889218387E+02 -0.30598855679E+01 -0.16802553557E+02  0.33560030468E+02  0.51100000000E-03 0. -1.
        -11    1    3    3    0    0 -0.95760469385E+01  0.19455368193E+01 -0.42508131421E+01  0.10656228278E+02  0.51100000000E-03 0.  1.
         12    1    3    3    0    0 -0.83421025704E+00 -0.15400979969E+01 -0.80114961709E+00  0.19260449896E+01  0.00000000000E+00 0. -1.
</event>
<event>
 7    1  0.1503436E-008  0.4614232E+02  0.7816164E-02  0.1320468E+00
        -11   -1    0    0    0    0  0.00000000000E+00  0.00000000000E+00  0.45593999997E+02  0.45594000000E+02  0.51100000000E-03 0.  1.
         11   -1    0    0    0    0 -0.00000000000E+00 -0.00000000000E+00 -0.45593999997E+02  0.45594000000E+02  0.51100000000E-03 0. -1.
    9900012    2    1    2    0    0 -0.22281003037E+02 -0.17720780303E+02  0.34909086217E+02  0.46142318171E+02  0.10000003741E+02 0.  0.
         12    1    1    2    0    0  0.22281003037E+02  0.17720780303E+02 -0.34909086217E+02  0.45045681829E+02  0.00000000000E+00 0. -1.
         11    1    3    3    0    0  0.51970632398E+00 -0.11835337812E+01  0.41905309192E+00  0.13588423858E+01  0.51100000000E-03 0. -1.
        -11    1    3    3    0    0 -0.73538285215E+01 -0.53787237223E+01  0.14821602424E+02  0.17397970039E+02  0.51100000000E-03 0.  1.
         12    1    3    3    0    0 -0.15446880840E+02 -0.11158522799E+02  0.19668430702E+02  0.27385505747E+02  0.00000000000E+00 0. -1.
</event>
<event>
 7    1  0.1503436E-008  0.4614232E+02  0.7816164E-02  0.1320468E+00
        -11   -1    0    0    0    0  0.00000000000E+00  0.00000000000E+00  0.45593999997E+02  0.45594000000E+02  0.51100000000E-03 0. -1.
         11   -1    0    0    0    0 -0.00000000000E+00 -0.00000000000E+00 -0.45593999997E+02  0.45594000000E+02  0.51100000000E-03 0.  1.
    9900012    2    1    2    0    0 -0.12401291202E+02  0.10720834076E+02 -0.41956943561E+02  0.46142318522E+02  0.10000006943E+02 0.  0.
         12    1    1    2    0    0  0.12401291202E+02 -0.10720834076E+02  0.41956943561E+02  0.45045681478E+02  0.00000000000E+00 0. -1.
         11    1    3    3    0    0  0.85253720523E+00  0.16625323851E-01 -0.26820524038E+01  0.28143385450E+01  0.51100000000E-03 0. -1.
        -11    1    3    3    0    0 -0.83238892180E+01  0.99377438678E+01 -0.31802864700E+02  0.34343384927E+02  0.51100000000E-03 0.  1.
        -12    1    3    3    0    0 -0.49299391898E+01  0.76646488484E+00 -0.74720264577E+01  0.89845950504E+01  0.00000000000E+00 0.  1.
</event>
<event>
 7    1  0.1503436E-008  0.4614232E+02  0.7816164E-02  0.1320468E+00
        -11   -1    0    0    0    0  0.00000000000E+00  0.00000000000E+00  0.45593999997E+02  0.45594000000E+02  0.51100000000E-03 0.  1.
         11   -1    0    0    0    0 -0.00000000000E+00 -0.00000000000E+00 -0.45593999997E+02  0.45594000000E+02  0.51100000000E-03 0. -1.
    9900012    2    1    2    0    0  0.65751728674E+01 -0.37312585714E+01  0.44406739853E+02  0.46142315044E+02  0.99999752244E+01 0.  0.
         12    1    1    2    0    0 -0.65751728674E+01  0.37312585714E+01 -0.44406739853E+02  0.45045684956E+02  0.00000000000E+00 0. -1.
         11    1    3    3    0    0  0.14927794510E+01  0.16737017131E+01  0.22748878524E+01  0.31944925913E+01  0.51100000000E-03 0. -1.
        -11    1    3    3    0    0  0.27411445501E+01 -0.14157181459E+01  0.25458547828E+02  0.25644800430E+02  0.51100000000E-03 0.  1.
        -12    1    3    3    0    0  0.23412488664E+01 -0.39892421385E+01  0.16673304173E+02  0.17303022023E+02  0.00000000000E+00 0.  1.
</event>
<event>
 7    1  0.1503436E-008  0.4614232E+02  0.7816164E-02  0.1320468E+00
        -11   -1    0    0    0    0  0.00000000000E+00  0.00000000000E+00  0.45593999997E+02  0.45594000000E+02  0.51100000000E-03 0.  1.
         11   -1    0    0    0    0 -0.00000000000E+00 -0.00000000000E+00 -0.45593999997E+02  0.45594000000E+02  0.51100000000E-03 0. -1.
    9900012    2    1    2    0    0  0.34302692955E+02  0.28875755298E+02 -0.43161926711E+01  0.46142317552E+02  0.99999980925E+01 0.  0.
         12    1    1    2    0    0 -0.34302692955E+02 -0.28875755298E+02  0.43161926711E+01  0.45045682448E+02  0.00000000000E+00 0. -1.
         11    1    3    3    0    0  0.10895716349E+02  0.13385119763E+02  0.62841176477E+00  0.17270580982E+02  0.51100000000E-03 0. -1.
        -11    1    3    3    0    0  0.14382304362E+02  0.67728688971E+01 -0.27027643731E+01  0.16125364100E+02  0.51100000000E-03 0.  1.
         12    1    3    3    0    0  0.90246722442E+01  0.87177666380E+01 -0.22418400627E+01  0.12746372470E+02  0.00000000000E+00 0. -1.
</event>
<event>
 7    1  0.1503436E-008  0.4614232E+02  0.7816164E-02  0.1320468E+00
        -11   -1    0    0    0    0  0.00000000000E+00  0.00000000000E+00  0.45593999997E+02  0.45594000000E+02  0.51100000000E-03 0.  1.
         11   -1    0    0    0    0 -0.00000000000E+00 -0.00000000000E+00 -0.45593999997E+02  0.45594000000E+02  0.51100000000E-03 0. -1.
    9900012    2    1    2    0    0  0.35107039341E+02 -0.27567980544E+02 -0.60510922808E+01  0.46142317850E+02  0.10000000810E+02 0.  0.
         12    1    1    2    0    0 -0.35107039341E+02  0.27567980544E+02  0.60510922808E+01  0.45045682150E+02  0.00000000000E+00 0. -1.
         11    1    3    3    0    0  0.16181462725E+02 -0.17517152030E+02 -0.31124783912E+01  0.24049488002E+02  0.51100000000E-03 0. -1.
        -11    1    3    3    0    0  0.15874504778E+02 -0.10151556735E+02 -0.24590020397E+01  0.19002649746E+02  0.51100000000E-03 0.  1.
         12    1    3    3    0    0  0.30510718382E+01  0.10072822052E+00 -0.47961184995E+00  0.30901801020E+01  0.00000000000E+00 0. -1.
</event>
<event>
 7    1  0.1503436E-008  0.4614232E+02  0.7816164E-02  0.1320468E+00
        -11   -1    0    0    0    0  0.00000000000E+00  0.00000000000E+00  0.45593999997E+02  0.45594000000E+02  0.51100000000E-03 0.  1.
         11   -1    0    0    0    0 -0.00000000000E+00 -0.00000000000E+00 -0.45593999997E+02  0.45594000000E+02  0.51100000000E-03 0. -1.
    9900012    2    1    2    0    0  0.41600201668E+02  0.38099561209E+01  0.16852921216E+02  0.46142317655E+02  0.99999990306E+01 0.  0.
         12    1    1    2    0    0 -0.41600201668E+02 -0.38099561209E+01 -0.16852921216E+02  0.45045682345E+02  0.00000000000E+00 0. -1.
         11    1    3    3    0    0  0.26236535594E+01 -0.43682397103E+00 -0.10645387151E+01  0.28648937360E+01  0.51100000000E-03 0. -1.
        -11    1    3    3    0    0  0.30337235226E+02  0.35678995254E+01  0.15638811845E+02  0.34316908141E+02  0.51100000000E-03 0.  1.
         12    1    3    3    0    0  0.86393128825E+01  0.67888056657E+00  0.22786480859E+01  0.89605157779E+01  0.00000000000E+00 0. -1.
</event>
<event>
 7    1  0.1503436E-008  0.4614232E+02  0.7816164E-02  0.1320468E+00
        -11   -1    0    0    0    0  0.00000000000E+00  0.00000000000E+00  0.45593999997E+02  0.45594000000E+02  0.51100000000E-03 0.  1.
         11   -1    0    0    0    0 -0.00000000000E+00 -0.00000000000E+00 -0.45593999997E+02  0.45594000000E+02  0.51100000000E-03 0. -1.
    9900012    2    1    2    0    0  0.49765670814E+01  0.17138505767E+02  0.41359628066E+02  0.46142318369E+02  0.10000005544E+02 0.  0.
         12    1    1    2    0    0 -0.49765670814E+01 -0.17138505767E+02 -0.41359628066E+02  0.45045681631E+02  0.00000000000E+00 0. -1.
         11    1    3    3    0    0  0.68011198707E+01  0.10180832400E+02  0.19805284894E+02  0.23284198286E+02  0.51100000000E-03 0.  1.
        -11    1    3    3    0    0 -0.12520587407E+01  0.50164306236E+01  0.11599629505E+02  0.12699749297E+02  0.51100000000E-03 0. -1.
        -12    1    3    3    0    0 -0.57249404871E+00  0.19412427431E+01  0.99547136672E+01  0.10158370786E+02  0.00000000000E+00 0.  1.
</event>
<event>
 7    1  0.1503436E-008  0.4614231E+02  0.7816164E-02  0.1320468E+00
        -11   -1    0    0    0    0  0.00000000000E+00  0.00000000000E+00  0.45593999997E+02  0.45594000000E+02  0.51100000000E-03 0.  1.
         11   -1    0    0    0    0 -0.00000000000E+00 -0.00000000000E+00 -0.45593999997E+02  0.45594000000E+02  0.51100000000E-03 0. -1.
    9900012    2    1    2    0    0 -0.31839345128E+02 -0.21942319299E+02  0.23106388063E+02  0.46142307157E+02  0.99999033054E+01 0.  0.
         12    1    1    2    0    0  0.31839345128E+02  0.21942319299E+02 -0.23106388063E+02  0.45045692843E+02  0.00000000000E+00 0. -1.
         11    1    3    3    0    0 -0.59709867659E+01 -0.50863319714E+01  0.13371685785E+01  0.79568508815E+01  0.51100000000E-03 0. -1.
        -11    1    3    3    0    0 -0.15778776158E+02 -0.73395367795E+01  0.10587525795E+02  0.20369935688E+02  0.51100000000E-03 0.  1.
         12    1    3    3    0    0 -0.10089582204E+02 -0.95164505478E+01  0.11181693689E+02  0.17815520588E+02  0.00000000000E+00 0. -1.
</event>
<event>
 7    1  0.1503436E-008  0.4614232E+02  0.7816164E-02  0.1320468E+00
        -11   -1    0    0    0    0  0.00000000000E+00  0.00000000000E+00  0.45593999997E+02  0.45594000000E+02  0.51100000000E-03 0.  1.
         11   -1    0    0    0    0 -0.00000000000E+00 -0.00000000000E+00 -0.45593999997E+02  0.45594000000E+02  0.51100000000E-03 0. -1.
    9900012    2    1    2    0    0 -0.15739627853E+02 -0.20900226664E+01  0.42154590524E+02  0.46142316723E+02  0.99999905313E+01 0.  0.
         12    1    1    2    0    0  0.15739627853E+02  0.20900226664E+01 -0.42154590524E+02  0.45045683277E+02  0.00000000000E+00 0. -1.
         11    1    3    3    0    0 -0.75601078203E+01 -0.34661693861E+01  0.10927201984E+02  0.13732199530E+02  0.51100000000E-03 0. -1.
        -11    1    3    3    0    0 -0.78131823426E+01  0.10543836875E+01  0.26236398214E+02  0.27395367032E+02  0.51100000000E-03 0.  1.
         12    1    3    3    0    0 -0.36633769042E+00  0.32176303209E+00  0.49909903256E+01  0.50147501615E+01  0.00000000000E+00 0. -1.
</event>
<event>
 7    1  0.1503436E-008  0.4614232E+02  0.7816164E-02  0.1320468E+00
        -11   -1    0    0    0    0  0.00000000000E+00  0.00000000000E+00  0.45593999997E+02  0.45594000000E+02  0.51100000000E-03 0. -1.
         11   -1    0    0    0    0 -0.00000000000E+00 -0.00000000000E+00 -0.45593999997E+02  0.45594000000E+02  0.51100000000E-03 0.  1.
    9900012    2    1    2    0    0  0.72537261938E+01 -0.38894071230E+02 -0.21534813307E+02  0.46142317580E+02  0.99999983472E+01 0.  0.
         12    1    1    2    0    0 -0.72537261938E+01  0.38894071230E+02  0.21534813307E+02  0.45045682420E+02  0.00000000000E+00 0. -1.
         11    1    3    3    0    0  0.18060337002E+01 -0.34516461291E+01 -0.40694605941E+01  0.56334828050E+01  0.51100000000E-03 0. -1.
        -11    1    3    3    0    0  0.62717832213E+01 -0.28578857011E+02 -0.16317099511E+02  0.33501254746E+02  0.51100000000E-03 0.  1.
         12    1    3    3    0    0 -0.82409072768E+00 -0.68635680897E+01 -0.11482532026E+01  0.70075800293E+01  0.00000000000E+00 0. -1.
</event>
<event>
 7    1  0.1503436E-008  0.4614232E+02  0.7816164E-02  0.1320468E+00
        -11   -1    0    0    0    0  0.00000000000E+00  0.00000000000E+00  0.45593999997E+02  0.45594000000E+02  0.51100000000E-03 0.  1.
         11   -1    0    0    0    0 -0.00000000000E+00 -0.00000000000E+00 -0.45593999997E+02  0.45594000000E+02  0.51100000000E-03 0. -1.
    9900012    2    1    2    0    0 -0.40104568999E+01  0.41839672490E+02  0.16200976887E+02  0.46142316403E+02  0.99999876181E+01 0.  0.
         12    1    1    2    0    0  0.40104568999E+01 -0.41839672490E+02 -0.16200976887E+02  0.45045683597E+02  0.00000000000E+00 0. -1.
         11    1    3    3    0    0  0.30966478041E+00 -0.26269197742E+00  0.97658265575E+00  0.10576451654E+01  0.51100000000E-03 0. -1.
        -11    1    3    3    0    0 -0.30476533172E+01  0.18797560324E+02  0.79717562222E+01  0.20644257371E+02  0.51100000000E-03 0.  1.
        -12    1    3    3    0    0 -0.12724683631E+01  0.23304804143E+02  0.72526380092E+01  0.24440413866E+02  0.00000000000E+00 0.  1.
</event>
<event>
 7    1  0.1503436E-008  0.4614232E+02  0.7816164E-02  0.1320468E+00
        -11   -1    0    0    0    0  0.00000000000E+00  0.00000000000E+00  0.45593999997E+02  0.45594000000E+02  0.51100000000E-03 0.  1.
         11   -1    0    0    0    0 -0.00000000000E+00 -0.00000000000E+00 -0.45593999997E+02  0.45594000000E+02  0.51100000000E-03 0. -1.
    9900012    2    1    2    0    0 -0.29879301754E+02 -0.25382737374E+02  0.22182368851E+02  0.46142317435E+02  0.99999970283E+01 0.  0.
         12    1    1    2    0    0  0.29879301754E+02  0.25382737374E+02 -0.22182368851E+02  0.45045682565E+02  0.00000000000E+00 0. -1.
         11    1    3    3    0    0 -0.16826433236E+02 -0.17201636281E+02  0.13605334125E+02  0.27642906198E+02  0.51100000000E-03 0. -1.
        -11    1    3    3    0    0 -0.44728228635E+01  0.85708598569E-01  0.21922794771E+01  0.49819253205E+01  0.51100000000E-03 0.  1.
        -12    1    3    3    0    0 -0.85800456544E+01 -0.82668096917E+01  0.63847552490E+01  0.13517485916E+02  0.00000000000E+00 0.  1.
</event>
<event>
 7    1  0.1503436E-008  0.4614231E+02  0.7816164E-02  0.1320468E+00
        -11   -1    0    0    0    0  0.00000000000E+00  0.00000000000E+00  0.45593999997E+02  0.45594000000E+02  0.51100000000E-03 0. -1.
         11   -1    0    0    0    0 -0.00000000000E+00 -0.00000000000E+00 -0.45593999997E+02  0.45594000000E+02  0.51100000000E-03 0.  1.
    9900012    2    1    2    0    0  0.41616552248E+02  0.14176964907E+02 -0.98076504941E+01  0.46142314711E+02  0.99999721852E+01 0.  0.
         12    1    1    2    0    0 -0.41616552248E+02 -0.14176964907E+02  0.98076504941E+01  0.45045685289E+02  0.00000000000E+00 0. -1.
         11    1    3    3    0    0  0.15613117745E+02  0.33680098445E+01 -0.21379306502E+01  0.16114703962E+02  0.51100000000E-03 0. -1.
        -11    1    3    3    0    0  0.67061730958E+01  0.12068696497E-01 -0.33534977384E+01  0.74979230849E+01  0.51100000000E-03 0.  1.
        -12    1    3    3    0    0  0.19297261407E+02  0.10796886366E+02 -0.43162221055E+01  0.22529687664E+02  0.00000000000E+00 0.  1.
</event>
<event>
 7    1  0.1503436E-008  0.4614232E+02  0.7816164E-02  0.1320468E+00
        -11   -1    0    0    0    0  0.00000000000E+00  0.00000000000E+00  0.45593999997E+02  0.45594000000E+02  0.51100000000E-03 0. -1.
         11   -1    0    0    0    0 -0.00000000000E+00 -0.00000000000E+00 -0.45593999997E+02  0.45594000000E+02  0.51100000000E-03 0.  1.
    9900012    2    1    2    0    0 -0.42397380414E+02  0.11987363211E+02  0.93743746299E+01  0.46142316051E+02  0.99999844021E+01 0.  0.
         12    1    1    2    0    0  0.42397380414E+02 -0.11987363211E+02 -0.93743746299E+01  0.45045683949E+02  0.00000000000E+00 0. -1.
         11    1    3    3    0    0 -0.15997961488E+02  0.86092556623E+01  0.10695350707E+01  0.18198845028E+02  0.51100000000E-03 0. -1.
        -11    1    3    3    0    0 -0.21793316648E+02  0.22241040949E+01  0.63491890948E+01  0.22808057611E+02  0.51100000000E-03 0.  1.
         12    1    3    3    0    0 -0.46061022786E+01  0.11540034541E+01  0.19556504644E+01  0.51354134120E+01  0.00000000000E+00 0. -1.
</event>
<event>
 7    1  0.1503436E-008  0.4614232E+02  0.7816164E-02  0.1320468E+00
        -11   -1    0    0    0    0  0.00000000000E+00  0.00000000000E+00  0.45593999997E+02  0.45594000000E+02  0.51100000000E-03 0.  1.
         11   -1    0    0    0    0 -0.00000000000E+00 -0.00000000000E+00 -0.45593999997E+02  0.45594000000E+02  0.51100000000E-03 0. -1.
    9900012    2    1    2    0    0 -0.14918543933E+02  0.20525914964E+02  0.37218775490E+02  0.46142318885E+02  0.10000010247E+02 0.  0.
         12    1    1    2    0    0  0.14918543933E+02 -0.20525914964E+02 -0.37218775490E+02  0.45045681115E+02  0.00000000000E+00 0. -1.
         11    1    3    3    0    0 -0.77368077851E+01  0.16130595577E+02  0.21867485943E+02  0.28253163542E+02  0.51100000000E-03 0. -1.
        -11    1    3    3    0    0 -0.37805135056E+01  0.13533032817E+01  0.10438109103E+02  0.11183820190E+02  0.51100000000E-03 0.  1.
         12    1    3    3    0    0 -0.34012226419E+01  0.30420161045E+01  0.49131804435E+01  0.67053351528E+01  0.00000000000E+00 0. -1.
</event>
<event>
 7    1  0.1503436E-008  0.4614232E+02  0.7816164E-02  0.1320468E+00
        -11   -1    0    0    0    0  0.00000000000E+00  0.00000000000E+00  0.45593999997E+02  0.45594000000E+02  0.51100000000E-03 0.  1.
         11   -1    0    0    0    0 -0.00000000000E+00 -0.00000000000E+00 -0.45593999997E+02  0.45594000000E+02  0.51100000000E-03 0. -1.
    9900012    2    1    2    0    0 -0.43183074217E+02 -0.12538927161E+02  0.26666339780E+01  0.46142317299E+02  0.99999957890E+01 0.  0.
         12    1    1    2    0    0  0.43183074217E+02  0.12538927161E+02 -0.26666339780E+01  0.45045682701E+02  0.00000000000E+00 0. -1.
         11    1    3    3    0    0 -0.23785071801E+01  0.10240223318E+01 -0.77979768988E+00  0.27044413176E+01  0.51100000000E-03 0. -1.
        -11    1    3    3    0    0 -0.11101527882E+02 -0.25653617175E+01 -0.10686108453E+01  0.11444078445E+02  0.51100000000E-03 0.  1.
         12    1    3    3    0    0 -0.29703039155E+02 -0.10997587775E+02  0.45150425132E+01  0.31993797537E+02  0.00000000000E+00 0. -1.
</event>
<event>
 7    1  0.1503436E-008  0.4614232E+02  0.7816164E-02  0.1320468E+00
        -11   -1    0    0    0    0  0.00000000000E+00  0.00000000000E+00  0.45593999997E+02  0.45594000000E+02  0.51100000000E-03 0.  1.
         11   -1    0    0    0    0 -0.00000000000E+00 -0.00000000000E+00 -0.45593999997E+02  0.45594000000E+02  0.51100000000E-03 0. -1.
    9900012    2    1    2    0    0  0.70572460298E+01 -0.30334027124E+02  0.32544670340E+02  0.46142317736E+02  0.99999997709E+01 0.  0.
         12    1    1    2    0    0 -0.70572460298E+01  0.30334027124E+02 -0.32544670340E+02  0.45045682264E+02  0.00000000000E+00 0. -1.
         11    1    3    3    0    0  0.84997315792E+01 -0.26645347981E+02  0.30277470795E+02  0.41218263475E+02  0.51100000000E-03 0. -1.
        -11    1    3    3    0    0 -0.83139236747E+00 -0.34743758220E+00  0.86591264914E+00  0.12496924099E+01  0.51100000000E-03 0.  1.
         12    1    3    3    0    0 -0.61109318193E+00 -0.33412415608E+01  0.14012868966E+01  0.36743618509E+01  0.00000000000E+00 0. -1.
</event>
<event>
 7    1  0.1503436E-008  0.4614232E+02  0.7816164E-02  0.1320468E+00
        -11   -1    0    0    0    0  0.00000000000E+00  0.00000000000E+00  0.45593999997E+02  0.45594000000E+02  0.51100000000E-03 0.  1.
         11   -1    0    0    0    0 -0.00000000000E+00 -0.00000000000E+00 -0.45593999997E+02  0.45594000000E+02  0.51100000000E-03 0. -1.
    9900012    2    1    2    0    0  0.18932782613E+02  0.20511758480E+02  0.35354363112E+02  0.46142317804E+02  0.10000000396E+02 0.  0.
         12    1    1    2    0    0 -0.18932782613E+02 -0.20511758480E+02 -0.35354363112E+02  0.45045682196E+02  0.00000000000E+00 0. -1.
         11    1    3    3    0    0  0.24153887543E+01  0.62318142318E+01  0.11711543385E+02  0.13484430287E+02  0.51100000000E-03 0.  1.
        -11    1    3    3    0    0  0.10363810567E+02  0.89325605832E+01  0.10733352348E+02  0.17389768858E+02  0.51100000000E-03 0. -1.
         12    1    3    3    0    0  0.61535832911E+01  0.53473836652E+01  0.12909467379E+02  0.15268118659E+02  0.00000000000E+00 0. -1.
</event>
<event>
 7    1  0.1503436E-008  0.4614232E+02  0.7816164E-02  0.1320468E+00
        -11   -1    0    0    0    0  0.00000000000E+00  0.00000000000E+00  0.45593999997E+02  0.45594000000E+02  0.51100000000E-03 0. -1.
         11   -1    0    0    0    0 -0.00000000000E+00 -0.00000000000E+00 -0.45593999997E+02  0.45594000000E+02  0.51100000000E-03 0.  1.
    9900012    2    1    2    0    0  0.39871664794E+02  0.38523957296E+01 -0.20603952225E+02  0.46142318147E+02  0.10000003519E+02 0.  0.
         12    1    1    2    0    0 -0.39871664794E+02 -0.38523957296E+01  0.20603952225E+02  0.45045681853E+02  0.00000000000E+00 0. -1.
         11    1    3    3    0    0  0.11640281262E+02  0.35496239049E+01 -0.96124588544E+01  0.15507912277E+02  0.51100000000E-03 0. -1.
        -11    1    3    3    0    0  0.14467590397E+02 -0.14511923440E+01 -0.39103411912E+01  0.15056822361E+02  0.51100000000E-03 0.  1.
        -12    1    3    3    0    0  0.13763793136E+02  0.17539641687E+01 -0.70811521796E+01  0.15577583509E+02  0.00000000000E+00 0.  1.
</event>
<event>
 7    1  0.1503436E-008  0.4614232E+02  0.7816164E-02  0.1320468E+00
        -11   -1    0    0    0    0  0.00000000000E+00  0.00000000000E+00  0.45593999997E+02  0.45594000000E+02  0.51100000000E-03 0.  1.
         11   -1    0    0    0    0 -0.00000000000E+00 -0.00000000000E+00 -0.45593999997E+02  0.45594000000E+02  0.51100000000E-03 0. -1.
    9900012    2    1    2    0    0  0.18714796956E+02  0.36776159771E+02  0.18066096400E+02  0.46142318833E+02  0.10000009777E+02 0.  0.
         12    1    1    2    0    0 -0.18714796956E+02 -0.36776159771E+02 -0.18066096400E+02  0.45045681167E+02  0.00000000000E+00 0. -1.
         11    1    3    3    0    0  0.63954468961E+01  0.74953787949E+01  0.35929308179E+01  0.10487687848E+02  0.51100000000E-03 0. -1.
        -11    1    3    3    0    0  0.57369013304E+01  0.22141327578E+02  0.10323350447E+02  0.25094262063E+02  0.51100000000E-03 0.  1.
        -12    1    3    3    0    0  0.65824487292E+01  0.71394533989E+01  0.41498151353E+01  0.10560368922E+02  0.00000000000E+00 0.  1.
</event>
<event>
 7    1  0.1503436E-008  0.4614232E+02  0.7816164E-02  0.1320468E+00
        -11   -1    0    0    0    0  0.00000000000E+00  0.00000000000E+00  0.45593999997E+02  0.45594000000E+02  0.51100000000E-03 0.  1.
         11   -1    0    0    0    0 -0.00000000000E+00 -0.00000000000E+00 -0.45593999997E+02  0.45594000000E+02  0.51100000000E-03 0. -1.
    9900012    2    1    2    0    0 -0.16622331948E+02 -0.68374076544E+01  0.41304496332E+02  0.46142317853E+02  0.10000000841E+02 0.  0.
         12    1    1    2    0    0  0.16622331948E+02  0.68374076544E+01 -0.41304496332E+02  0.45045682147E+02  0.00000000000E+00 0. -1.
         11    1    3    3    0    0  0.47129391178E-01  0.10726383510E+01  0.76074769894E+01  0.76828692959E+01  0.51100000000E-03 0. -1.
        -11    1    3    3    0    0 -0.86321103665E+01 -0.32176573465E+01  0.15906843410E+02  0.18381901852E+02  0.51100000000E-03 0.  1.
         12    1    3    3    0    0 -0.80373509731E+01 -0.46923886589E+01  0.17790175933E+02  0.20077546705E+02  0.00000000000E+00 0. -1.
</event>
<event>
 7    1  0.1503436E-008  0.4614232E+02  0.7816164E-02  0.1320468E+00
        -11   -1    0    0    0    0  0.00000000000E+00  0.00000000000E+00  0.45593999997E+02  0.45594000000E+02  0.51100000000E-03 0. -1.
         11   -1    0    0    0    0 -0.00000000000E+00 -0.00000000000E+00 -0.45593999997E+02  0.45594000000E+02  0.51100000000E-03 0.  1.
    9900012    2    1    2    0    0  0.40531984076E+02 -0.19203845294E+02  0.41813926256E+01  0.46142318170E+02  0.10000003732E+02 0.  0.
         12    1    1    2    0    0 -0.40531984076E+02  0.19203845294E+02 -0.41813926256E+01  0.45045681830E+02  0.00000000000E+00 0. -1.
         11    1    3    3    0    0  0.10083590073E+00 -0.54093588637E+00 -0.39579111972E-01  0.55167588244E+00  0.51100000000E-03 0. -1.
        -11    1    3    3    0    0  0.16088762640E+02 -0.29421247385E+01  0.38252605396E+00  0.16360033854E+02  0.51100000000E-03 0.  1.
        -12    1    3    3    0    0  0.24342385536E+02 -0.15720784669E+02  0.38384456836E+01  0.29230608434E+02  0.00000000000E+00 0.  1.
</event>
<event>
 7    1  0.1503436E-008  0.4614232E+02  0.7816164E-02  0.1320468E+00
        -11   -1    0    0    0    0  0.00000000000E+00  0.00000000000E+00  0.45593999997E+02  0.45594000000E+02  0.51100000000E-03 0.  1.
         11   -1    0    0    0    0 -0.00000000000E+00 -0.00000000000E+00 -0.45593999997E+02  0.45594000000E+02  0.51100000000E-03 0. -1.
    9900012    2    1    2    0    0 -0.23879799560E+02  0.31921685286E+01  0.38061512529E+02  0.46142317600E+02  0.99999985273E+01 0.  0.
         12    1    1    2    0    0  0.23879799560E+02 -0.31921685286E+01 -0.38061512529E+02  0.45045682400E+02  0.00000000000E+00 0. -1.
         11    1    3    3    0    0 -0.15334557656E+01  0.10809318223E+01  0.48314598521E+01  0.51829436378E+01  0.51100000000E-03 0. -1.
        -11    1    3    3    0    0 -0.10208485380E+01 -0.47395066584E+00 -0.27560521893E+00  0.11587577266E+01  0.51100000000E-03 0.  1.
        -12    1    3    3    0    0 -0.21325495257E+02  0.25851873721E+01  0.33505657895E+02  0.39800616235E+02  0.00000000000E+00 0.  1.
</event>
<event>
 7    1  0.1503436E-008  0.4614232E+02  0.7816164E-02  0.1320468E+00
        -11   -1    0    0    0    0  0.00000000000E+00  0.00000000000E+00  0.45593999997E+02  0.45594000000E+02  0.51100000000E-03 0. -1.
         11   -1    0    0    0    0 -0.00000000000E+00 -0.00000000000E+00 -0.45593999997E+02  0.45594000000E+02  0.51100000000E-03 0.  1.
    9900012    2    1    2    0    0 -0.31212384378E+02 -0.79854910718E+01 -0.31482257621E+02  0.46142317064E+02  0.99999936470E+01 0.  0.
         12    1    1    2    0    0  0.31212384378E+02  0.79854910718E+01  0.31482257621E+02  0.45045682936E+02  0.00000000000E+00 0. -1.
         11    1    3    3    0    0 -0.26049716176E+01 -0.23800488995E+01 -0.13513086147E+01  0.37784315696E+01  0.51100000000E-03 0. -1.
        -11    1    3    3    0    0 -0.13172005849E+02 -0.17910175690E+00 -0.10770282648E+02  0.17015663492E+02  0.51100000000E-03 0.  1.
        -12    1    3    3    0    0 -0.15435406912E+02 -0.54263404154E+01 -0.19360666358E+02  0.25348222002E+02  0.00000000000E+00 0.  1.
</event>
<event>
 7    1  0.1976335E-008  0.4614232E+02  0.7816164E-02  0.1320468E+00
        -11   -1    0    0    0    0  0.00000000000E+00  0.00000000000E+00  0.45593999997E+02  0.45594000000E+02  0.51100000000E-03 0. -1.
         11   -1    0    0    0    0 -0.00000000000E+00 -0.00000000000E+00 -0.45593999997E+02  0.45594000000E+02  0.51100000000E-03 0.  1.
    9900012    2    1    2    0    0 -0.13610608288E+02 -0.42150243876E+02 -0.81989014548E+01  0.46142315391E+02  0.99999783913E+01 0.  0.
         12    1    1    2    0    0  0.13610608288E+02  0.42150243876E+02  0.81989014548E+01  0.45045684609E+02  0.00000000000E+00 0. -1.
         11    1    3    3    0    0 -0.47808422544E+01 -0.18744787275E+02  0.20163268157E+00  0.19345908060E+02  0.51100000000E-03 0. -1.
        -11    1    3    3    0    0 -0.20597192443E+01 -0.61054611189E+01 -0.43730975678E+01  0.77873667846E+01  0.51100000000E-03 0.  1.
        -12    1    3    3    0    0 -0.67700467890E+01 -0.17299995482E+02 -0.40274365687E+01  0.19009040547E+02  0.00000000000E+00 0.  1.
</event>
<event>
 7    1  0.1503436E-008  0.4614232E+02  0.7816164E-02  0.1320468E+00
        -11   -1    0    0    0    0  0.00000000000E+00  0.00000000000E+00  0.45593999997E+02  0.45594000000E+02  0.51100000000E-03 0.  1.
         11   -1    0    0    0    0 -0.00000000000E+00 -0.00000000000E+00 -0.45593999997E+02  0.45594000000E+02  0.51100000000E-03 0. -1.
    9900012    2    1    2    0    0  0.15403237205E+02 -0.34852911507E+02  0.24023487788E+02  0.46142321823E+02  0.10000037040E+02 0.  0.
         12    1    1    2    0    0 -0.15403237205E+02  0.34852911507E+02 -0.24023487788E+02  0.45045678177E+02  0.00000000000E+00 0. -1.
         11    1    3    3    0    0  0.10400953994E+02 -0.13727188903E+02  0.96711401577E+01  0.19752126756E+02  0.51100000000E-03 0. -1.
        -11    1    3    3    0    0  0.24692654016E+01 -0.17276436988E+02  0.10374387572E+02  0.20302720615E+02  0.51100000000E-03 0.  1.
        -12    1    3    3    0    0  0.25330178089E+01 -0.38492856155E+01  0.39779600587E+01  0.60874744515E+01  0.00000000000E+00 0.  1.
</event>
<event>
 7    1  0.1503436E-008  0.4614231E+02  0.7816164E-02  0.1320468E+00
        -11   -1    0    0    0    0  0.00000000000E+00  0.00000000000E+00  0.45593999997E+02  0.45594000000E+02  0.51100000000E-03 0.  1.
         11   -1    0    0    0    0 -0.00000000000E+00 -0.00000000000E+00 -0.45593999997E+02  0.45594000000E+02  0.51100000000E-03 0. -1.
    9900012    2    1    2    0    0  0.20116745957E+02 -0.55792364068E+01  0.39916192958E+02  0.46142314224E+02  0.99999677447E+01 0.  0.
         12    1    1    2    0    0 -0.20116745957E+02  0.55792364068E+01 -0.39916192958E+02  0.45045685776E+02  0.00000000000E+00 0. -1.
         11    1    3    3    0    0  0.46355301119E+01 -0.26468173472E+01  0.15050986874E+02  0.15969533106E+02  0.51100000000E-03 0. -1.
        -11    1    3    3    0    0  0.50639494493E+01  0.21261850821E+01  0.73489637095E+01  0.91745035230E+01  0.51100000000E-03 0.  1.
         12    1    3    3    0    0  0.10417266395E+02 -0.50586041418E+01  0.17516242375E+02  0.20998277595E+02  0.00000000000E+00 0. -1.
</event>
<event>
 7    1  0.1503436E-008  0.4614232E+02  0.7816164E-02  0.1320468E+00
        -11   -1    0    0    0    0  0.00000000000E+00  0.00000000000E+00  0.45593999997E+02  0.45594000000E+02  0.51100000000E-03 0. -1.
         11   -1    0    0    0    0 -0.00000000000E+00 -0.00000000000E+00 -0.45593999997E+02  0.45594000000E+02  0.51100000000E-03 0.  1.
    9900012    2    1    2    0    0  0.10289910659E+02  0.36458819869E+01 -0.43702844349E+02  0.46142319618E+02  0.10000016937E+02 0.  0.
         12    1    1    2    0    0 -0.10289910659E+02 -0.36458819869E+01  0.43702844349E+02  0.45045680382E+02  0.00000000000E+00 0. -1.
         11    1    3    3    0    0  0.57662123541E+00  0.59779902020E-01 -0.15043174310E+02  0.15054340214E+02  0.51100000000E-03 0. -1.
        -11    1    3    3    0    0  0.30051976843E+01 -0.88309800083E+00 -0.14122224771E+02  0.14465417656E+02  0.51100000000E-03 0.  1.
         12    1    3    3    0    0  0.67080917394E+01  0.44692000857E+01 -0.14537445268E+02  0.16622561749E+02  0.00000000000E+00 0. -1.
</event>
<event>
 7    1  0.1503436E-008  0.4614232E+02  0.7816164E-02  0.1320468E+00
        -11   -1    0    0    0    0  0.00000000000E+00  0.00000000000E+00  0.45593999997E+02  0.45594000000E+02  0.51100000000E-03 0.  1.
         11   -1    0    0    0    0 -0.00000000000E+00 -0.00000000000E+00 -0.45593999997E+02  0.45594000000E+02  0.51100000000E-03 0. -1.
    9900012    2    1    2    0    0  0.77589262623E+01  0.30181806595E+02  0.32526471146E+02  0.46142315287E+02  0.99999774416E+01 0.  0.
         12    1    1    2    0    0 -0.77589262623E+01 -0.30181806595E+02 -0.32526471146E+02  0.45045684713E+02  0.00000000000E+00 0. -1.
         11    1    3    3    0    0  0.53297759170E+01  0.97424340239E+01  0.92265603155E+01  0.14437830431E+02  0.51100000000E-03 0. -1.
        -11    1    3    3    0    0 -0.11602739490E+01  0.67287255880E+00  0.89926503097E+00  0.16148284658E+01  0.51100000000E-03 0.  1.
         12    1    3    3    0    0  0.35894242942E+01  0.19766500012E+02  0.22400645799E+02  0.30089656391E+02  0.00000000000E+00 0. -1.
</event>
<event>
 7    1  0.1503436E-008  0.4614232E+02  0.7816164E-02  0.1320468E+00
        -11   -1    0    0    0    0  0.00000000000E+00  0.00000000000E+00  0.45593999997E+02  0.45594000000E+02  0.51100000000E-03 0.  1.
         11   -1    0    0    0    0 -0.00000000000E+00 -0.00000000000E+00 -0.45593999997E+02  0.45594000000E+02  0.51100000000E-03 0. -1.
    9900012    2    1    2    0    0 -0.48307901030E+01 -0.28401254386E+02  0.34628682006E+02  0.46142318729E+02  0.10000008823E+02 0.  0.
         12    1    1    2    0    0  0.48307901030E+01  0.28401254386E+02 -0.34628682006E+02  0.45045681271E+02  0.00000000000E+00 0. -1.
         11    1    3    3    0    0  0.11536911995E+01 -0.47811536969E+01  0.30155657830E+01  0.57692348981E+01  0.51100000000E-03 0. -1.
        -11    1    3    3    0    0 -0.45442256251E+01 -0.65550970119E+01  0.10575957791E+02  0.13246515271E+02  0.51100000000E-03 0.  1.
        -12    1    3    3    0    0 -0.14402556773E+01 -0.17065003678E+02  0.21037158432E+02  0.27126568559E+02  0.00000000000E+00 0.  1.
</event>
<event>
 7    1  0.1503436E-008  0.4614232E+02  0.7816164E-02  0.1320468E+00
        -11   -1    0    0    0    0  0.00000000000E+00  0.00000000000E+00  0.45593999997E+02  0.45594000000E+02  0.51100000000E-03 0. -1.
         11   -1    0    0    0    0 -0.00000000000E+00 -0.00000000000E+00 -0.45593999997E+02  0.45594000000E+02  0.51100000000E-03 0.  1.
    9900012    2    1    2    0    0  0.47894768467E+01 -0.27655809361E+01 -0.44704878181E+02  0.46142315861E+02  0.99999826746E+01 0.  0.
         12    1    1    2    0    0 -0.47894768467E+01  0.27655809361E+01  0.44704878181E+02  0.45045684139E+02  0.00000000000E+00 0. -1.
         11    1    3    3    0    0 -0.99006250788E+00  0.16606768636E+01 -0.18014424610E+02  0.18117879724E+02  0.51100000000E-03 0. -1.
        -11    1    3    3    0    0  0.43749242074E+01 -0.51883752372E+01 -0.19164736356E+02  0.20330920276E+02  0.51100000000E-03 0.  1.
        -12    1    3    3    0    0  0.14046151472E+01  0.76211743747E+00 -0.75257172154E+01  0.76935158612E+01  0.00000000000E+00 0.  1.
</event>
<event>
 7    1  0.1503436E-008  0.4614232E+02  0.7816164E-02  0.1320468E+00
        -11   -1    0    0    0    0  0.00000000000E+00  0.00000000000E+00  0.45593999997E+02  0.45594000000E+02  0.51100000000E-03 0.  1.
         11   -1    0    0    0    0 -0.00000000000E+00 -0.00000000000E+00 -0.45593999997E+02  0.45594000000E+02  0.51100000000E-03 0. -1.
    9900012    2    1    2    0    0 -0.41613168896E+02  0.13581808029E+02  0.10629772685E+02  0.46142318717E+02  0.10000008719E+02 0.  0.
         12    1    1    2    0    0  0.41613168896E+02 -0.13581808029E+02 -0.10629772685E+02  0.45045681283E+02  0.00000000000E+00 0. -1.
         11    1    3    3    0    0 -0.58415964885E+01 -0.12826228986E+01  0.22052819166E+01  0.63743736655E+01  0.51100000000E-03 0. -1.
        -11    1    3    3    0    0 -0.14344359746E+02  0.44724112273E+01  0.25562336691E+01  0.15241307343E+02  0.51100000000E-03 0.  1.
         12    1    3    3    0    0 -0.21427212662E+02  0.10392019701E+02  0.58682570992E+01  0.24526637708E+02  0.00000000000E+00 0. -1.
</event>
<event>
 7    1  0.1503436E-008  0.4614231E+02  0.7816164E-02  0.1320468E+00
        -11   -1    0    0    0    0  0.00000000000E+00  0.00000000000E+00  0.45593999997E+02  0.45594000000E+02  0.51100000000E-03 0.  1.
         11   -1    0    0    0    0 -0.00000000000E+00 -0.00000000000E+00 -0.45593999997E+02  0.45594000000E+02  0.51100000000E-03 0. -1.
    9900012    2    1    2    0    0 -0.39311223174E+02 -0.18058366659E+02  0.12555365699E+02  0.46142311176E+02  0.99999399512E+01 0.  0.
         12    1    1    2    0    0  0.39311223174E+02  0.18058366659E+02 -0.12555365699E+02  0.45045688824E+02  0.00000000000E+00 0. -1.
         11    1    3    3    0    0 -0.13216825670E+02 -0.53796526387E+01  0.71430222464E+01  0.15957691261E+02  0.51100000000E-03 0. -1.
        -11    1    3    3    0    0 -0.36216622633E+01 -0.44891581065E+01  0.13471909896E+01  0.59231665415E+01  0.51100000000E-03 0.  1.
        -12    1    3    3    0    0 -0.22472735241E+02 -0.81895559135E+01  0.40651524627E+01  0.24261453374E+02  0.00000000000E+00 0.  1.
</event>
<event>
 7    1  0.1503436E-008  0.4614232E+02  0.7816164E-02  0.1320468E+00
        -11   -1    0    0    0    0  0.00000000000E+00  0.00000000000E+00  0.45593999997E+02  0.45594000000E+02  0.51100000000E-03 0.  1.
         11   -1    0    0    0    0 -0.00000000000E+00 -0.00000000000E+00 -0.45593999997E+02  0.45594000000E+02  0.51100000000E-03 0. -1.
    9900012    2    1    2    0    0 -0.27740815590E+02  0.17149518991E+00 -0.35489875124E+02  0.46142317671E+02  0.99999991740E+01 0.  0.
         12    1    1    2    0    0  0.27740815590E+02 -0.17149518991E+00  0.35489875124E+02  0.45045682329E+02  0.00000000000E+00 0. -1.
         11    1    3    3    0    0 -0.79908573231E+00  0.90477918396E+00 -0.48607771751E+01  0.50084247410E+01  0.51100000000E-03 0. -1.
        -11    1    3    3    0    0 -0.16841731568E+02  0.18422161181E+01 -0.20564242000E+02  0.26644431533E+02  0.51100000000E-03 0.  1.
        -12    1    3    3    0    0 -0.10099998289E+02 -0.25755001122E+01 -0.10064855949E+02  0.14489461396E+02  0.00000000000E+00 0.  1.
</event>
<event>
 7    1  0.1503436E-008  0.4614232E+02  0.7816164E-02  0.1320468E+00
        -11   -1    0    0    0    0  0.00000000000E+00  0.00000000000E+00  0.45593999997E+02  0.45594000000E+02  0.51100000000E-03 0.  1.
         11   -1    0    0    0    0 -0.00000000000E+00 -0.00000000000E+00 -0.45593999997E+02  0.45594000000E+02  0.51100000000E-03 0. -1.
    9900012    2    1    2    0    0  0.37584835775E+02  0.54804088820E+01  0.24216911009E+02  0.46142317182E+02  0.99999947219E+01 0.  0.
         12    1    1    2    0    0 -0.37584835775E+02 -0.54804088820E+01 -0.24216911009E+02  0.45045682818E+02  0.00000000000E+00 0. -1.
         11    1    3    3    0    0  0.21919211569E+01  0.18305843853E+01  0.28187147986E+01  0.40125691180E+01  0.51100000000E-03 0. -1.
        -11    1    3    3    0    0  0.24681537944E+02  0.36855970015E+01  0.11247857045E+02  0.27372910494E+02  0.51100000000E-03 0.  1.
         12    1    3    3    0    0  0.10711376674E+02 -0.35772504756E-01  0.10150339165E+02  0.14756837571E+02  0.00000000000E+00 0. -1.
</event>
<event>
 7    1  0.1503436E-008  0.4614232E+02  0.7816164E-02  0.1320468E+00
        -11   -1    0    0    0    0  0.00000000000E+00  0.00000000000E+00  0.45593999997E+02  0.45594000000E+02  0.51100000000E-03 0. -1.
         11   -1    0    0    0    0 -0.00000000000E+00 -0.00000000000E+00 -0.45593999997E+02  0.45594000000E+02  0.51100000000E-03 0.  1.
    9900012    2    1    2    0    0 -0.31963495398E+02 -0.29354641125E+02 -0.12072842565E+02  0.46142317396E+02  0.99999966734E+01 0.  0.
         12    1    1    2    0    0  0.31963495398E+02  0.29354641125E+02  0.12072842565E+02  0.45045682604E+02  0.00000000000E+00 0. -1.
         11    1    3    3    0    0 -0.10079659537E+02 -0.50808447650E+01 -0.41468300980E+01  0.12025419744E+02  0.51100000000E-03 0.  1.
        -11    1    3    3    0    0 -0.56065797704E+01 -0.29473689204E+01 -0.19931250901E+01  0.66402762112E+01  0.51100000000E-03 0. -1.
        -12    1    3    3    0    0 -0.16277256091E+02 -0.21326427439E+02 -0.59328873765E+01  0.27476621441E+02  0.00000000000E+00 0.  1.
</event>
<event>
 7    1  0.1503436E-008  0.4614232E+02  0.7816164E-02  0.1320468E+00
        -11   -1    0    0    0    0  0.00000000000E+00  0.00000000000E+00  0.45593999997E+02  0.45594000000E+02  0.51100000000E-03 0. -1.
         11   -1    0    0    0    0 -0.00000000000E+00 -0.00000000000E+00 -0.45593999997E+02  0.45594000000E+02  0.51100000000E-03 0.  1.
    9900012    2    1    2    0    0 -0.28423237980E+02  0.34945826918E+02 -0.14891389747E+00  0.46142318169E+02  0.10000003720E+02 0.  0.
         12    1    1    2    0    0  0.28423237980E+02 -0.34945826918E+02  0.14891389747E+00  0.45045681831E+02  0.00000000000E+00 0. -1.
         11    1    3    3    0    0 -0.80930608663E+01  0.10187580900E+02 -0.11813250112E+01  0.13064454364E+02  0.51100000000E-03 0. -1.
        -11    1    3    3    0    0 -0.14351988220E+02  0.18858141493E+02 -0.27666654690E+01  0.23859243586E+02  0.51100000000E-03 0.  1.
        -12    1    3    3    0    0 -0.59781888940E+01  0.59001045251E+01  0.37990765827E+01  0.92186202190E+01  0.00000000000E+00 0.  1.
</event>
<event>
 7    1  0.1503436E-008  0.4614232E+02  0.7816164E-02  0.1320468E+00
        -11   -1    0    0    0    0  0.00000000000E+00  0.00000000000E+00  0.45593999997E+02  0.45594000000E+02  0.51100000000E-03 0. -1.
         11   -1    0    0    0    0 -0.00000000000E+00 -0.00000000000E+00 -0.45593999997E+02  0.45594000000E+02  0.51100000000E-03 0.  1.
    9900012    2    1    2    0    0  0.36691156282E+02 -0.26118918333E+02  0.82137253448E+00  0.46142317664E+02  0.99999991175E+01 0.  0.
         12    1    1    2    0    0 -0.36691156282E+02  0.26118918333E+02 -0.82137253448E+00  0.45045682336E+02  0.00000000000E+00 0. -1.
         11    1    3    3    0    0  0.14571056239E+02 -0.60064614345E+01 -0.15481140209E+01  0.15836347943E+02  0.51100000000E-03 0. -1.
        -11    1    3    3    0    0  0.16757213058E+02 -0.16560205755E+02  0.34376900111E+00  0.23561892570E+02  0.51100000000E-03 0.  1.
         12    1    3    3    0    0  0.53628869856E+01 -0.35522511440E+01  0.20257175543E+01  0.67440771511E+01  0.00000000000E+00 0. -1.
</event>
<event>
 7    1  0.1503436E-008  0.4614232E+02  0.7816164E-02  0.1320468E+00
        -11   -1    0    0    0    0  0.00000000000E+00  0.00000000000E+00  0.45593999997E+02  0.45594000000E+02  0.51100000000E-03 0.  1.
         11   -1    0    0    0    0 -0.00000000000E+00 -0.00000000000E+00 -0.45593999997E+02  0.45594000000E+02  0.51100000000E-03 0. -1.
    9900012    2    1    2    0    0 -0.16506073129E+02  0.34276344428E+01  0.41772172714E+02  0.46142317174E+02  0.99999946469E+01 0.  0.
         12    1    1    2    0    0  0.16506073129E+02 -0.34276344428E+01 -0.41772172714E+02  0.45045682826E+02  0.00000000000E+00 0. -1.
         11    1    3    3    0    0 -0.16007134729E+01 -0.42272701057E+00  0.51759115846E+01  0.54342472101E+01  0.51100000000E-03 0. -1.
        -11    1    3    3    0    0 -0.10363416761E+02  0.25051079062E+01  0.13875311560E+02  0.17498578335E+02  0.51100000000E-03 0.  1.
        -12    1    3    3    0    0 -0.45419428953E+01  0.13452535472E+01  0.22720949569E+02  0.23209491629E+02  0.00000000000E+00 0.  1.
</event>
<event>
 7    1  0.1503436E-008  0.4614232E+02  0.7816164E-02  0.1320468E+00
        -11   -1    0    0    0    0  0.00000000000E+00  0.00000000000E+00  0.45593999997E+02  0.45594000000E+02  0.51100000000E-03 0. -1.
         11   -1    0    0    0    0 -0.00000000000E+00 -0.00000000000E+00 -0.45593999997E+02  0.45594000000E+02  0.51100000000E-03 0.  1.
    9900012    2    1    2    0    0  0.77111825669E+01 -0.40427643239E+02 -0.18310020036E+02  0.46142317542E+02  0.99999979980E+01 0.  0.
         12    1    1    2    0    0 -0.77111825669E+01  0.40427643239E+02  0.18310020036E+02  0.45045682458E+02  0.00000000000E+00 0. -1.
         11    1    3    3    0    0  0.22338401299E+01 -0.32124190157E+01 -0.23752273154E+01  0.45772680410E+01  0.51100000000E-03 0. -1.
        -11    1    3    3    0    0  0.64097929343E+01 -0.36787968820E+02 -0.15275577507E+02  0.40345797350E+02  0.51100000000E-03 0.  1.
        -12    1    3    3    0    0 -0.93245049722E+00 -0.42725540327E+00 -0.65921521373E+00  0.12192521509E+01  0.00000000000E+00 0.  1.
</event>
<event>
 7    1  0.1503436E-008  0.4614232E+02  0.7816164E-02  0.1320468E+00
        -11   -1    0    0    0    0  0.00000000000E+00  0.00000000000E+00  0.45593999997E+02  0.45594000000E+02  0.51100000000E-03 0.  1.
         11   -1    0    0    0    0 -0.00000000000E+00 -0.00000000000E+00 -0.45593999997E+02  0.45594000000E+02  0.51100000000E-03 0. -1.
    9900012    2    1    2    0    0 -0.66319292763E+01  0.27584377288E+02  0.34989043384E+02  0.46142317485E+02  0.99999974801E+01 0.  0.
         12    1    1    2    0    0  0.66319292763E+01 -0.27584377288E+02 -0.34989043384E+02  0.45045682515E+02  0.00000000000E+00 0. -1.
         11    1    3    3    0    0 -0.89720817272E+00  0.31544848953E+01  0.75572702023E+01  0.82382091883E+01  0.51100000000E-03 0. -1.
        -11    1    3    3    0    0 -0.61560771878E+01  0.24627618130E+02  0.27509228159E+02  0.37432265430E+02  0.51100000000E-03 0.  1.
        -12    1    3    3    0    0  0.42135608423E+00 -0.19772573710E+00 -0.77454976538E-01  0.47184286602E+00  0.00000000000E+00 0.  1.
</event>
<event>
 7    1  0.1503436E-008  0.4614232E+02  0.7816164E-02  0.1320468E+00
        -11   -1    0    0    0    0  0.00000000000E+00  0.00000000000E+00  0.45593999997E+02  0.45594000000E+02  0.51100000000E-03 0. -1.
         11   -1    0    0    0    0 -0.00000000000E+00 -0.00000000000E+00 -0.45593999997E+02  0.45594000000E+02  0.51100000000E-03 0.  1.
    9900012    2    1    2    0    0  0.38810819997E+02 -0.22484210457E+02  0.41586241020E+01  0.46142316266E+02  0.99999863628E+01 0.  0.
         12    1    1    2    0    0 -0.38810819997E+02  0.22484210457E+02 -0.41586241020E+01  0.45045683734E+02  0.00000000000E+00 0. -1.
         11    1    3    3    0    0  0.18953815222E+01 -0.71256396935E+00 -0.15863482161E+01  0.25722984759E+01  0.51100000000E-03 0. -1.
        -11    1    3    3    0    0  0.15805926189E+02 -0.12410890357E+02  0.24916062801E+01  0.20250076648E+02  0.51100000000E-03 0.  1.
        -12    1    3    3    0    0  0.21109512285E+02 -0.93607561303E+01  0.32533660379E+01  0.23319941141E+02  0.00000000000E+00 0.  1.
</event>
<event>
 7    1  0.1503436E-008  0.4614232E+02  0.7816164E-02  0.1320468E+00
        -11   -1    0    0    0    0  0.00000000000E+00  0.00000000000E+00  0.45593999997E+02  0.45594000000E+02  0.51100000000E-03 0.  1.
         11   -1    0    0    0    0 -0.00000000000E+00 -0.00000000000E+00 -0.45593999997E+02  0.45594000000E+02  0.51100000000E-03 0. -1.
    9900012    2    1    2    0    0 -0.17154368586E+02  0.41492922606E+02 -0.36302093032E+01  0.46142318659E+02  0.10000008184E+02 0.  0.
         12    1    1    2    0    0  0.17154368586E+02 -0.41492922606E+02  0.36302093032E+01  0.45045681341E+02  0.00000000000E+00 0. -1.
         11    1    3    3    0    0 -0.88015414606E+01  0.27906674640E+02  0.45294747310E+00  0.29265248730E+02  0.51100000000E-03 0. -1.
        -11    1    3    3    0    0 -0.70282801756E+01  0.10560420850E+02 -0.16884212042E+01  0.12797264441E+02  0.51100000000E-03 0.  1.
         12    1    3    3    0    0 -0.13245469495E+01  0.30258271154E+01 -0.23947355721E+01  0.40798054873E+01  0.00000000000E+00 0. -1.
</event>
<event>
 7    1  0.1503436E-008  0.4614232E+02  0.7816164E-02  0.1320468E+00
        -11   -1    0    0    0    0  0.00000000000E+00  0.00000000000E+00  0.45593999997E+02  0.45594000000E+02  0.51100000000E-03 0.  1.
         11   -1    0    0    0    0 -0.00000000000E+00 -0.00000000000E+00 -0.45593999997E+02  0.45594000000E+02  0.51100000000E-03 0. -1.
    9900012    2    1    2    0    0  0.45243651688E+01  0.32644400227E+02  0.30708087230E+02  0.46142319101E+02  0.10000012217E+02 0.  0.
         12    1    1    2    0    0 -0.45243651688E+01 -0.32644400227E+02 -0.30708087230E+02  0.45045680899E+02  0.00000000000E+00 0. -1.
         11    1    3    3    0    0  0.45082228183E+00  0.27877133572E+01 -0.13963776744E+00  0.28273813784E+01  0.51100000000E-03 0. -1.
        -11    1    3    3    0    0 -0.32657997094E+00  0.85599888226E+00  0.29904070616E+00  0.96375005521E+00  0.51100000000E-03 0.  1.
         12    1    3    3    0    0  0.44001228579E+01  0.29000687988E+02  0.30548684291E+02  0.42351187667E+02  0.00000000000E+00 0. -1.
</event>
<event>
 7    1  0.1503436E-008  0.4614231E+02  0.7816164E-02  0.1320468E+00
        -11   -1    0    0    0    0  0.00000000000E+00  0.00000000000E+00  0.45593999997E+02  0.45594000000E+02  0.51100000000E-03 0.  1.
         11   -1    0    0    0    0 -0.00000000000E+00 -0.00000000000E+00 -0.45593999997E+02  0.45594000000E+02  0.51100000000E-03 0. -1.
    9900012    2    1    2    0    0  0.37335871929E+02 -0.94210401581E+01  0.23375005318E+02  0.46142309818E+02  0.99999275699E+01 0.  0.
         12    1    1    2    0    0 -0.37335871929E+02  0.94210401581E+01 -0.23375005318E+02  0.45045690182E+02  0.00000000000E+00 0. -1.
         11    1    3    3    0    0  0.31015689609E+02 -0.59007385659E+01  0.14663181762E+02  0.34810926693E+02  0.51100000000E-03 0.  1.
        -11    1    3    3    0    0  0.46669273147E+01 -0.27923597063E+01  0.66225664526E+01  0.85694731443E+01  0.51100000000E-03 0. -1.
        -12    1    3    3    0    0  0.16532550048E+01 -0.72794188586E+00  0.20892571035E+01  0.27619099813E+01  0.00000000000E+00 0.  1.
</event>
<event>
 7    1  0.1503436E-008  0.4614232E+02  0.7816164E-02  0.1320468E+00
        -11   -1    0    0    0    0  0.00000000000E+00  0.00000000000E+00  0.45593999997E+02  0.45594000000E+02  0.51100000000E-03 0.  1.
         11   -1    0    0    0    0 -0.00000000000E+00 -0.00000000000E+00 -0.45593999997E+02  0.45594000000E+02  0.51100000000E-03 0. -1.
    9900012    2    1    2    0    0  0.21609955218E+02  0.15769743154E+02  0.36241394023E+02  0.46142316473E+02  0.99999882574E+01 0.  0.
         12    1    1    2    0    0 -0.21609955218E+02 -0.15769743154E+02 -0.36241394023E+02  0.45045683527E+02  0.00000000000E+00 0. -1.
         11    1    3    3    0    0 -0.97747020024E+00  0.34331226271E+00  0.17882225557E+01  0.20666522378E+01  0.51100000000E-03 0. -1.
        -11    1    3    3    0    0  0.14239035084E+02  0.88353538245E+01  0.22832256347E+02  0.28321820695E+02  0.51100000000E-03 0.  1.
        -12    1    3    3    0    0  0.83483903342E+01  0.65910770664E+01  0.11620915121E+02  0.15753843541E+02  0.00000000000E+00 0.  1.
</event>
<event>
 7    1  0.1503436E-008  0.4614232E+02  0.7816164E-02  0.1320468E+00
        -11   -1    0    0    0    0  0.00000000000E+00  0.00000000000E+00  0.45593999997E+02  0.45594000000E+02  0.51100000000E-03 0.  1.
         11   -1    0    0    0    0 -0.00000000000E+00 -0.00000000000E+00 -0.45593999997E+02  0.45594000000E+02  0.51100000000E-03 0. -1.
    9900012    2    1    2    0    0  0.33654512036E+01 -0.77837801249E+01  0.44240252647E+02  0.46142318197E+02  0.10000003978E+02 0.  0.
         12    1    1    2    0    0 -0.33654512036E+01  0.77837801249E+01 -0.44240252647E+02  0.45045681803E+02  0.00000000000E+00 0. -1.
         11    1    3    3    0    0  0.33538359545E+01 -0.26871917416E+01  0.97332152094E+01  0.10639769435E+02  0.51100000000E-03 0.  1.
        -11    1    3    3    0    0 -0.74225556941E+00 -0.33874556495E+01  0.59675213062E+01  0.69019642066E+01  0.51100000000E-03 0. -1.
         12    1    3    3    0    0  0.75387081845E+00 -0.17091327338E+01  0.28539516131E+02  0.28600584555E+02  0.00000000000E+00 0. -1.
</event>
<event>
 7    1  0.1503436E-008  0.4614232E+02  0.7816164E-02  0.1320468E+00
        -11   -1    0    0    0    0  0.00000000000E+00  0.00000000000E+00  0.45593999997E+02  0.45594000000E+02  0.51100000000E-03 0.  1.
         11   -1    0    0    0    0 -0.00000000000E+00 -0.00000000000E+00 -0.45593999997E+02  0.45594000000E+02  0.51100000000E-03 0. -1.
    9900012    2    1    2    0    0 -0.29576479106E+02  0.27448632354E+02  0.20022935216E+02  0.46142317975E+02  0.10000001948E+02 0.  0.
         12    1    1    2    0    0  0.29576479106E+02 -0.27448632354E+02 -0.20022935216E+02  0.45045682025E+02  0.00000000000E+00 0. -1.
         11    1    3    3    0    0 -0.11218956733E+02  0.57178138689E+01  0.67718514724E+01  0.14297424882E+02  0.51100000000E-03 0. -1.
        -11    1    3    3    0    0 -0.15819394050E+02  0.16090174187E+02  0.87779561583E+01  0.24211556085E+02  0.51100000000E-03 0.  1.
        -12    1    3    3    0    0 -0.25381283234E+01  0.56406442983E+01  0.44731275855E+01  0.76333370083E+01  0.00000000000E+00 0.  1.
</event>
<event>
 7    1  0.1503436E-008  0.4614232E+02  0.7816164E-02  0.1320468E+00
        -11   -1    0    0    0    0  0.00000000000E+00  0.00000000000E+00  0.45593999997E+02  0.45594000000E+02  0.51100000000E-03 0.  1.
         11   -1    0    0    0    0 -0.00000000000E+00 -0.00000000000E+00 -0.45593999997E+02  0.45594000000E+02  0.51100000000E-03 0. -1.
    9900012    2    1    2    0    0 -0.25935612784E+02 -0.53703117896E+01  0.36436482123E+02  0.46142317757E+02  0.99999999648E+01 0.  0.
         12    1    1    2    0    0  0.25935612784E+02  0.53703117896E+01 -0.36436482123E+02  0.45045682243E+02  0.00000000000E+00 0. -1.
         11    1    3    3    0    0 -0.17323821863E+02 -0.34794636166E+01  0.18822142866E+02  0.25816555412E+02  0.51100000000E-03 0.  1.
        -11    1    3    3    0    0  0.50119902839E+00  0.81456922774E-01  0.15196398657E+00  0.53002736785E+00  0.51100000000E-03 0. -1.
         12    1    3    3    0    0 -0.91129899491E+01 -0.19723050957E+01  0.17462375271E+02  0.19795734978E+02  0.00000000000E+00 0. -1.
</event>
<event>
 7    1  0.1503436E-008  0.4614232E+02  0.7816164E-02  0.1320468E+00
        -11   -1    0    0    0    0  0.00000000000E+00  0.00000000000E+00  0.45593999997E+02  0.45594000000E+02  0.51100000000E-03 0.  1.
         11   -1    0    0    0    0 -0.00000000000E+00 -0.00000000000E+00 -0.45593999997E+02  0.45594000000E+02  0.51100000000E-03 0. -1.
    9900012    2    1    2    0    0 -0.38763297856E+02 -0.19366629203E+02  0.12306652477E+02  0.46142320046E+02  0.10000020835E+02 0.  0.
         12    1    1    2    0    0  0.38763297856E+02  0.19366629203E+02 -0.12306652477E+02  0.45045679954E+02  0.00000000000E+00 0. -1.
         11    1    3    3    0    0 -0.15503793099E+01 -0.31672141374E+01  0.11786324945E+00  0.35282876021E+01  0.51100000000E-03 0. -1.
        -11    1    3    3    0    0 -0.31947957030E+02 -0.14498682914E+02  0.89679223488E+01  0.36211978628E+02  0.51100000000E-03 0.  1.
         12    1    3    3    0    0 -0.52649615154E+01 -0.17007321520E+01  0.32208668785E+01  0.64020538158E+01  0.00000000000E+00 0. -1.
</event>
<event>
 7    1  0.1503436E-008  0.4614232E+02  0.7816164E-02  0.1320468E+00
        -11   -1    0    0    0    0  0.00000000000E+00  0.00000000000E+00  0.45593999997E+02  0.45594000000E+02  0.51100000000E-03 0. -1.
         11   -1    0    0    0    0 -0.00000000000E+00 -0.00000000000E+00 -0.45593999997E+02  0.45594000000E+02  0.51100000000E-03 0.  1.
    9900012    2    1    2    0    0 -0.22306717687E+02  0.54529745553E+01 -0.38752919062E+02  0.46142319615E+02  0.10000016908E+02 0.  0.
         12    1    1    2    0    0  0.22306717687E+02 -0.54529745553E+01  0.38752919062E+02  0.45045680385E+02  0.00000000000E+00 0. -1.
         11    1    3    3    0    0 -0.27098480418E+00 -0.95023561196E-01 -0.29075175147E+01  0.29216640123E+01  0.51100000000E-03 0. -1.
        -11    1    3    3    0    0 -0.12424939096E+02  0.63354160010E+01 -0.16497525688E+02  0.21602892434E+02  0.51100000000E-03 0.  1.
        -12    1    3    3    0    0 -0.96107937867E+01 -0.78741788445E+00 -0.19347875860E+02  0.21617763169E+02  0.00000000000E+00 0.  1.
</event>
<event>
 7    1  0.1503436E-008  0.4614232E+02  0.7816164E-02  0.1320468E+00
        -11   -1    0    0    0    0  0.00000000000E+00  0.00000000000E+00  0.45593999997E+02  0.45594000000E+02  0.51100000000E-03 0.  1.
         11   -1    0    0    0    0 -0.00000000000E+00 -0.00000000000E+00 -0.45593999997E+02  0.45594000000E+02  0.51100000000E-03 0. -1.
    9900012    2    1    2    0    0 -0.23040374938E+02  0.68708530826E+01  0.38092598507E+02  0.46142316962E+02  0.99999927097E+01 0.  0.
         12    1    1    2    0    0  0.23040374938E+02 -0.68708530826E+01 -0.38092598507E+02  0.45045683038E+02  0.00000000000E+00 0. -1.
         11    1    3    3    0    0 -0.14125924235E+02  0.74797698993E+00  0.17641053352E+02  0.22612119952E+02  0.51100000000E-03 0. -1.
        -11    1    3    3    0    0 -0.77651962752E+01  0.67154514906E+01  0.17198288377E+02  0.20029395529E+02  0.51100000000E-03 0.  1.
         12    1    3    3    0    0 -0.11492544273E+01 -0.59257539786E+00  0.32532567782E+01  0.35008014805E+01  0.00000000000E+00 0. -1.
</event>
<event>
 7    1  0.1503436E-008  0.4614232E+02  0.7816164E-02  0.1320468E+00
        -11   -1    0    0    0    0  0.00000000000E+00  0.00000000000E+00  0.45593999997E+02  0.45594000000E+02  0.51100000000E-03 0.  1.
         11   -1    0    0    0    0 -0.00000000000E+00 -0.00000000000E+00 -0.45593999997E+02  0.45594000000E+02  0.51100000000E-03 0. -1.
    9900012    2    1    2    0    0  0.23167275067E+02 -0.37541180141E+02  0.91132105095E+01  0.46142318229E+02  0.10000004268E+02 0.  0.
         12    1    1    2    0    0 -0.23167275067E+02  0.37541180141E+02 -0.91132105095E+01  0.45045681771E+02  0.00000000000E+00 0. -1.
         11    1    3    3    0    0  0.43814983060E+01 -0.31938444960E+01  0.13556851302E+01  0.55889223025E+01  0.51100000000E-03 0. -1.
        -11    1    3    3    0    0  0.98964446480E+01 -0.11277344707E+02  0.17094024382E+01  0.15100999214E+02  0.51100000000E-03 0.  1.
        -12    1    3    3    0    0  0.88893321126E+01 -0.23069990938E+02  0.60481229411E+01  0.25452396712E+02  0.00000000000E+00 0.  1.
</event>
<event>
 7    1  0.1503436E-008  0.4614232E+02  0.7816164E-02  0.1320468E+00
        -11   -1    0    0    0    0  0.00000000000E+00  0.00000000000E+00  0.45593999997E+02  0.45594000000E+02  0.51100000000E-03 0.  1.
         11   -1    0    0    0    0 -0.00000000000E+00 -0.00000000000E+00 -0.45593999997E+02  0.45594000000E+02  0.51100000000E-03 0. -1.
    9900012    2    1    2    0    0  0.29465344016E+02 -0.22717816402E+02  0.25393064752E+02  0.46142318547E+02  0.10000007170E+02 0.  0.
         12    1    1    2    0    0 -0.29465344016E+02  0.22717816402E+02 -0.25393064752E+02  0.45045681453E+02  0.00000000000E+00 0. -1.
         11    1    3    3    0    0  0.66444880275E+01 -0.78419095687E+01  0.40129415167E+01  0.11033968765E+02  0.51100000000E-03 0. -1.
        -11    1    3    3    0    0  0.63251355845E+01 -0.63139253528E+01  0.95380407146E+01  0.13070853624E+02  0.51100000000E-03 0.  1.
         12    1    3    3    0    0  0.16495720404E+02 -0.85619814802E+01  0.11842082521E+02  0.22037496158E+02  0.00000000000E+00 0. -1.
</event>
<event>
 7    1  0.1503436E-008  0.4614232E+02  0.7816164E-02  0.1320468E+00
        -11   -1    0    0    0    0  0.00000000000E+00  0.00000000000E+00  0.45593999997E+02  0.45594000000E+02  0.51100000000E-03 0.  1.
         11   -1    0    0    0    0 -0.00000000000E+00 -0.00000000000E+00 -0.45593999997E+02  0.45594000000E+02  0.51100000000E-03 0. -1.
    9900012    2    1    2    0    0  0.97023658341E+01  0.18951569068E+02  0.39696545514E+02  0.46142316537E+02  0.99999888369E+01 0.  0.
         12    1    1    2    0    0 -0.97023658341E+01 -0.18951569068E+02 -0.39696545514E+02  0.45045683463E+02  0.00000000000E+00 0. -1.
         11    1    3    3    0    0  0.90464866700E+01  0.19223095305E+02  0.32184192702E+02  0.38564083994E+02  0.51100000000E-03 0. -1.
        -11    1    3    3    0    0  0.45069880481E-01  0.14655777718E+00  0.31343644619E+01  0.31381126999E+01  0.51100000000E-03 0.  1.
         12    1    3    3    0    0  0.61080928358E+00 -0.41808401441E+00  0.43779883504E+01  0.44401198430E+01  0.00000000000E+00 0. -1.
</event>
<event>
 7    1  0.1503436E-008  0.4614231E+02  0.7816164E-02  0.1320468E+00
        -11   -1    0    0    0    0  0.00000000000E+00  0.00000000000E+00  0.45593999997E+02  0.45594000000E+02  0.51100000000E-03 0. -1.
         11   -1    0    0    0    0 -0.00000000000E+00 -0.00000000000E+00 -0.45593999997E+02  0.45594000000E+02  0.51100000000E-03 0.  1.
    9900012    2    1    2    0    0  0.18778386397E+02  0.40135485140E+02 -0.81011618354E+01  0.46142314456E+02  0.99999698583E+01 0.  0.
         12    1    1    2    0    0 -0.18778386397E+02 -0.40135485140E+02  0.81011618354E+01  0.45045685544E+02  0.00000000000E+00 0. -1.
         11    1    3    3    0    0  0.75608201754E+01  0.15140001177E+02  0.64145316704E+00  0.16935084877E+02  0.51100000000E-03 0. -1.
        -11    1    3    3    0    0  0.88368376801E+01  0.23170394597E+02 -0.71378106606E+01  0.25805139551E+02  0.51100000000E-03 0.  1.
         12    1    3    3    0    0  0.23807285415E+01  0.18250893662E+01 -0.16048043418E+01  0.34020900280E+01  0.00000000000E+00 0. -1.
</event>
<event>
 7    1  0.1503436E-008  0.4614232E+02  0.7816164E-02  0.1320468E+00
        -11   -1    0    0    0    0  0.00000000000E+00  0.00000000000E+00  0.45593999997E+02  0.45594000000E+02  0.51100000000E-03 0. -1.
         11   -1    0    0    0    0 -0.00000000000E+00 -0.00000000000E+00 -0.45593999997E+02  0.45594000000E+02  0.51100000000E-03 0.  1.
    9900012    2    1    2    0    0 -0.40691834401E+02 -0.14187750963E+02  0.13114721482E+02  0.46142316701E+02  0.99999903359E+01 0.  0.
         12    1    1    2    0    0  0.40691834401E+02  0.14187750963E+02 -0.13114721482E+02  0.45045683299E+02  0.00000000000E+00 0. -1.
         11    1    3    3    0    0 -0.65774172542E+01 -0.27462822204E+01 -0.51609431985E+00  0.71463863160E+01  0.51100000000E-03 0. -1.
        -11    1    3    3    0    0 -0.26428406014E+02 -0.59520284785E+01  0.10209963203E+02  0.28950485943E+02  0.51100000000E-03 0.  1.
        -12    1    3    3    0    0 -0.76860111325E+01 -0.54894402645E+01  0.34208525983E+01  0.10045444442E+02  0.00000000000E+00 0.  1.
</event>
<event>
 7    1  0.1503436E-008  0.4614232E+02  0.7816164E-02  0.1320468E+00
        -11   -1    0    0    0    0  0.00000000000E+00  0.00000000000E+00  0.45593999997E+02  0.45594000000E+02  0.51100000000E-03 0. -1.
         11   -1    0    0    0    0 -0.00000000000E+00 -0.00000000000E+00 -0.45593999997E+02  0.45594000000E+02  0.51100000000E-03 0.  1.
    9900012    2    1    2    0    0 -0.23828413901E+01  0.30056993713E+02 -0.33466591406E+02  0.46142317138E+02  0.99999943214E+01 0.  0.
         12    1    1    2    0    0  0.23828413901E+01 -0.30056993713E+02  0.33466591406E+02  0.45045682862E+02  0.00000000000E+00 0. -1.
         11    1    3    3    0    0 -0.10236727201E+01  0.48131710399E+01 -0.10841428708E+01  0.50388378941E+01  0.51100000000E-03 0. -1.
        -11    1    3    3    0    0  0.21181841399E+00  0.56894583992E+01 -0.76181788208E+01  0.95105968647E+01  0.51100000000E-03 0.  1.
         12    1    3    3    0    0 -0.15709870840E+01  0.19554364274E+02 -0.24764269714E+02  0.31592882380E+02  0.00000000000E+00 0. -1.
</event>
<event>
 7    1  0.1503436E-008  0.4614232E+02  0.7816164E-02  0.1320468E+00
        -11   -1    0    0    0    0  0.00000000000E+00  0.00000000000E+00  0.45593999997E+02  0.45594000000E+02  0.51100000000E-03 0.  1.
         11   -1    0    0    0    0 -0.00000000000E+00 -0.00000000000E+00 -0.45593999997E+02  0.45594000000E+02  0.51100000000E-03 0. -1.
    9900012    2    1    2    0    0 -0.20194239678E+02  0.35964921968E+02  0.18106093138E+02  0.46142317221E+02  0.99999950745E+01 0.  0.
         12    1    1    2    0    0  0.20194239678E+02 -0.35964921968E+02 -0.18106093138E+02  0.45045682779E+02  0.00000000000E+00 0. -1.
         11    1    3    3    0    0 -0.32085928179E+01  0.42247927399E+01  0.37037716449E+00  0.53179997246E+01  0.51100000000E-03 0. -1.
        -11    1    3    3    0    0  0.39176979718E+00  0.39286583270E+01  0.14203156714E+01  0.41958475535E+01  0.51100000000E-03 0.  1.
        -12    1    3    3    0    0 -0.17377416657E+02  0.27811470901E+02  0.16315400302E+02  0.36628469943E+02  0.00000000000E+00 0.  1.
</event>
<event>
 7    1  0.1503436E-008  0.4614232E+02  0.7816164E-02  0.1320468E+00
        -11   -1    0    0    0    0  0.00000000000E+00  0.00000000000E+00  0.45593999997E+02  0.45594000000E+02  0.51100000000E-03 0.  1.
         11   -1    0    0    0    0 -0.00000000000E+00 -0.00000000000E+00 -0.45593999997E+02  0.45594000000E+02  0.51100000000E-03 0. -1.
    9900012    2    1    2    0    0 -0.42916378595E+02  0.13130509804E+02 -0.38584186728E+01  0.46142320583E+02  0.10000025736E+02 0.  0.
         12    1    1    2    0    0  0.42916378595E+02 -0.13130509804E+02  0.38584186728E+01  0.45045679417E+02  0.00000000000E+00 0. -1.
         11    1    3    3    0    0 -0.11584295584E+02  0.67135728383E+01 -0.44404072122E+00  0.13396459863E+02  0.51100000000E-03 0. -1.
        -11    1    3    3    0    0 -0.19408088793E+02  0.37139903192E+01  0.89928275525E+00  0.19780706368E+02  0.51100000000E-03 0.  1.
        -12    1    3    3    0    0 -0.11923994218E+02  0.27029466469E+01 -0.43136607068E+01  0.12965154353E+02  0.00000000000E+00 0.  1.
</event>
<event>
 7    1  0.1503436E-008  0.4614232E+02  0.7816164E-02  0.1320468E+00
        -11   -1    0    0    0    0  0.00000000000E+00  0.00000000000E+00  0.45593999997E+02  0.45594000000E+02  0.51100000000E-03 0.  1.
         11   -1    0    0    0    0 -0.00000000000E+00 -0.00000000000E+00 -0.45593999997E+02  0.45594000000E+02  0.51100000000E-03 0. -1.
    9900012    2    1    2    0    0 -0.69750019323E+01 -0.36139592060E+02  0.25969074627E+02  0.46142316486E+02  0.99999883764E+01 0.  0.
         12    1    1    2    0    0  0.69750019323E+01  0.36139592060E+02 -0.25969074627E+02  0.45045683514E+02  0.00000000000E+00 0. -1.
         11    1    3    3    0    0  0.18997158048E+01 -0.23407421846E+01  0.21481405746E+01  0.37016891149E+01  0.51100000000E-03 0. -1.
        -11    1    3    3    0    0 -0.30986665736E+01 -0.18755393071E+02  0.12718100068E+02  0.22871741809E+02  0.51100000000E-03 0.  1.
         12    1    3    3    0    0 -0.57760511634E+01 -0.15043456804E+02  0.11102833985E+02  0.19568885562E+02  0.00000000000E+00 0. -1.
</event>
<event>
 7    1  0.1503436E-008  0.4614232E+02  0.7816164E-02  0.1320468E+00
        -11   -1    0    0    0    0  0.00000000000E+00  0.00000000000E+00  0.45593999997E+02  0.45594000000E+02  0.51100000000E-03 0.  1.
         11   -1    0    0    0    0 -0.00000000000E+00 -0.00000000000E+00 -0.45593999997E+02  0.45594000000E+02  0.51100000000E-03 0. -1.
    9900012    2    1    2    0    0  0.83993542651E+01  0.23726323805E+02  0.37358077062E+02  0.46142317464E+02  0.99999972918E+01 0.  0.
         12    1    1    2    0    0 -0.83993542651E+01 -0.23726323805E+02 -0.37358077062E+02  0.45045682536E+02  0.00000000000E+00 0. -1.
         11    1    3    3    0    0  0.35591551034E+01  0.42102854938E+01  0.44384663350E+01  0.70777166273E+01  0.51100000000E-03 0. -1.
        -11    1    3    3    0    0  0.27412998754E+01  0.91443529394E+01  0.21341048208E+02  0.23378927576E+02  0.51100000000E-03 0.  1.
        -12    1    3    3    0    0  0.20988992863E+01  0.10371685372E+02  0.11578562518E+02  0.15685673261E+02  0.00000000000E+00 0.  1.
</event>
<event>
 7    1  0.1503436E-008  0.4614232E+02  0.7816164E-02  0.1320468E+00
        -11   -1    0    0    0    0  0.00000000000E+00  0.00000000000E+00  0.45593999997E+02  0.45594000000E+02  0.51100000000E-03 0. -1.
         11   -1    0    0    0    0 -0.00000000000E+00 -0.00000000000E+00 -0.45593999997E+02  0.45594000000E+02  0.51100000000E-03 0.  1.
    9900012    2    1    2    0    0 -0.37217212692E+01  0.54795506947E+01 -0.44555996383E+02  0.46142317647E+02  0.99999989577E+01 0.  0.
         12    1    1    2    0    0  0.37217212692E+01 -0.54795506947E+01  0.44555996383E+02  0.45045682353E+02  0.00000000000E+00 0. -1.
         11    1    3    3    0    0  0.27561904126E+00  0.76511198643E+00 -0.23972936870E+02  0.23986726843E+02  0.51100000000E-03 0. -1.
        -11    1    3    3    0    0 -0.11053289959E+01  0.27655626873E+01 -0.29899772617E+01  0.42201959022E+01  0.51100000000E-03 0.  1.
         12    1    3    3    0    0 -0.28920113146E+01  0.19488760210E+01 -0.17593082251E+02  0.17935394902E+02  0.00000000000E+00 0. -1.
</event>
<event>
 7    1  0.1503436E-008  0.4614232E+02  0.7816164E-02  0.1320468E+00
        -11   -1    0    0    0    0  0.00000000000E+00  0.00000000000E+00  0.45593999997E+02  0.45594000000E+02  0.51100000000E-03 0. -1.
         11   -1    0    0    0    0 -0.00000000000E+00 -0.00000000000E+00 -0.45593999997E+02  0.45594000000E+02  0.51100000000E-03 0.  1.
    9900012    2    1    2    0    0  0.11177301700E+02 -0.40788300218E+01 -0.43445880537E+02  0.46142318040E+02  0.10000002540E+02 0.  0.
         12    1    1    2    0    0 -0.11177301700E+02  0.40788300218E+01  0.43445880537E+02  0.45045681960E+02  0.00000000000E+00 0. -1.
         11    1    3    3    0    0  0.39639064225E+01 -0.59442139993E+01 -0.18178159813E+02  0.19531813245E+02  0.51100000000E-03 0. -1.
        -11    1    3    3    0    0  0.45634648481E+01 -0.25946202958E+00 -0.10406774303E+02  0.11366331142E+02  0.51100000000E-03 0.  1.
         12    1    3    3    0    0  0.26499304295E+01  0.21248460071E+01 -0.14860946421E+02  0.15244173653E+02  0.00000000000E+00 0. -1.
</event>
<event>
 7    1  0.1503436E-008  0.4614232E+02  0.7816164E-02  0.1320468E+00
        -11   -1    0    0    0    0  0.00000000000E+00  0.00000000000E+00  0.45593999997E+02  0.45594000000E+02  0.51100000000E-03 0.  1.
         11   -1    0    0    0    0 -0.00000000000E+00 -0.00000000000E+00 -0.45593999997E+02  0.45594000000E+02  0.51100000000E-03 0. -1.
    9900012    2    1    2    0    0 -0.40056211041E+01 -0.15574557220E+00  0.44866960829E+02  0.46142318396E+02  0.10000005792E+02 0.  0.
         12    1    1    2    0    0  0.40056211041E+01  0.15574557220E+00 -0.44866960829E+02  0.45045681604E+02  0.00000000000E+00 0. -1.
         11    1    3    3    0    0 -0.11894391610E+01 -0.32167082336E+01  0.11853039189E+02  0.12339226704E+02  0.51100000000E-03 0. -1.
        -11    1    3    3    0    0 -0.21034921755E+01  0.17426145928E+01  0.31677672009E+02  0.31795224313E+02  0.51100000000E-03 0.  1.
         12    1    3    3    0    0 -0.71268976765E+00  0.13183480686E+01  0.13362496307E+01  0.20078673787E+01  0.00000000000E+00 0. -1.
</event>
<event>
 7    1  0.1503436E-008  0.4614232E+02  0.7816164E-02  0.1320468E+00
        -11   -1    0    0    0    0  0.00000000000E+00  0.00000000000E+00  0.45593999997E+02  0.45594000000E+02  0.51100000000E-03 0. -1.
         11   -1    0    0    0    0 -0.00000000000E+00 -0.00000000000E+00 -0.45593999997E+02  0.45594000000E+02  0.51100000000E-03 0.  1.
    9900012    2    1    2    0    0 -0.22513739710E+02 -0.11003481315E+02 -0.37432182967E+02  0.46142318759E+02  0.10000009098E+02 0.  0.
         12    1    1    2    0    0  0.22513739710E+02  0.11003481315E+02  0.37432182967E+02  0.45045681241E+02  0.00000000000E+00 0. -1.
         11    1    3    3    0    0 -0.23229079508E+01 -0.35883729822E+01 -0.26054722442E+01  0.50060770953E+01  0.51100000000E-03 0. -1.
        -11    1    3    3    0    0 -0.99107983843E+01 -0.49816794083E+01 -0.20841292195E+02  0.23609331100E+02  0.51100000000E-03 0.  1.
        -12    1    3    3    0    0 -0.10280033375E+02 -0.24334289250E+01 -0.13985418527E+02  0.17526910564E+02  0.00000000000E+00 0.  1.
</event>
<event>
 7    1  0.1503436E-008  0.4614232E+02  0.7816164E-02  0.1320468E+00
        -11   -1    0    0    0    0  0.00000000000E+00  0.00000000000E+00  0.45593999997E+02  0.45594000000E+02  0.51100000000E-03 0. -1.
         11   -1    0    0    0    0 -0.00000000000E+00 -0.00000000000E+00 -0.45593999997E+02  0.45594000000E+02  0.51100000000E-03 0.  1.
    9900012    2    1    2    0    0 -0.41165627669E+02 -0.91658115086E+01 -0.15826959374E+02  0.46142316022E+02  0.99999841426E+01 0.  0.
         12    1    1    2    0    0  0.41165627669E+02  0.91658115086E+01  0.15826959374E+02  0.45045683978E+02  0.00000000000E+00 0. -1.
         11    1    3    3    0    0 -0.29732138562E+01 -0.24622388991E+01  0.56888827992E+00  0.39020834393E+01  0.51100000000E-03 0. -1.
        -11    1    3    3    0    0 -0.78601383978E+01 -0.20560838712E+01 -0.47969626325E+01  0.94350467554E+01  0.51100000000E-03 0.  1.
         12    1    3    3    0    0 -0.30332275415E+02 -0.46474887383E+01 -0.11598885022E+02  0.32805185827E+02  0.00000000000E+00 0. -1.
</event>
<event>
 7    1  0.1874511E-008  0.4614232E+02  0.7816164E-02  0.1320468E+00
        -11   -1    0    0    0    0  0.00000000000E+00  0.00000000000E+00  0.45593999997E+02  0.45594000000E+02  0.51100000000E-03 0. -1.
         11   -1    0    0    0    0 -0.00000000000E+00 -0.00000000000E+00 -0.45593999997E+02  0.45594000000E+02  0.51100000000E-03 0.  1.
    9900012    2    1    2    0    0 -0.27483210232E+02 -0.78359749683E+00 -0.35681543992E+02  0.46142318172E+02  0.10000003743E+02 0.  0.
         12    1    1    2    0    0  0.27483210232E+02  0.78359749683E+00  0.35681543992E+02  0.45045681828E+02  0.00000000000E+00 0. -1.
         11    1    3    3    0    0  0.51063409053E+00 -0.70108154765E-01 -0.30727070862E+00  0.60006489422E+00  0.51100000000E-03 0. -1.
        -11    1    3    3    0    0 -0.24152483298E+02 -0.13777187305E+01 -0.33198712374E+02  0.41077914528E+02  0.51100000000E-03 0.  1.
        -12    1    3    3    0    0 -0.38413610246E+01  0.66422938846E+00 -0.21755609095E+01  0.44643387497E+01  0.00000000000E+00 0.  1.
</event>
<event>
 7    1  0.1503436E-008  0.4614232E+02  0.7816164E-02  0.1320468E+00
        -11   -1    0    0    0    0  0.00000000000E+00  0.00000000000E+00  0.45593999997E+02  0.45594000000E+02  0.51100000000E-03 0. -1.
         11   -1    0    0    0    0 -0.00000000000E+00 -0.00000000000E+00 -0.45593999997E+02  0.45594000000E+02  0.51100000000E-03 0.  1.
    9900012    2    1    2    0    0 -0.18050933297E+02 -0.31576967726E+02 -0.26573904415E+02  0.46142317860E+02  0.10000000898E+02 0.  0.
         12    1    1    2    0    0  0.18050933297E+02  0.31576967726E+02  0.26573904415E+02  0.45045682140E+02  0.00000000000E+00 0. -1.
         11    1    3    3    0    0 -0.12315678977E+02 -0.21467612458E+02 -0.15134704545E+02  0.29010232940E+02  0.51100000000E-03 0. -1.
        -11    1    3    3    0    0 -0.34591538749E+01 -0.57807949893E+01 -0.29918275025E+01  0.73711850000E+01  0.51100000000E-03 0.  1.
         12    1    3    3    0    0 -0.22761004449E+01 -0.43285602779E+01 -0.84473723677E+01  0.97608999193E+01  0.00000000000E+00 0. -1.
</event>
<event>
 7    1  0.1503436E-008  0.4614232E+02  0.7816164E-02  0.1320468E+00
        -11   -1    0    0    0    0  0.00000000000E+00  0.00000000000E+00  0.45593999997E+02  0.45594000000E+02  0.51100000000E-03 0.  1.
         11   -1    0    0    0    0 -0.00000000000E+00 -0.00000000000E+00 -0.45593999997E+02  0.45594000000E+02  0.51100000000E-03 0. -1.
    9900012    2    1    2    0    0 -0.99971330758E+01  0.34039045516E+02  0.27758137107E+02  0.46142318020E+02  0.10000002364E+02 0.  0.
         12    1    1    2    0    0  0.99971330758E+01 -0.34039045516E+02 -0.27758137107E+02  0.45045681980E+02  0.00000000000E+00 0. -1.
         11    1    3    3    0    0 -0.45391696818E+01  0.23695558269E+02  0.16927070878E+02  0.29472177928E+02  0.51100000000E-03 0. -1.
        -11    1    3    3    0    0 -0.56107384273E+01  0.58123151270E+01  0.76995221696E+01  0.11160019477E+02  0.51100000000E-03 0.  1.
         12    1    3    3    0    0  0.15277503337E+00  0.45311721204E+01  0.31315440588E+01  0.55101206147E+01  0.00000000000E+00 0. -1.
</event>
<event>
 7    1  0.1503436E-008  0.4614231E+02  0.7816164E-02  0.1320468E+00
        -11   -1    0    0    0    0  0.00000000000E+00  0.00000000000E+00  0.45593999997E+02  0.45594000000E+02  0.51100000000E-03 0.  1.
         11   -1    0    0    0    0 -0.00000000000E+00 -0.00000000000E+00 -0.45593999997E+02  0.45594000000E+02  0.51100000000E-03 0. -1.
    9900012    2    1    2    0    0  0.25364518337E+02  0.75188554849E+01  0.36458494897E+02  0.46142313986E+02  0.99999655759E+01 0.  0.
         12    1    1    2    0    0 -0.25364518337E+02 -0.75188554849E+01 -0.36458494897E+02  0.45045686014E+02  0.00000000000E+00 0. -1.
         11    1    3    3    0    0  0.89498182858E+01  0.56321812484E+01  0.13283852758E+02  0.16978853240E+02  0.51100000000E-03 0. -1.
        -11    1    3    3    0    0  0.16479046957E+02  0.73632793685E+00  0.22179021296E+02  0.27640733589E+02  0.51100000000E-03 0.  1.
        -12    1    3    3    0    0 -0.64346905098E-01  0.11503462996E+01  0.99562084320E+00  0.15227271576E+01  0.00000000000E+00 0.  1.
</event>
<event>
 7    1  0.1503436E-008  0.4614232E+02  0.7816164E-02  0.1320468E+00
        -11   -1    0    0    0    0  0.00000000000E+00  0.00000000000E+00  0.45593999997E+02  0.45594000000E+02  0.51100000000E-03 0.  1.
         11   -1    0    0    0    0 -0.00000000000E+00 -0.00000000000E+00 -0.45593999997E+02  0.45594000000E+02  0.51100000000E-03 0. -1.
    9900012    2    1    2    0    0 -0.18554666431E+02  0.28713196876E+02  0.29332408411E+02  0.46142317583E+02  0.99999983764E+01 0.  0.
         12    1    1    2    0    0  0.18554666431E+02 -0.28713196876E+02 -0.29332408411E+02  0.45045682417E+02  0.00000000000E+00 0. -1.
         11    1    3    3    0    0 -0.89439652345E+01  0.80964039680E+01  0.62362496131E+01  0.13580761423E+02  0.51100000000E-03 0. -1.
        -11    1    3    3    0    0 -0.59986799057E+01  0.15991933230E+02  0.17466072892E+02  0.24429281438E+02  0.51100000000E-03 0.  1.
         12    1    3    3    0    0 -0.36120212911E+01  0.46248596777E+01  0.56300859057E+01  0.81322747218E+01  0.00000000000E+00 0. -1.
</event>
<event>
 7    1  0.1503436E-008  0.4614232E+02  0.7816164E-02  0.1320468E+00
        -11   -1    0    0    0    0  0.00000000000E+00  0.00000000000E+00  0.45593999997E+02  0.45594000000E+02  0.51100000000E-03 0.  1.
         11   -1    0    0    0    0 -0.00000000000E+00 -0.00000000000E+00 -0.45593999997E+02  0.45594000000E+02  0.51100000000E-03 0. -1.
    9900012    2    1    2    0    0  0.93519799542E+01  0.20370102111E+02  0.39073173625E+02  0.46142317785E+02  0.10000000222E+02 0.  0.
         12    1    1    2    0    0 -0.93519799542E+01 -0.20370102111E+02 -0.39073173625E+02  0.45045682215E+02  0.00000000000E+00 0. -1.
         11    1    3    3    0    0  0.37367058673E+01  0.11545399055E+01  0.97947141105E+01  0.10546675206E+02  0.51100000000E-03 0. -1.
        -11    1    3    3    0    0  0.46358205914E+01  0.11450644456E+02  0.16522738355E+02  0.20630292630E+02  0.51100000000E-03 0.  1.
         12    1    3    3    0    0  0.97945349556E+00  0.77649177497E+01  0.12755721159E+02  0.14965349949E+02  0.00000000000E+00 0. -1.
</event>
<event>
 7    1  0.1503436E-008  0.4614232E+02  0.7816164E-02  0.1320468E+00
        -11   -1    0    0    0    0  0.00000000000E+00  0.00000000000E+00  0.45593999997E+02  0.45594000000E+02  0.51100000000E-03 0. -1.
         11   -1    0    0    0    0 -0.00000000000E+00 -0.00000000000E+00 -0.45593999997E+02  0.45594000000E+02  0.51100000000E-03 0.  1.
    9900012    2    1    2    0    0 -0.31179224660E+02  0.31377350207E+02 -0.85106583851E+01  0.46142318048E+02  0.10000002617E+02 0.  0.
         12    1    1    2    0    0  0.31179224660E+02 -0.31377350207E+02  0.85106583851E+01  0.45045681952E+02  0.00000000000E+00 0. -1.
         11    1    3    3    0    0 -0.75526691189E+01  0.28261542089E+01 -0.34556002618E+00  0.80715159929E+01  0.51100000000E-03 0. -1.
        -11    1    3    3    0    0 -0.16883867211E+02  0.22345946023E+02 -0.66039728889E+01  0.28775314661E+02  0.51100000000E-03 0.  1.
         12    1    3    3    0    0 -0.67426883301E+01  0.62052499750E+01 -0.15611254701E+01  0.92954873946E+01  0.00000000000E+00 0. -1.
</event>
<event>
 7    1  0.1503436E-008  0.4614232E+02  0.7816164E-02  0.1320468E+00
        -11   -1    0    0    0    0  0.00000000000E+00  0.00000000000E+00  0.45593999997E+02  0.45594000000E+02  0.51100000000E-03 0.  1.
         11   -1    0    0    0    0 -0.00000000000E+00 -0.00000000000E+00 -0.45593999997E+02  0.45594000000E+02  0.51100000000E-03 0. -1.
    9900012    2    1    2    0    0 -0.19039948952E+02  0.40671378098E+02  0.35260233363E+01  0.46142317709E+02  0.99999995284E+01 0.  0.
         12    1    1    2    0    0  0.19039948952E+02 -0.40671378098E+02 -0.35260233363E+01  0.45045682291E+02  0.00000000000E+00 0. -1.
         11    1    3    3    0    0  0.60491050068E+00  0.44104239507E+00  0.97966523483E+00  0.12329555310E+01  0.51100000000E-03 0. -1.
        -11    1    3    3    0    0 -0.11576585537E+02  0.23995659098E+02  0.32022794099E+00  0.26644165110E+02  0.51100000000E-03 0.  1.
         12    1    3    3    0    0 -0.80682739157E+01  0.16234676605E+02  0.22261301605E+01  0.18265197068E+02  0.00000000000E+00 0. -1.
</event>
<event>
 7    1  0.1503436E-008  0.4614232E+02  0.7816164E-02  0.1320468E+00
        -11   -1    0    0    0    0  0.00000000000E+00  0.00000000000E+00  0.45593999997E+02  0.45594000000E+02  0.51100000000E-03 0.  1.
         11   -1    0    0    0    0 -0.00000000000E+00 -0.00000000000E+00 -0.45593999997E+02  0.45594000000E+02  0.51100000000E-03 0. -1.
    9900012    2    1    2    0    0 -0.17625324081E+02  0.25050082364E+02  0.33029605230E+02  0.46142317665E+02  0.99999991234E+01 0.  0.
         12    1    1    2    0    0  0.17625324081E+02 -0.25050082364E+02 -0.33029605230E+02  0.45045682335E+02  0.00000000000E+00 0. -1.
         11    1    3    3    0    0 -0.33627267755E+01  0.67716297699E+00  0.19919042940E+01  0.39666313216E+01  0.51100000000E-03 0. -1.
        -11    1    3    3    0    0 -0.48551656792E+01  0.81573382945E+01  0.13506704051E+02  0.16508962912E+02  0.51100000000E-03 0.  1.
         12    1    3    3    0    0 -0.94074316264E+01  0.16215581092E+02  0.17530996884E+02  0.25666723432E+02  0.00000000000E+00 0. -1.
</event>
<event>
 7    1  0.1503436E-008  0.4614232E+02  0.7816164E-02  0.1320468E+00
        -11   -1    0    0    0    0  0.00000000000E+00  0.00000000000E+00  0.45593999997E+02  0.45594000000E+02  0.51100000000E-03 0.  1.
         11   -1    0    0    0    0 -0.00000000000E+00 -0.00000000000E+00 -0.45593999997E+02  0.45594000000E+02  0.51100000000E-03 0. -1.
    9900012    2    1    2    0    0  0.76029008874E+01  0.82896800041E+01  0.43618695587E+02  0.46142317619E+02  0.99999987039E+01 0.  0.
         12    1    1    2    0    0 -0.76029008874E+01 -0.82896800041E+01 -0.43618695587E+02  0.45045682381E+02  0.00000000000E+00 0. -1.
         11    1    3    3    0    0  0.22325215692E+01 -0.16883966942E+01  0.11216796215E+02  0.11560767861E+02  0.51100000000E-03 0. -1.
        -11    1    3    3    0    0  0.49271283741E+01  0.80322988250E+01  0.21152096581E+02  0.23156113847E+02  0.51100000000E-03 0.  1.
        -12    1    3    3    0    0  0.44325094412E+00  0.19457778733E+01  0.11249802791E+02  0.11425435911E+02  0.00000000000E+00 0.  1.
</event>
<event>
 7    1  0.1503436E-008  0.4614233E+02  0.7816164E-02  0.1320468E+00
        -11   -1    0    0    0    0  0.00000000000E+00  0.00000000000E+00  0.45593999997E+02  0.45594000000E+02  0.51100000000E-03 0. -1.
         11   -1    0    0    0    0 -0.00000000000E+00 -0.00000000000E+00 -0.45593999997E+02  0.45594000000E+02  0.51100000000E-03 0.  1.
    9900012    2    1    2    0    0  0.21021134814E+02 -0.39662082048E+02  0.37608438291E+01  0.46142325318E+02  0.10000068907E+02 0.  0.
         12    1    1    2    0    0 -0.21021134814E+02  0.39662082048E+02 -0.37608438291E+01  0.45045674682E+02  0.00000000000E+00 0. -1.
         11    1    3    3    0    0  0.13654781444E+02 -0.26811968051E+02  0.61462825464E+01  0.30710120098E+02  0.51100000000E-03 0. -1.
        -11    1    3    3    0    0  0.37717748746E+01 -0.31971218951E+01 -0.88165784965E+00  0.50224690086E+01  0.51100000000E-03 0.  1.
         12    1    3    3    0    0  0.35945784958E+01 -0.96529921019E+01 -0.15037808677E+01  0.10409736211E+02  0.00000000000E+00 0. -1.
</event>
<event>
 7    1  0.1503436E-008  0.4614232E+02  0.7816164E-02  0.1320468E+00
        -11   -1    0    0    0    0  0.00000000000E+00  0.00000000000E+00  0.45593999997E+02  0.45594000000E+02  0.51100000000E-03 0. -1.
         11   -1    0    0    0    0 -0.00000000000E+00 -0.00000000000E+00 -0.45593999997E+02  0.45594000000E+02  0.51100000000E-03 0.  1.
    9900012    2    1    2    0    0 -0.20305066160E+02  0.89349600586E+01 -0.39204391407E+02  0.46142317315E+02  0.99999959289E+01 0.  0.
         12    1    1    2    0    0  0.20305066160E+02 -0.89349600586E+01  0.39204391407E+02  0.45045682685E+02  0.00000000000E+00 0. -1.
         11    1    3    3    0    0 -0.13350185632E+02  0.70042533190E+01 -0.19866248549E+02  0.24939022688E+02  0.51100000000E-03 0. -1.
        -11    1    3    3    0    0 -0.70415775337E+01  0.10256356721E+01 -0.18897657727E+02  0.20192999047E+02  0.51100000000E-03 0.  1.
         12    1    3    3    0    0  0.86697004898E-01  0.90507106751E+00 -0.44048513079E+00  0.10102955797E+01  0.00000000000E+00 0. -1.
</event>
<event>
 7    1  0.1503436E-008  0.4614232E+02  0.7816164E-02  0.1320468E+00
        -11   -1    0    0    0    0  0.00000000000E+00  0.00000000000E+00  0.45593999997E+02  0.45594000000E+02  0.51100000000E-03 0. -1.
         11   -1    0    0    0    0 -0.00000000000E+00 -0.00000000000E+00 -0.45593999997E+02  0.45594000000E+02  0.51100000000E-03 0.  1.
    9900012    2    1    2    0    0 -0.81715436949E+01  0.34604695726E+02 -0.27656002723E+02  0.46142316752E+02  0.99999908018E+01 0.  0.
         12    1    1    2    0    0  0.81715436949E+01 -0.34604695726E+02  0.27656002723E+02  0.45045683248E+02  0.00000000000E+00 0. -1.
         11    1    3    3    0    0 -0.81343263379E+01  0.18810749783E+02 -0.12852068162E+02  0.24190643411E+02  0.51100000000E-03 0. -1.
        -11    1    3    3    0    0  0.10802410359E+01  0.14305756698E+02 -0.13185321778E+02  0.19485233025E+02  0.51100000000E-03 0.  1.
         12    1    3    3    0    0 -0.11174583929E+01  0.14881892446E+01 -0.16186127837E+01  0.24664403157E+01  0.00000000000E+00 0. -1.
</event>
<event>
 7    1  0.1503436E-008  0.4614232E+02  0.7816164E-02  0.1320468E+00
        -11   -1    0    0    0    0  0.00000000000E+00  0.00000000000E+00  0.45593999997E+02  0.45594000000E+02  0.51100000000E-03 0. -1.
         11   -1    0    0    0    0 -0.00000000000E+00 -0.00000000000E+00 -0.45593999997E+02  0.45594000000E+02  0.51100000000E-03 0.  1.
    9900012    2    1    2    0    0  0.20013653624E+02 -0.16925920939E+02 -0.36634414388E+02  0.46142318203E+02  0.10000004027E+02 0.  0.
         12    1    1    2    0    0 -0.20013653624E+02  0.16925920939E+02  0.36634414388E+02  0.45045681797E+02  0.00000000000E+00 0. -1.
         11    1    3    3    0    0  0.67946276339E+01 -0.35422624701E+01 -0.17176099725E+02  0.18807790676E+02  0.51100000000E-03 0. -1.
        -11    1    3    3    0    0  0.11064877239E+02 -0.12822161544E+02 -0.16638830625E+02  0.23742157017E+02  0.51100000000E-03 0.  1.
        -12    1    3    3    0    0  0.21541487512E+01 -0.56149692478E+00 -0.28194840379E+01  0.35923705096E+01  0.00000000000E+00 0.  1.
</event>
<event>
 7    1  0.1503436E-008  0.4614232E+02  0.7816164E-02  0.1320468E+00
        -11   -1    0    0    0    0  0.00000000000E+00  0.00000000000E+00  0.45593999997E+02  0.45594000000E+02  0.51100000000E-03 0. -1.
         11   -1    0    0    0    0 -0.00000000000E+00 -0.00000000000E+00 -0.45593999997E+02  0.45594000000E+02  0.51100000000E-03 0.  1.
    9900012    2    1    2    0    0 -0.33658590180E+02 -0.25811795303E+02 -0.15164561543E+02  0.46142318781E+02  0.10000009302E+02 0.  0.
         12    1    1    2    0    0  0.33658590180E+02  0.25811795303E+02  0.15164561543E+02  0.45045681219E+02  0.00000000000E+00 0. -1.
         11    1    3    3    0    0 -0.10053977793E+02 -0.12355856191E+02 -0.52915994380E+01  0.16785430485E+02  0.51100000000E-03 0. -1.
        -11    1    3    3    0    0 -0.25922923176E+01 -0.33868363771E+01 -0.23646967860E+01  0.48767234140E+01  0.51100000000E-03 0.  1.
         12    1    3    3    0    0 -0.21012320069E+02 -0.10069102734E+02 -0.75082653195E+01  0.24480164883E+02  0.00000000000E+00 0. -1.
</event>
<event>
 7    1  0.1503436E-008  0.4614232E+02  0.7816164E-02  0.1320468E+00
        -11   -1    0    0    0    0  0.00000000000E+00  0.00000000000E+00  0.45593999997E+02  0.45594000000E+02  0.51100000000E-03 0.  1.
         11   -1    0    0    0    0 -0.00000000000E+00 -0.00000000000E+00 -0.45593999997E+02  0.45594000000E+02  0.51100000000E-03 0. -1.
    9900012    2    1    2    0    0 -0.35644397124E+02  0.24494458650E+02  0.12594123195E+02  0.46142317744E+02  0.99999998416E+01 0.  0.
         12    1    1    2    0    0  0.35644397124E+02 -0.24494458650E+02 -0.12594123195E+02  0.45045682256E+02  0.00000000000E+00 0. -1.
         11    1    3    3    0    0 -0.53917251607E+01  0.66860387165E+00 -0.20325551959E+00  0.54368230073E+01  0.51100000000E-03 0. -1.
        -11    1    3    3    0    0 -0.18535786962E+02  0.14469813507E+02  0.94476959800E+01  0.25341859853E+02  0.51100000000E-03 0.  1.
        -12    1    3    3    0    0 -0.11716885002E+02  0.93560412709E+01  0.33496827341E+01  0.15363634883E+02  0.00000000000E+00 0.  1.
</event>
<event>
 7    1  0.1503436E-008  0.4614232E+02  0.7816164E-02  0.1320468E+00
        -11   -1    0    0    0    0  0.00000000000E+00  0.00000000000E+00  0.45593999997E+02  0.45594000000E+02  0.51100000000E-03 0.  1.
         11   -1    0    0    0    0 -0.00000000000E+00 -0.00000000000E+00 -0.45593999997E+02  0.45594000000E+02  0.51100000000E-03 0. -1.
    9900012    2    1    2    0    0  0.12034691062E+02 -0.12398573052E+02  0.41599941585E+02  0.46142317160E+02  0.99999945148E+01 0.  0.
         12    1    1    2    0    0 -0.12034691062E+02  0.12398573052E+02 -0.41599941585E+02  0.45045682840E+02  0.00000000000E+00 0. -1.
         11    1    3    3    0    0  0.25183857259E+01 -0.10842651484E+01  0.19162477032E+01  0.33451312526E+01  0.51100000000E-03 0. -1.
        -11    1    3    3    0    0  0.17935990274E+01 -0.12191065255E+00  0.98215706794E+01  0.99847438900E+01  0.51100000000E-03 0.  1.
        -12    1    3    3    0    0  0.77227063089E+01 -0.11192397251E+02  0.29862123202E+02  0.32812442017E+02  0.00000000000E+00 0.  1.
</event>
<event>
 7    1  0.1503436E-008  0.4614232E+02  0.7816164E-02  0.1320468E+00
        -11   -1    0    0    0    0  0.00000000000E+00  0.00000000000E+00  0.45593999997E+02  0.45594000000E+02  0.51100000000E-03 0.  1.
         11   -1    0    0    0    0 -0.00000000000E+00 -0.00000000000E+00 -0.45593999997E+02  0.45594000000E+02  0.51100000000E-03 0. -1.
    9900012    2    1    2    0    0 -0.18445750787E+02  0.41075597966E+02 -0.12895921707E+01  0.46142317429E+02  0.99999969684E+01 0.  0.
         12    1    1    2    0    0  0.18445750787E+02 -0.41075597966E+02  0.12895921707E+01  0.45045682571E+02  0.00000000000E+00 0. -1.
         11    1    3    3    0    0 -0.10244774695E+02  0.13062270057E+02 -0.15450575912E+01  0.16672297706E+02  0.51100000000E-03 0. -1.
        -11    1    3    3    0    0 -0.19330925090E+01  0.44331842356E+01 -0.13412709500E+01  0.50188621357E+01  0.51100000000E-03 0.  1.
         12    1    3    3    0    0 -0.62678835821E+01  0.23580143674E+02  0.15967363705E+01  0.24451157586E+02  0.00000000000E+00 0. -1.
</event>
<event>
 7    1  0.1503436E-008  0.4614232E+02  0.7816164E-02  0.1320468E+00
        -11   -1    0    0    0    0  0.00000000000E+00  0.00000000000E+00  0.45593999997E+02  0.45594000000E+02  0.51100000000E-03 0. -1.
         11   -1    0    0    0    0 -0.00000000000E+00 -0.00000000000E+00 -0.45593999997E+02  0.45594000000E+02  0.51100000000E-03 0.  1.
    9900012    2    1    2    0    0  0.30788393700E+02 -0.31203350687E+02  0.10370111774E+02  0.46142317644E+02  0.99999989312E+01 0.  0.
         12    1    1    2    0    0 -0.30788393700E+02  0.31203350687E+02 -0.10370111774E+02  0.45045682356E+02  0.00000000000E+00 0. -1.
         11    1    3    3    0    0  0.12535181978E+02 -0.95872479878E+01  0.12400929678E+00  0.15781682095E+02  0.51100000000E-03 0. -1.
        -11    1    3    3    0    0  0.11860561024E+02 -0.16113307127E+02  0.85441830955E+01  0.21755795536E+02  0.51100000000E-03 0.  1.
        -12    1    3    3    0    0  0.63926506983E+01 -0.55027955725E+01  0.17019193814E+01  0.86048400127E+01  0.00000000000E+00 0.  1.
</event>
<event>
 7    1  0.1503436E-008  0.4614232E+02  0.7816164E-02  0.1320468E+00
        -11   -1    0    0    0    0  0.00000000000E+00  0.00000000000E+00  0.45593999997E+02  0.45594000000E+02  0.51100000000E-03 0. -1.
         11   -1    0    0    0    0 -0.00000000000E+00 -0.00000000000E+00 -0.45593999997E+02  0.45594000000E+02  0.51100000000E-03 0.  1.
    9900012    2    1    2    0    0  0.37965244633E+02 -0.21274640012E+02 -0.11625120473E+02  0.46142317258E+02  0.99999954146E+01 0.  0.
         12    1    1    2    0    0 -0.37965244633E+02  0.21274640012E+02  0.11625120473E+02  0.45045682742E+02  0.00000000000E+00 0. -1.
         11    1    3    3    0    0  0.17253967546E+02 -0.11431908378E+02 -0.24832494880E+01  0.20845969719E+02  0.51100000000E-03 0. -1.
        -11    1    3    3    0    0  0.15175546939E+02 -0.54450067011E+01 -0.41704397232E+01  0.16653464823E+02  0.51100000000E-03 0.  1.
        -12    1    3    3    0    0  0.55357301476E+01 -0.43977249330E+01 -0.49714312619E+01  0.86428827162E+01  0.00000000000E+00 0.  1.
</event>
<event>
 7    1  0.1503436E-008  0.4614231E+02  0.7816164E-02  0.1320468E+00
        -11   -1    0    0    0    0  0.00000000000E+00  0.00000000000E+00  0.45593999997E+02  0.45594000000E+02  0.51100000000E-03 0.  1.
         11   -1    0    0    0    0 -0.00000000000E+00 -0.00000000000E+00 -0.45593999997E+02  0.45594000000E+02  0.51100000000E-03 0. -1.
    9900012    2    1    2    0    0 -0.17994284833E+02 -0.32931606450E+02  0.24916441671E+02  0.46142311466E+02  0.99999425921E+01 0.  0.
         12    1    1    2    0    0  0.17994284833E+02  0.32931606450E+02 -0.24916441671E+02  0.45045688534E+02  0.00000000000E+00 0. -1.
         11    1    3    3    0    0 -0.28185005762E+01 -0.76959010809E+01  0.77367210058E+01  0.11270656198E+02  0.51100000000E-03 0. -1.
        -11    1    3    3    0    0 -0.91339080369E+01 -0.95063933636E+01  0.10042423956E+02  0.16572569806E+02  0.51100000000E-03 0.  1.
        -12    1    3    3    0    0 -0.60418762199E+01 -0.15729312005E+02  0.71372967084E+01  0.18299085461E+02  0.00000000000E+00 0.  1.
</event>
<event>
 7    1  0.1503436E-008  0.4614232E+02  0.7816164E-02  0.1320468E+00
        -11   -1    0    0    0    0  0.00000000000E+00  0.00000000000E+00  0.45593999997E+02  0.45594000000E+02  0.51100000000E-03 0.  1.
         11   -1    0    0    0    0 -0.00000000000E+00 -0.00000000000E+00 -0.45593999997E+02  0.45594000000E+02  0.51100000000E-03 0. -1.
    9900012    2    1    2    0    0 -0.14302155677E+02  0.14300806241E+02  0.40249829603E+02  0.46142317641E+02  0.99999989010E+01 0.  0.
         12    1    1    2    0    0  0.14302155677E+02 -0.14300806241E+02 -0.40249829603E+02  0.45045682359E+02  0.00000000000E+00 0. -1.
         11    1    3    3    0    0 -0.44225656018E+01  0.10688155286E+02  0.20022697969E+02  0.23123671510E+02  0.51100000000E-03 0. -1.
        -11    1    3    3    0    0 -0.25995950690E+01  0.11768748014E+01  0.88103395983E+01  0.92609401747E+01  0.51100000000E-03 0.  1.
         12    1    3    3    0    0 -0.72799950063E+01  0.24357761538E+01  0.11416792036E+02  0.13757705956E+02  0.00000000000E+00 0. -1.
</event>
<event>
 7    1  0.1503436E-008  0.4614232E+02  0.7816164E-02  0.1320468E+00
        -11   -1    0    0    0    0  0.00000000000E+00  0.00000000000E+00  0.45593999997E+02  0.45594000000E+02  0.51100000000E-03 0.  1.
         11   -1    0    0    0    0 -0.00000000000E+00 -0.00000000000E+00 -0.45593999997E+02  0.45594000000E+02  0.51100000000E-03 0. -1.
    9900012    2    1    2    0    0 -0.61633171471E+01 -0.21897629011E+02  0.38879568514E+02  0.46142317827E+02  0.10000000603E+02 0.  0.
         12    1    1    2    0    0  0.61633171471E+01  0.21897629011E+02 -0.38879568514E+02  0.45045682173E+02  0.00000000000E+00 0. -1.
         11    1    3    3    0    0 -0.45189629358E+01 -0.58829349974E+01  0.14212880915E+02  0.16032340264E+02  0.51100000000E-03 0. -1.
        -11    1    3    3    0    0 -0.17642103854E+01 -0.10243134732E+02  0.20519808097E+02  0.23002103643E+02  0.51100000000E-03 0.  1.
         12    1    3    3    0    0  0.11985617414E+00 -0.57715592822E+01  0.41468795026E+01  0.71078739198E+01  0.00000000000E+00 0. -1.
</event>
<event>
 7    1  0.1503436E-008  0.4614232E+02  0.7816164E-02  0.1320468E+00
        -11   -1    0    0    0    0  0.00000000000E+00  0.00000000000E+00  0.45593999997E+02  0.45594000000E+02  0.51100000000E-03 0.  1.
         11   -1    0    0    0    0 -0.00000000000E+00 -0.00000000000E+00 -0.45593999997E+02  0.45594000000E+02  0.51100000000E-03 0. -1.
    9900012    2    1    2    0    0  0.15781614796E+02 -0.63874374424E+01  0.41704373950E+02  0.46142317308E+02  0.99999958698E+01 0.  0.
         12    1    1    2    0    0 -0.15781614796E+02  0.63874374424E+01 -0.41704373950E+02  0.45045682692E+02  0.00000000000E+00 0. -1.
         11    1    3    3    0    0  0.37022587531E+01  0.20819671872E+01  0.74551676545E+01  0.85802582864E+01  0.51100000000E-03 0. -1.
        -11    1    3    3    0    0  0.10793214784E+02 -0.87670769167E+01  0.29180261813E+02  0.32324028257E+02  0.51100000000E-03 0.  1.
        -12    1    3    3    0    0  0.12861412589E+01  0.29767228705E+00  0.50689444822E+01  0.52380307647E+01  0.00000000000E+00 0.  1.
</event>
<event>
 7    1  0.1503436E-008  0.4614232E+02  0.7816164E-02  0.1320468E+00
        -11   -1    0    0    0    0  0.00000000000E+00  0.00000000000E+00  0.45593999997E+02  0.45594000000E+02  0.51100000000E-03 0.  1.
         11   -1    0    0    0    0 -0.00000000000E+00 -0.00000000000E+00 -0.45593999997E+02  0.45594000000E+02  0.51100000000E-03 0. -1.
    9900012    2    1    2    0    0  0.22064575391E+02  0.37630518033E+02  0.11234407965E+02  0.46142319886E+02  0.10000019379E+02 0.  0.
         12    1    1    2    0    0 -0.22064575391E+02 -0.37630518033E+02 -0.11234407965E+02  0.45045680114E+02  0.00000000000E+00 0. -1.
         11    1    3    3    0    0  0.11646127463E+02  0.23094997721E+02  0.34140738009E+01  0.26089597636E+02  0.51100000000E-03 0.  1.
        -11    1    3    3    0    0  0.65425022912E+01  0.65604229227E+01  0.20987135703E+01  0.94998991609E+01  0.51100000000E-03 0. -1.
         12    1    3    3    0    0  0.38759456362E+01  0.79750973894E+01  0.57216205938E+01  0.10552823090E+02  0.00000000000E+00 0. -1.
</event>
<event>
 7    1  0.1503436E-008  0.4614232E+02  0.7816164E-02  0.1320468E+00
        -11   -1    0    0    0    0  0.00000000000E+00  0.00000000000E+00  0.45593999997E+02  0.45594000000E+02  0.51100000000E-03 0.  1.
         11   -1    0    0    0    0 -0.00000000000E+00 -0.00000000000E+00 -0.45593999997E+02  0.45594000000E+02  0.51100000000E-03 0. -1.
    9900012    2    1    2    0    0  0.34242171103E+02 -0.28907422130E+02  0.45769009672E+01  0.46142319203E+02  0.10000013144E+02 0.  0.
         12    1    1    2    0    0 -0.34242171103E+02  0.28907422130E+02 -0.45769009672E+01  0.45045680797E+02  0.00000000000E+00 0. -1.
         11    1    3    3    0    0  0.25614026488E+02 -0.24609758449E+02  0.93464548795E+00  0.35532972382E+02  0.51100000000E-03 0. -1.
        -11    1    3    3    0    0  0.38466236222E+01 -0.30424054155E+01  0.10047674465E+01  0.50062263119E+01  0.51100000000E-03 0.  1.
         12    1    3    3    0    0  0.47815209924E+01 -0.12552582662E+01  0.26374880328E+01  0.56031205090E+01  0.00000000000E+00 0. -1.
</event>
<event>
 7    1  0.1503436E-008  0.4614232E+02  0.7816164E-02  0.1320468E+00
        -11   -1    0    0    0    0  0.00000000000E+00  0.00000000000E+00  0.45593999997E+02  0.45594000000E+02  0.51100000000E-03 0.  1.
         11   -1    0    0    0    0 -0.00000000000E+00 -0.00000000000E+00 -0.45593999997E+02  0.45594000000E+02  0.51100000000E-03 0. -1.
    9900012    2    1    2    0    0  0.12603972840E+02  0.15103050850E+02  0.40523465407E+02  0.46142317356E+02  0.99999963023E+01 0.  0.
         12    1    1    2    0    0 -0.12603972840E+02 -0.15103050850E+02 -0.40523465407E+02  0.45045682644E+02  0.00000000000E+00 0. -1.
         11    1    3    3    0    0  0.25791161801E+01  0.72947108646E+00  0.57547050310E+01  0.63482752454E+01  0.51100000000E-03 0. -1.
        -11    1    3    3    0    0  0.13952615141E+01  0.82920832557E+01  0.19449616274E+02  0.21189454284E+02  0.51100000000E-03 0.  1.
        -12    1    3    3    0    0  0.86295951454E+01  0.60814965074E+01  0.15319144102E+02  0.18604587826E+02  0.00000000000E+00 0.  1.
</event>
<event>
 7    1  0.1503436E-008  0.4614232E+02  0.7816164E-02  0.1320468E+00
        -11   -1    0    0    0    0  0.00000000000E+00  0.00000000000E+00  0.45593999997E+02  0.45594000000E+02  0.51100000000E-03 0.  1.
         11   -1    0    0    0    0 -0.00000000000E+00 -0.00000000000E+00 -0.45593999997E+02  0.45594000000E+02  0.51100000000E-03 0. -1.
    9900012    2    1    2    0    0 -0.69641875264E+01 -0.44715407247E+00  0.44501838753E+02  0.46142317554E+02  0.99999981118E+01 0.  0.
         12    1    1    2    0    0  0.69641875264E+01  0.44715407247E+00 -0.44501838753E+02  0.45045682446E+02  0.00000000000E+00 0. -1.
         11    1    3    3    0    0 -0.74069855992E+01 -0.10596500641E+01  0.18670333883E+02  0.20113867393E+02  0.51100000000E-03 0. -1.
        -11    1    3    3    0    0  0.29157145862E+00 -0.85663098310E+00  0.19730234519E+02  0.19750974280E+02  0.51100000000E-03 0.  1.
         12    1    3    3    0    0  0.15122661424E+00  0.14691269747E+01  0.61012703503E+01  0.62774758816E+01  0.00000000000E+00 0. -1.
</event>
<event>
 7    1  0.1503436E-008  0.4614232E+02  0.7816164E-02  0.1320468E+00
        -11   -1    0    0    0    0  0.00000000000E+00  0.00000000000E+00  0.45593999997E+02  0.45594000000E+02  0.51100000000E-03 0.  1.
         11   -1    0    0    0    0 -0.00000000000E+00 -0.00000000000E+00 -0.45593999997E+02  0.45594000000E+02  0.51100000000E-03 0. -1.
    9900012    2    1    2    0    0 -0.25382326419E+02 -0.90908400898E+01  0.36086113871E+02  0.46142317829E+02  0.10000000615E+02 0.  0.
         12    1    1    2    0    0  0.25382326419E+02  0.90908400898E+01 -0.36086113871E+02  0.45045682171E+02  0.00000000000E+00 0. -1.
         11    1    3    3    0    0 -0.13028937115E+02 -0.50845175827E+01  0.13150503384E+02  0.19197428497E+02  0.51100000000E-03 0. -1.
        -11    1    3    3    0    0 -0.96554194641E+01 -0.54401840199E+01  0.17720684684E+02  0.20900846708E+02  0.51100000000E-03 0.  1.
        -12    1    3    3    0    0 -0.26979698395E+01  0.14338615128E+01  0.52149258036E+01  0.60440426231E+01  0.00000000000E+00 0.  1.
</event>
<event>
 7    1  0.1503436E-008  0.4614232E+02  0.7816164E-02  0.1320468E+00
        -11   -1    0    0    0    0  0.00000000000E+00  0.00000000000E+00  0.45593999997E+02  0.45594000000E+02  0.51100000000E-03 0.  1.
         11   -1    0    0    0    0 -0.00000000000E+00 -0.00000000000E+00 -0.45593999997E+02  0.45594000000E+02  0.51100000000E-03 0. -1.
    9900012    2    1    2    0    0  0.18544578785E+02  0.71802153356E+01  0.40418518659E+02  0.46142317131E+02  0.99999942539E+01 0.  0.
         12    1    1    2    0    0 -0.18544578785E+02 -0.71802153356E+01 -0.40418518659E+02  0.45045682869E+02  0.00000000000E+00 0. -1.
         11    1    3    3    0    0  0.10314632338E+01  0.20594335061E+00  0.10715784700E+02  0.10767282436E+02  0.51100000000E-03 0. -1.
        -11    1    3    3    0    0  0.69715769971E+01  0.19068400298E+01  0.14422179457E+02  0.16131899618E+02  0.51100000000E-03 0.  1.
         12    1    3    3    0    0  0.10541538554E+02  0.50674319552E+01  0.15280554501E+02  0.19243135077E+02  0.00000000000E+00 0. -1.
</event>
<event>
 7    1  0.1503436E-008  0.4614232E+02  0.7816164E-02  0.1320468E+00
        -11   -1    0    0    0    0  0.00000000000E+00  0.00000000000E+00  0.45593999997E+02  0.45594000000E+02  0.51100000000E-03 0.  1.
         11   -1    0    0    0    0 -0.00000000000E+00 -0.00000000000E+00 -0.45593999997E+02  0.45594000000E+02  0.51100000000E-03 0. -1.
    9900012    2    1    2    0    0 -0.15016353002E+02  0.85666673073E+01  0.41596089800E+02  0.46142319487E+02  0.10000015739E+02 0.  0.
         12    1    1    2    0    0  0.15016353002E+02 -0.85666673073E+01 -0.41596089800E+02  0.45045680513E+02  0.00000000000E+00 0. -1.
         11    1    3    3    0    0 -0.43259239585E+01  0.73935075613E+01  0.14665851810E+02  0.16984250991E+02  0.51100000000E-03 0. -1.
        -11    1    3    3    0    0 -0.51529397125E+01 -0.95679938080E+00  0.13036372230E+02  0.14050453869E+02  0.51100000000E-03 0.  1.
         12    1    3    3    0    0 -0.55374893311E+01  0.21299591268E+01  0.13893865760E+02  0.15107614627E+02  0.00000000000E+00 0. -1.
</event>
<event>
 7    1  0.1503436E-008  0.4614232E+02  0.7816164E-02  0.1320468E+00
        -11   -1    0    0    0    0  0.00000000000E+00  0.00000000000E+00  0.45593999997E+02  0.45594000000E+02  0.51100000000E-03 0.  1.
         11   -1    0    0    0    0 -0.00000000000E+00 -0.00000000000E+00 -0.45593999997E+02  0.45594000000E+02  0.51100000000E-03 0. -1.
    9900012    2    1    2    0    0 -0.58782450177E+01  0.18802962992E+02  0.40509358842E+02  0.46142319458E+02  0.10000015469E+02 0.  0.
         12    1    1    2    0    0  0.58782450177E+01 -0.18802962992E+02 -0.40509358842E+02  0.45045680542E+02  0.00000000000E+00 0. -1.
         11    1    3    3    0    0 -0.49982800684E+01  0.46571418467E+01  0.19351492996E+02  0.20521989554E+02  0.51100000000E-03 0. -1.
        -11    1    3    3    0    0 -0.13983951032E+01  0.13557746887E+02  0.19557813809E+02  0.23838542128E+02  0.51100000000E-03 0.  1.
        -12    1    3    3    0    0  0.51843015387E+00  0.58807425763E+00  0.16000520362E+01  0.17817877751E+01  0.00000000000E+00 0.  1.
</event>
<event>
 7    1  0.1503436E-008  0.4614232E+02  0.7816164E-02  0.1320468E+00
        -11   -1    0    0    0    0  0.00000000000E+00  0.00000000000E+00  0.45593999997E+02  0.45594000000E+02  0.51100000000E-03 0. -1.
         11   -1    0    0    0    0 -0.00000000000E+00 -0.00000000000E+00 -0.45593999997E+02  0.45594000000E+02  0.51100000000E-03 0.  1.
    9900012    2    1    2    0    0  0.63058907688E+01 -0.44403941191E+02 -0.41999313250E+01  0.46142315691E+02  0.99999811260E+01 0.  0.
         12    1    1    2    0    0 -0.63058907688E+01  0.44403941191E+02  0.41999313250E+01  0.45045684309E+02  0.00000000000E+00 0. -1.
         11    1    3    3    0    0 -0.67049373187E+00 -0.62905206448E+01  0.19299871400E+01  0.66140050233E+01  0.51100000000E-03 0. -1.
        -11    1    3    3    0    0  0.28585022801E+01 -0.20839546927E+02 -0.55784964090E+01  0.21761832962E+02  0.51100000000E-03 0.  1.
        -12    1    3    3    0    0  0.41178822205E+01 -0.17273873619E+02 -0.55142205591E+00  0.17766477706E+02  0.00000000000E+00 0.  1.
</event>
<event>
 7    1  0.1503436E-008  0.4614232E+02  0.7816164E-02  0.1320468E+00
        -11   -1    0    0    0    0  0.00000000000E+00  0.00000000000E+00  0.45593999997E+02  0.45594000000E+02  0.51100000000E-03 0.  1.
         11   -1    0    0    0    0 -0.00000000000E+00 -0.00000000000E+00 -0.45593999997E+02  0.45594000000E+02  0.51100000000E-03 0. -1.
    9900012    2    1    2    0    0  0.33161057351E+02 -0.29723933655E+02  0.67783116357E+01  0.46142318018E+02  0.10000002345E+02 0.  0.
         12    1    1    2    0    0 -0.33161057351E+02  0.29723933655E+02 -0.67783116357E+01  0.45045681982E+02  0.00000000000E+00 0. -1.
         11    1    3    3    0    0  0.17590996964E+02 -0.18679320805E+02  0.50520300461E+01  0.26151160735E+02  0.51100000000E-03 0.  1.
        -11    1    3    3    0    0  0.27157743850E+01 -0.19202153337E+00 -0.10927286433E+01  0.29336596477E+01  0.51100000000E-03 0. -1.
         12    1    3    3    0    0  0.12854286002E+02 -0.10852591317E+02  0.28190102328E+01  0.17057497636E+02  0.00000000000E+00 0. -1.
</event>
<event>
 7    1  0.1503436E-008  0.4614232E+02  0.7816164E-02  0.1320468E+00
        -11   -1    0    0    0    0  0.00000000000E+00  0.00000000000E+00  0.45593999997E+02  0.45594000000E+02  0.51100000000E-03 0.  1.
         11   -1    0    0    0    0 -0.00000000000E+00 -0.00000000000E+00 -0.45593999997E+02  0.45594000000E+02  0.51100000000E-03 0. -1.
    9900012    2    1    2    0    0  0.40851720054E+02 -0.18212595124E+02 -0.53433950222E+01  0.46142317378E+02  0.99999965033E+01 0.  0.
         12    1    1    2    0    0 -0.40851720054E+02  0.18212595124E+02  0.53433950222E+01  0.45045682622E+02  0.00000000000E+00 0. -1.
         11    1    3    3    0    0  0.35284574799E+01 -0.29489612495E+01 -0.31106234807E+01  0.55517892015E+01  0.51100000000E-03 0. -1.
        -11    1    3    3    0    0  0.30335850358E+02 -0.13853474122E+02 -0.10587154970E+01  0.33366202076E+02  0.51100000000E-03 0.  1.
         12    1    3    3    0    0  0.69874122161E+01 -0.14101597526E+01 -0.11740560445E+01  0.72243261001E+01  0.00000000000E+00 0. -1.
</event>
<event>
 7    1  0.1503436E-008  0.4614232E+02  0.7816164E-02  0.1320468E+00
        -11   -1    0    0    0    0  0.00000000000E+00  0.00000000000E+00  0.45593999997E+02  0.45594000000E+02  0.51100000000E-03 0.  1.
         11   -1    0    0    0    0 -0.00000000000E+00 -0.00000000000E+00 -0.45593999997E+02  0.45594000000E+02  0.51100000000E-03 0. -1.
    9900012    2    1    2    0    0  0.23988943437E+02  0.48704146049E+01  0.37814326684E+02  0.46142315987E+02  0.99999838219E+01 0.  0.
         12    1    1    2    0    0 -0.23988943437E+02 -0.48704146049E+01 -0.37814326684E+02  0.45045684013E+02  0.00000000000E+00 0. -1.
         11    1    3    3    0    0  0.13466165866E+02 -0.11838282603E+01  0.24564203203E+02  0.28038173118E+02  0.51100000000E-03 0. -1.
        -11    1    3    3    0    0  0.64617819265E+01  0.29289923987E+01  0.89046677481E+01  0.11385373516E+02  0.51100000000E-03 0.  1.
         12    1    3    3    0    0  0.40609956442E+01  0.31252504665E+01  0.43454557324E+01  0.67187693533E+01  0.00000000000E+00 0. -1.
</event>
<event>
 7    1  0.1503436E-008  0.4614232E+02  0.7816164E-02  0.1320468E+00
        -11   -1    0    0    0    0  0.00000000000E+00  0.00000000000E+00  0.45593999997E+02  0.45594000000E+02  0.51100000000E-03 0.  1.
         11   -1    0    0    0    0 -0.00000000000E+00 -0.00000000000E+00 -0.45593999997E+02  0.45594000000E+02  0.51100000000E-03 0. -1.
    9900012    2    1    2    0    0  0.24891817249E+02  0.32494469047E+02  0.18804796655E+02  0.46142318056E+02  0.10000002691E+02 0.  0.
         12    1    1    2    0    0 -0.24891817249E+02 -0.32494469047E+02 -0.18804796655E+02  0.45045681944E+02  0.00000000000E+00 0. -1.
         11    1    3    3    0    0  0.96337411562E+01  0.13753636336E+02  0.37044632759E+01  0.17195770688E+02  0.51100000000E-03 0. -1.
        -11    1    3    3    0    0  0.10387878066E+01  0.15217240312E+01  0.30712394052E+01  0.35815130713E+01  0.51100000000E-03 0.  1.
         12    1    3    3    0    0  0.14219288286E+02  0.17219108680E+02  0.12029093974E+02  0.25365034297E+02  0.00000000000E+00 0. -1.
</event>
<event>
 7    1  0.1503436E-008  0.4614232E+02  0.7816164E-02  0.1320468E+00
        -11   -1    0    0    0    0  0.00000000000E+00  0.00000000000E+00  0.45593999997E+02  0.45594000000E+02  0.51100000000E-03 0. -1.
         11   -1    0    0    0    0 -0.00000000000E+00 -0.00000000000E+00 -0.45593999997E+02  0.45594000000E+02  0.51100000000E-03 0.  1.
    9900012    2    1    2    0    0 -0.32720092421E+02  0.23392338985E+02 -0.20280703585E+02  0.46142324191E+02  0.10000058633E+02 0.  0.
         12    1    1    2    0    0  0.32720092421E+02 -0.23392338985E+02  0.20280703585E+02  0.45045675809E+02  0.00000000000E+00 0. -1.
         11    1    3    3    0    0 -0.34648213219E+01  0.15044329378E+01  0.52862708236E+00  0.38141515584E+01  0.51100000000E-03 0. -1.
        -11    1    3    3    0    0 -0.27784809850E+02  0.19138963178E+02 -0.18881489529E+02  0.38662723870E+02  0.51100000000E-03 0.  1.
        -12    1    3    3    0    0 -0.14704612490E+01  0.27489428687E+01 -0.19278411375E+01  0.36654487627E+01  0.00000000000E+00 0.  1.
</event>
<event>
 7    1  0.1503436E-008  0.4614232E+02  0.7816164E-02  0.1320468E+00
        -11   -1    0    0    0    0  0.00000000000E+00  0.00000000000E+00  0.45593999997E+02  0.45594000000E+02  0.51100000000E-03 0.  1.
         11   -1    0    0    0    0 -0.00000000000E+00 -0.00000000000E+00 -0.45593999997E+02  0.45594000000E+02  0.51100000000E-03 0. -1.
    9900012    2    1    2    0    0 -0.35479363273E+02  0.14976130557E+02  0.23367579881E+02  0.46142317696E+02  0.99999994092E+01 0.  0.
         12    1    1    2    0    0  0.35479363273E+02 -0.14976130557E+02 -0.23367579881E+02  0.45045682304E+02  0.00000000000E+00 0. -1.
         11    1    3    3    0    0 -0.24448061338E+00 -0.87771195829E+00  0.82353237507E+00  0.12281510029E+01  0.51100000000E-03 0. -1.
        -11    1    3    3    0    0 -0.53991275091E+01  0.22953703499E+01  0.18339980539E+01  0.61467757422E+01  0.51100000000E-03 0.  1.
         12    1    3    3    0    0 -0.29835755150E+02  0.13558472165E+02  0.20710049452E+02  0.38767390951E+02  0.00000000000E+00 0. -1.
</event>
<event>
 7    1  0.1503436E-008  0.4614232E+02  0.7816164E-02  0.1320468E+00
        -11   -1    0    0    0    0  0.00000000000E+00  0.00000000000E+00  0.45593999997E+02  0.45594000000E+02  0.51100000000E-03 0. -1.
         11   -1    0    0    0    0 -0.00000000000E+00 -0.00000000000E+00 -0.45593999997E+02  0.45594000000E+02  0.51100000000E-03 0.  1.
    9900012    2    1    2    0    0  0.72578777578E+01 -0.44004696357E+02 -0.63264155385E+01  0.46142316249E+02  0.99999862120E+01 0.  0.
         12    1    1    2    0    0 -0.72578777578E+01  0.44004696357E+02  0.63264155385E+01  0.45045683751E+02  0.00000000000E+00 0. -1.
         11    1    3    3    0    0  0.57179794601E+01 -0.13577472155E+02 -0.14966349039E+01  0.14808205682E+02  0.51100000000E-03 0. -1.
        -11    1    3    3    0    0 -0.13407327046E+01 -0.17745297431E+02 -0.12209697993E+01  0.17837710408E+02  0.51100000000E-03 0.  1.
        -12    1    3    3    0    0  0.28806310022E+01 -0.12681926772E+02 -0.36088108353E+01  0.13496400159E+02  0.00000000000E+00 0.  1.
</event>
<event>
 7    1  0.1503436E-008  0.4614232E+02  0.7816164E-02  0.1320468E+00
        -11   -1    0    0    0    0  0.00000000000E+00  0.00000000000E+00  0.45593999997E+02  0.45594000000E+02  0.51100000000E-03 0. -1.
         11   -1    0    0    0    0 -0.00000000000E+00 -0.00000000000E+00 -0.45593999997E+02  0.45594000000E+02  0.51100000000E-03 0.  1.
    9900012    2    1    2    0    0  0.33471240660E+02  0.23181012952E+02 -0.19272521982E+02  0.46142318561E+02  0.10000007290E+02 0.  0.
         12    1    1    2    0    0 -0.33471240660E+02 -0.23181012952E+02  0.19272521982E+02  0.45045681439E+02  0.00000000000E+00 0. -1.
         11    1    3    3    0    0  0.12349760201E+01  0.16479120628E+01 -0.33899750263E+01  0.39664481437E+01  0.51100000000E-03 0. -1.
        -11    1    3    3    0    0  0.29382645235E+02  0.17737447245E+02 -0.13853276711E+02  0.37011756938E+02  0.51100000000E-03 0.  1.
        -12    1    3    3    0    0  0.28536194054E+01  0.37956536434E+01 -0.20292702447E+01  0.51641134784E+01  0.00000000000E+00 0.  1.
</event>
<event>
 7    1  0.1503436E-008  0.4614232E+02  0.7816164E-02  0.1320468E+00
        -11   -1    0    0    0    0  0.00000000000E+00  0.00000000000E+00  0.45593999997E+02  0.45594000000E+02  0.51100000000E-03 0. -1.
         11   -1    0    0    0    0 -0.00000000000E+00 -0.00000000000E+00 -0.45593999997E+02  0.45594000000E+02  0.51100000000E-03 0.  1.
    9900012    2    1    2    0    0 -0.20994854033E+02  0.38535736308E+02  0.10164982210E+02  0.46142315057E+02  0.99999753423E+01 0.  0.
         12    1    1    2    0    0  0.20994854033E+02 -0.38535736308E+02 -0.10164982210E+02  0.45045684943E+02  0.00000000000E+00 0. -1.
         11    1    3    3    0    0 -0.32695965000E+01  0.70995188209E+01  0.37213621132E+00  0.78250823882E+01  0.51100000000E-03 0. -1.
        -11    1    3    3    0    0 -0.61004974412E+01  0.14411234570E+02  0.81300370131E+01  0.17635114203E+02  0.51100000000E-03 0.  1.
        -12    1    3    3    0    0 -0.11624760092E+02  0.17024982917E+02  0.16628089859E+01  0.20682118465E+02  0.00000000000E+00 0.  1.
</event>
<event>
 7    1  0.1503436E-008  0.4614232E+02  0.7816164E-02  0.1320468E+00
        -11   -1    0    0    0    0  0.00000000000E+00  0.00000000000E+00  0.45593999997E+02  0.45594000000E+02  0.51100000000E-03 0.  1.
         11   -1    0    0    0    0 -0.00000000000E+00 -0.00000000000E+00 -0.45593999997E+02  0.45594000000E+02  0.51100000000E-03 0. -1.
    9900012    2    1    2    0    0  0.21885878242E+02 -0.29202091984E+02  0.26407564727E+02  0.46142319658E+02  0.10000017296E+02 0.  0.
         12    1    1    2    0    0 -0.21885878242E+02  0.29202091984E+02 -0.26407564727E+02  0.45045680342E+02  0.00000000000E+00 0. -1.
         11    1    3    3    0    0  0.13149800559E+02 -0.13043421111E+02  0.81390771128E+01  0.20230982811E+02  0.51100000000E-03 0. -1.
        -11    1    3    3    0    0  0.18231370084E+01 -0.34441204547E+01  0.36019827692E+01  0.53066066736E+01  0.51100000000E-03 0.  1.
         12    1    3    3    0    0  0.69129406752E+01 -0.12714550419E+02  0.14666504845E+02  0.20604730173E+02  0.00000000000E+00 0. -1.
</event>
<event>
 7    1  0.1503436E-008  0.4614232E+02  0.7816164E-02  0.1320468E+00
        -11   -1    0    0    0    0  0.00000000000E+00  0.00000000000E+00  0.45593999997E+02  0.45594000000E+02  0.51100000000E-03 0. -1.
         11   -1    0    0    0    0 -0.00000000000E+00 -0.00000000000E+00 -0.45593999997E+02  0.45594000000E+02  0.51100000000E-03 0.  1.
    9900012    2    1    2    0    0  0.27936469568E+02 -0.34667349197E+02 -0.68441126455E+01  0.46142319739E+02  0.10000018034E+02 0.  0.
         12    1    1    2    0    0 -0.27936469568E+02  0.34667349197E+02  0.68441126455E+01  0.45045680261E+02  0.00000000000E+00 0. -1.
         11    1    3    3    0    0  0.27166530230E+01 -0.23132356084E+01 -0.26906966167E+01  0.44689049186E+01  0.51100000000E-03 0. -1.
        -11    1    3    3    0    0  0.29005415237E+01 -0.57307730811E+01 -0.25015640517E+01  0.68929474250E+01  0.51100000000E-03 0.  1.
        -12    1    3    3    0    0  0.22319275021E+02 -0.26623340508E+02 -0.16518519771E+01  0.34780467395E+02  0.00000000000E+00 0.  1.
</event>
<event>
 7    1  0.1503436E-008  0.4614232E+02  0.7816164E-02  0.1320468E+00
        -11   -1    0    0    0    0  0.00000000000E+00  0.00000000000E+00  0.45593999997E+02  0.45594000000E+02  0.51100000000E-03 0.  1.
         11   -1    0    0    0    0 -0.00000000000E+00 -0.00000000000E+00 -0.45593999997E+02  0.45594000000E+02  0.51100000000E-03 0. -1.
    9900012    2    1    2    0    0 -0.31866421155E+02 -0.15268347797E+02  0.27937829612E+02  0.46142316910E+02  0.99999922381E+01 0.  0.
         12    1    1    2    0    0  0.31866421155E+02  0.15268347797E+02 -0.27937829612E+02  0.45045683090E+02  0.00000000000E+00 0. -1.
         11    1    3    3    0    0 -0.28568195769E+02 -0.12922069399E+02  0.24480218290E+02  0.39779426527E+02  0.51100000000E-03 0. -1.
        -11    1    3    3    0    0 -0.32024924057E+01 -0.11670193399E+01  0.38256640123E+01  0.51238264163E+01  0.51100000000E-03 0.  1.
         12    1    3    3    0    0 -0.95732980285E-01 -0.11792590583E+01 -0.36805269095E+00  0.12390639666E+01  0.00000000000E+00 0. -1.
</event>
<event>
 7    1  0.1503436E-008  0.4614232E+02  0.7816164E-02  0.1320468E+00
        -11   -1    0    0    0    0  0.00000000000E+00  0.00000000000E+00  0.45593999997E+02  0.45594000000E+02  0.51100000000E-03 0. -1.
         11   -1    0    0    0    0 -0.00000000000E+00 -0.00000000000E+00 -0.45593999997E+02  0.45594000000E+02  0.51100000000E-03 0.  1.
    9900012    2    1    2    0    0  0.34237798982E+02 -0.61003775717E+01 -0.28629912236E+02  0.46142319183E+02  0.10000012962E+02 0.  0.
         12    1    1    2    0    0 -0.34237798982E+02  0.61003775717E+01  0.28629912236E+02  0.45045680817E+02  0.00000000000E+00 0. -1.
         11    1    3    3    0    0  0.70828019880E+01 -0.85056329278E-01 -0.10875716303E+02  0.12979003195E+02  0.51100000000E-03 0. -1.
        -11    1    3    3    0    0  0.24062138066E+02 -0.42058623758E+01 -0.15425413906E+02  0.28889776065E+02  0.51100000000E-03 0.  1.
        -12    1    3    3    0    0  0.30928589281E+01 -0.18094588666E+01 -0.23287820272E+01  0.42735399225E+01  0.00000000000E+00 0.  1.
</event>
<event>
 7    1  0.1503436E-008  0.4614232E+02  0.7816164E-02  0.1320468E+00
        -11   -1    0    0    0    0  0.00000000000E+00  0.00000000000E+00  0.45593999997E+02  0.45594000000E+02  0.51100000000E-03 0.  1.
         11   -1    0    0    0    0 -0.00000000000E+00 -0.00000000000E+00 -0.45593999997E+02  0.45594000000E+02  0.51100000000E-03 0. -1.
    9900012    2    1    2    0    0  0.24662842055E+02  0.33084151543E+02  0.18063684128E+02  0.46142317124E+02  0.99999941872E+01 0.  0.
         12    1    1    2    0    0 -0.24662842055E+02 -0.33084151543E+02 -0.18063684128E+02  0.45045682876E+02  0.00000000000E+00 0. -1.
         11    1    3    3    0    0  0.13031197236E+02  0.10345953089E+02  0.68527211832E+01  0.17994739082E+02  0.51100000000E-03 0.  1.
        -11    1    3    3    0    0  0.59426259189E+01  0.10024106391E+02  0.70092136255E+01  0.13598771549E+02  0.51100000000E-03 0. -1.
         12    1    3    3    0    0  0.56890188996E+01  0.12714092063E+02  0.42017493188E+01  0.14548806493E+02  0.00000000000E+00 0. -1.
</event>
<event>
 7    1  0.1503436E-008  0.4614232E+02  0.7816164E-02  0.1320468E+00
        -11   -1    0    0    0    0  0.00000000000E+00  0.00000000000E+00  0.45593999997E+02  0.45594000000E+02  0.51100000000E-03 0.  1.
         11   -1    0    0    0    0 -0.00000000000E+00 -0.00000000000E+00 -0.45593999997E+02  0.45594000000E+02  0.51100000000E-03 0. -1.
    9900012    2    1    2    0    0 -0.18576015942E+02 -0.46948069947E+01  0.40767682269E+02  0.46142317648E+02  0.99999989685E+01 0.  0.
         12    1    1    2    0    0  0.18576015942E+02  0.46948069947E+01 -0.40767682269E+02  0.45045682352E+02  0.00000000000E+00 0. -1.
         11    1    3    3    0    0 -0.13770862130E+01 -0.99975798825E+00  0.11724928923E+02  0.11847777892E+02  0.51100000000E-03 0. -1.
        -11    1    3    3    0    0 -0.98550384233E+01 -0.32156069476E+01  0.20828760576E+02  0.23265837138E+02  0.51100000000E-03 0.  1.
         12    1    3    3    0    0 -0.73438913060E+01 -0.47944205880E+00  0.82139927703E+01  0.11028702618E+02  0.00000000000E+00 0. -1.
</event>
<event>
 7    1  0.1503436E-008  0.4614232E+02  0.7816164E-02  0.1320468E+00
        -11   -1    0    0    0    0  0.00000000000E+00  0.00000000000E+00  0.45593999997E+02  0.45594000000E+02  0.51100000000E-03 0.  1.
         11   -1    0    0    0    0 -0.00000000000E+00 -0.00000000000E+00 -0.45593999997E+02  0.45594000000E+02  0.51100000000E-03 0. -1.
    9900012    2    1    2    0    0  0.40786661195E+02 -0.91163770166E+01  0.16806343885E+02  0.46142320339E+02  0.10000023506E+02 0.  0.
         12    1    1    2    0    0 -0.40786661195E+02  0.91163770166E+01 -0.16806343885E+02  0.45045679661E+02  0.00000000000E+00 0. -1.
         11    1    3    3    0    0  0.14401712349E+02 -0.67172700304E+01  0.60075462113E+01  0.16988868326E+02  0.51100000000E-03 0. -1.
        -11    1    3    3    0    0  0.10166819296E+02 -0.23035707670E+00  0.70292932743E+01  0.12362372069E+02  0.51100000000E-03 0.  1.
         12    1    3    3    0    0  0.16218129550E+02 -0.21687499095E+01  0.37695043999E+01  0.16791079944E+02  0.00000000000E+00 0. -1.
</event>
<event>
 7    1  0.1503436E-008  0.4614232E+02  0.7816164E-02  0.1320468E+00
        -11   -1    0    0    0    0  0.00000000000E+00  0.00000000000E+00  0.45593999997E+02  0.45594000000E+02  0.51100000000E-03 0. -1.
         11   -1    0    0    0    0 -0.00000000000E+00 -0.00000000000E+00 -0.45593999997E+02  0.45594000000E+02  0.51100000000E-03 0.  1.
    9900012    2    1    2    0    0 -0.77431762978E+01  0.43640723845E+02 -0.80401459809E+01  0.46142317585E+02  0.99999983919E+01 0.  0.
         12    1    1    2    0    0  0.77431762978E+01 -0.43640723845E+02  0.80401459809E+01  0.45045682415E+02  0.00000000000E+00 0. -1.
         11    1    3    3    0    0 -0.63555900571E+01  0.12587752647E+02 -0.10690536649E+01  0.14141708442E+02  0.51100000000E-03 0. -1.
        -11    1    3    3    0    0 -0.19301234535E+01  0.20466048050E+02 -0.35478067592E+01  0.20860762986E+02  0.51100000000E-03 0.  1.
        -12    1    3    3    0    0  0.54253721288E+00  0.10586923148E+02 -0.34232855567E+01  0.11139846156E+02  0.00000000000E+00 0.  1.
</event>
<event>
 7    1  0.1503436E-008  0.4614232E+02  0.7816164E-02  0.1320468E+00
        -11   -1    0    0    0    0  0.00000000000E+00  0.00000000000E+00  0.45593999997E+02  0.45594000000E+02  0.51100000000E-03 0.  1.
         11   -1    0    0    0    0 -0.00000000000E+00 -0.00000000000E+00 -0.45593999997E+02  0.45594000000E+02  0.51100000000E-03 0. -1.
    9900012    2    1    2    0    0 -0.44785923330E+02 -0.46598033187E+01 -0.12730340262E+01  0.46142319729E+02  0.10000017943E+02 0.  0.
         12    1    1    2    0    0  0.44785923330E+02  0.46598033187E+01  0.12730340262E+01  0.45045680271E+02  0.00000000000E+00 0. -1.
         11    1    3    3    0    0 -0.20461680078E+02  0.84185447855E+00 -0.33461324879E+01  0.20750558389E+02  0.51100000000E-03 0. -1.
        -11    1    3    3    0    0 -0.95052353372E+01 -0.98076698202E+00 -0.96200923101E+00  0.96040025359E+01  0.51100000000E-03 0.  1.
         12    1    3    3    0    0 -0.14819007915E+02 -0.45208908153E+01  0.30351076927E+01  0.15787758804E+02  0.00000000000E+00 0. -1.
</event>
<event>
 7    1  0.1503436E-008  0.4614232E+02  0.7816164E-02  0.1320468E+00
        -11   -1    0    0    0    0  0.00000000000E+00  0.00000000000E+00  0.45593999997E+02  0.45594000000E+02  0.51100000000E-03 0.  1.
         11   -1    0    0    0    0 -0.00000000000E+00 -0.00000000000E+00 -0.45593999997E+02  0.45594000000E+02  0.51100000000E-03 0. -1.
    9900012    2    1    2    0    0  0.14841367852E+01 -0.41900621159E+00  0.45019276371E+02  0.46142317930E+02  0.10000001536E+02 0.  0.
         12    1    1    2    0    0 -0.14841367852E+01  0.41900621159E+00 -0.45019276371E+02  0.45045682070E+02  0.00000000000E+00 0. -1.
         11    1    3    3    0    0  0.40783458858E+01  0.98358875435E-01  0.20928573317E+02  0.21322470799E+02  0.51100000000E-03 0. -1.
        -11    1    3    3    0    0  0.11803405372E+00  0.97318352624E+00  0.17618667668E+02  0.17645919327E+02  0.51100000000E-03 0.  1.
         12    1    3    3    0    0 -0.27122431544E+01 -0.14905486133E+01  0.64720353863E+01  0.71739278041E+01  0.00000000000E+00 0. -1.
</event>
<event>
 7    1  0.1503436E-008  0.4614232E+02  0.7816164E-02  0.1320468E+00
        -11   -1    0    0    0    0  0.00000000000E+00  0.00000000000E+00  0.45593999997E+02  0.45594000000E+02  0.51100000000E-03 0.  1.
         11   -1    0    0    0    0 -0.00000000000E+00 -0.00000000000E+00 -0.45593999997E+02  0.45594000000E+02  0.51100000000E-03 0. -1.
    9900012    2    1    2    0    0  0.16448815763E+02  0.84418423429E+01  0.41076577951E+02  0.46142317650E+02  0.99999989892E+01 0.  0.
         12    1    1    2    0    0 -0.16448815763E+02 -0.84418423429E+01 -0.41076577951E+02  0.45045682350E+02  0.00000000000E+00 0. -1.
         11    1    3    3    0    0  0.83478472893E+01  0.41985719939E+01  0.17418528899E+02  0.19766631236E+02  0.51100000000E-03 0. -1.
        -11    1    3    3    0    0  0.49597403069E+01  0.38046754733E+01  0.68600847085E+01  0.92809127697E+01  0.51100000000E-03 0.  1.
        -12    1    3    3    0    0  0.31412281673E+01  0.43859487573E+00  0.16797964344E+02  0.17094773645E+02  0.00000000000E+00 0.  1.
</event>
<event>
 7    1  0.1503436E-008  0.4614232E+02  0.7816164E-02  0.1320468E+00
        -11   -1    0    0    0    0  0.00000000000E+00  0.00000000000E+00  0.45593999997E+02  0.45594000000E+02  0.51100000000E-03 0.  1.
         11   -1    0    0    0    0 -0.00000000000E+00 -0.00000000000E+00 -0.45593999997E+02  0.45594000000E+02  0.51100000000E-03 0. -1.
    9900012    2    1    2    0    0 -0.43610261358E+02  0.83906482826E+01  0.75402664486E+01  0.46142317716E+02  0.99999995900E+01 0.  0.
         12    1    1    2    0    0  0.43610261358E+02 -0.83906482826E+01 -0.75402664486E+01  0.45045682284E+02  0.00000000000E+00 0. -1.
         11    1    3    3    0    0 -0.11107199459E+02 -0.14625285571E+01  0.40432050821E+01  0.11910347485E+02  0.51100000000E-03 0. -1.
        -11    1    3    3    0    0 -0.44576323433E+00  0.25710177441E+00  0.34835373111E+00  0.62141513224E+00  0.51100000000E-03 0.  1.
         12    1    3    3    0    0 -0.32057298664E+02  0.95960750652E+01  0.31487076354E+01  0.33610555099E+02  0.00000000000E+00 0. -1.
</event>
<event>
 7    1  0.1503436E-008  0.4614232E+02  0.7816164E-02  0.1320468E+00
        -11   -1    0    0    0    0  0.00000000000E+00  0.00000000000E+00  0.45593999997E+02  0.45594000000E+02  0.51100000000E-03 0.  1.
         11   -1    0    0    0    0 -0.00000000000E+00 -0.00000000000E+00 -0.45593999997E+02  0.45594000000E+02  0.51100000000E-03 0. -1.
    9900012    2    1    2    0    0  0.11194952372E+02 -0.21400390327E+02  0.38023806088E+02  0.46142317696E+02  0.99999994097E+01 0.  0.
         12    1    1    2    0    0 -0.11194952372E+02  0.21400390327E+02 -0.38023806088E+02  0.45045682304E+02  0.00000000000E+00 0. -1.
         11    1    3    3    0    0  0.46866440199E+01 -0.14617462704E+02  0.29040002183E+02  0.32847474410E+02  0.51100000000E-03 0. -1.
        -11    1    3    3    0    0  0.14553634728E+01 -0.33558421368E+01  0.39320739008E+01  0.53703784511E+01  0.51100000000E-03 0.  1.
         12    1    3    3    0    0  0.50529448796E+01 -0.34270854862E+01  0.50517300041E+01  0.79244648350E+01  0.00000000000E+00 0. -1.
</event>
<event>
 7    1  0.1503436E-008  0.4614232E+02  0.7816164E-02  0.1320468E+00
        -11   -1    0    0    0    0  0.00000000000E+00  0.00000000000E+00  0.45593999997E+02  0.45594000000E+02  0.51100000000E-03 0.  1.
         11   -1    0    0    0    0 -0.00000000000E+00 -0.00000000000E+00 -0.45593999997E+02  0.45594000000E+02  0.51100000000E-03 0. -1.
    9900012    2    1    2    0    0 -0.25838772841E+02 -0.84144178571E+01  0.35925873943E+02  0.46142322867E+02  0.10000046563E+02 0.  0.
         12    1    1    2    0    0  0.25838772841E+02  0.84144178571E+01 -0.35925873943E+02  0.45045677133E+02  0.00000000000E+00 0. -1.
         11    1    3    3    0    0 -0.10395082568E+02 -0.28363161796E+01  0.17489311332E+02  0.20542113869E+02  0.51100000000E-03 0. -1.
        -11    1    3    3    0    0 -0.11103617097E+02 -0.59571710008E+01  0.16675899246E+02  0.20901287398E+02  0.51100000000E-03 0.  1.
         12    1    3    3    0    0 -0.43400731760E+01  0.37906932334E+00  0.17606633641E+01  0.46989216004E+01  0.00000000000E+00 0. -1.
</event>
<event>
 7    1  0.1503436E-008  0.4614232E+02  0.7816164E-02  0.1320468E+00
        -11   -1    0    0    0    0  0.00000000000E+00  0.00000000000E+00  0.45593999997E+02  0.45594000000E+02  0.51100000000E-03 0.  1.
         11   -1    0    0    0    0 -0.00000000000E+00 -0.00000000000E+00 -0.45593999997E+02  0.45594000000E+02  0.51100000000E-03 0. -1.
    9900012    2    1    2    0    0 -0.14778942135E+02 -0.15966354115E+02  0.39443276680E+02  0.46142315749E+02  0.99999816561E+01 0.  0.
         12    1    1    2    0    0  0.14778942135E+02  0.15966354115E+02 -0.39443276680E+02  0.45045684251E+02  0.00000000000E+00 0. -1.
         11    1    3    3    0    0 -0.24045002427E+01 -0.56019168193E+01  0.17161549957E+02  0.18212135807E+02  0.51100000000E-03 0. -1.
        -11    1    3    3    0    0 -0.61232752994E+01 -0.74482512987E+01  0.10330654837E+02  0.14131290720E+02  0.51100000000E-03 0.  1.
         12    1    3    3    0    0 -0.62511665924E+01 -0.29161859966E+01  0.11951071886E+02  0.13798889222E+02  0.00000000000E+00 0. -1.
</event>
<event>
 7    1  0.1503436E-008  0.4614232E+02  0.7816164E-02  0.1320468E+00
        -11   -1    0    0    0    0  0.00000000000E+00  0.00000000000E+00  0.45593999997E+02  0.45594000000E+02  0.51100000000E-03 0.  1.
         11   -1    0    0    0    0 -0.00000000000E+00 -0.00000000000E+00 -0.45593999997E+02  0.45594000000E+02  0.51100000000E-03 0. -1.
    9900012    2    1    2    0    0  0.30372968494E+02 -0.32052569490E+02  0.89010718792E+01  0.46142317559E+02  0.99999981546E+01 0.  0.
         12    1    1    2    0    0 -0.30372968494E+02  0.32052569490E+02 -0.89010718792E+01  0.45045682441E+02  0.00000000000E+00 0. -1.
         11    1    3    3    0    0  0.47552357491E+01 -0.53935822095E+01 -0.91511108529E+00  0.72484774015E+01  0.51100000000E-03 0. -1.
        -11    1    3    3    0    0  0.19859936681E+02 -0.16329320352E+02  0.80149526178E+01  0.26931454730E+02  0.51100000000E-03 0.  1.
         12    1    3    3    0    0  0.57577960631E+01 -0.10329666928E+02  0.18012303467E+01  0.11962385427E+02  0.00000000000E+00 0. -1.
</event>
<event>
 7    1  0.1503436E-008  0.4614232E+02  0.7816164E-02  0.1320468E+00
        -11   -1    0    0    0    0  0.00000000000E+00  0.00000000000E+00  0.45593999997E+02  0.45594000000E+02  0.51100000000E-03 0.  1.
         11   -1    0    0    0    0 -0.00000000000E+00 -0.00000000000E+00 -0.45593999997E+02  0.45594000000E+02  0.51100000000E-03 0. -1.
    9900012    2    1    2    0    0  0.27831512468E+02 -0.16548055439E+02  0.31315845899E+02  0.46142318415E+02  0.10000005967E+02 0.  0.
         12    1    1    2    0    0 -0.27831512468E+02  0.16548055439E+02 -0.31315845899E+02  0.45045681585E+02  0.00000000000E+00 0. -1.
         11    1    3    3    0    0  0.48063788644E+01 -0.60206878038E+01  0.45036666577E+01  0.89237308926E+01  0.51100000000E-03 0. -1.
        -11    1    3    3    0    0  0.19559761297E+02 -0.10681462963E+02  0.24012520752E+02  0.32760938115E+02  0.51100000000E-03 0.  1.
         12    1    3    3    0    0  0.34653723062E+01  0.15409532742E+00  0.27996584887E+01  0.44576494079E+01  0.00000000000E+00 0. -1.
</event>
<event>
 7    1  0.1503436E-008  0.4614232E+02  0.7816164E-02  0.1320468E+00
        -11   -1    0    0    0    0  0.00000000000E+00  0.00000000000E+00  0.45593999997E+02  0.45594000000E+02  0.51100000000E-03 0.  1.
         11   -1    0    0    0    0 -0.00000000000E+00 -0.00000000000E+00 -0.45593999997E+02  0.45594000000E+02  0.51100000000E-03 0. -1.
    9900012    2    1    2    0    0 -0.42265268272E+02  0.33118434874E+01  0.15224724017E+02  0.46142318400E+02  0.10000005824E+02 0.  0.
         12    1    1    2    0    0  0.42265268272E+02 -0.33118434874E+01 -0.15224724017E+02  0.45045681600E+02  0.00000000000E+00 0. -1.
         11    1    3    3    0    0 -0.48753528577E+01  0.17463191329E+01  0.17214306829E+01  0.54572905235E+01  0.51100000000E-03 0. -1.
        -11    1    3    3    0    0 -0.12559254534E+02 -0.26821484149E+01  0.71754435662E+01  0.14711076956E+02  0.51100000000E-03 0.  1.
        -12    1    3    3    0    0 -0.24830660881E+02  0.42476727693E+01  0.63278497679E+01  0.25973950921E+02  0.00000000000E+00 0.  1.
</event>
<event>
 7    1  0.1503436E-008  0.4614232E+02  0.7816164E-02  0.1320468E+00
        -11   -1    0    0    0    0  0.00000000000E+00  0.00000000000E+00  0.45593999997E+02  0.45594000000E+02  0.51100000000E-03 0.  1.
         11   -1    0    0    0    0 -0.00000000000E+00 -0.00000000000E+00 -0.45593999997E+02  0.45594000000E+02  0.51100000000E-03 0. -1.
    9900012    2    1    2    0    0  0.26324125189E+02  0.31160295300E+02  0.19109931451E+02  0.46142322625E+02  0.10000044350E+02 0.  0.
         12    1    1    2    0    0 -0.26324125189E+02 -0.31160295300E+02 -0.19109931451E+02  0.45045677375E+02  0.00000000000E+00 0. -1.
         11    1    3    3    0    0  0.52360008399E+01  0.34243160363E+01  0.14129926076E+01  0.64139062577E+01  0.51100000000E-03 0. -1.
        -11    1    3    3    0    0  0.13238430420E+02  0.20649102127E+02  0.15219818587E+02  0.28866664800E+02  0.51100000000E-03 0.  1.
        -12    1    3    3    0    0  0.78496939285E+01  0.70868771370E+01  0.24771202569E+01  0.10861751567E+02  0.00000000000E+00 0.  1.
</event>
<event>
 7    1  0.1503436E-008  0.4614232E+02  0.7816164E-02  0.1320468E+00
        -11   -1    0    0    0    0  0.00000000000E+00  0.00000000000E+00  0.45593999997E+02  0.45594000000E+02  0.51100000000E-03 0.  1.
         11   -1    0    0    0    0 -0.00000000000E+00 -0.00000000000E+00 -0.45593999997E+02  0.45594000000E+02  0.51100000000E-03 0. -1.
    9900012    2    1    2    0    0  0.11896719362E+02 -0.42651227111E+02 -0.82737144765E+01  0.46142318111E+02  0.10000003189E+02 0.  0.
         12    1    1    2    0    0 -0.11896719362E+02  0.42651227111E+02  0.82737144765E+01  0.45045681889E+02  0.00000000000E+00 0. -1.
         11    1    3    3    0    0  0.20749364144E+01 -0.11528699992E+02 -0.28181140939E+01  0.12048155541E+02  0.51100000000E-03 0.  1.
        -11    1    3    3    0    0  0.30364581868E+01 -0.20706527925E+02 -0.55922175766E+01  0.21662254609E+02  0.51100000000E-03 0. -1.
        -12    1    3    3    0    0  0.67853247603E+01 -0.10415999193E+02  0.13661719404E+00  0.12431907961E+02  0.00000000000E+00 0.  1.
</event>
<event>
 7    1  0.1503436E-008  0.4614232E+02  0.7816164E-02  0.1320468E+00
        -11   -1    0    0    0    0  0.00000000000E+00  0.00000000000E+00  0.45593999997E+02  0.45594000000E+02  0.51100000000E-03 0.  1.
         11   -1    0    0    0    0 -0.00000000000E+00 -0.00000000000E+00 -0.45593999997E+02  0.45594000000E+02  0.51100000000E-03 0. -1.
    9900012    2    1    2    0    0 -0.26047226185E+02 -0.19738256245E+01  0.36698222552E+02  0.46142317432E+02  0.99999970010E+01 0.  0.
         12    1    1    2    0    0  0.26047226185E+02  0.19738256245E+01 -0.36698222552E+02  0.45045682568E+02  0.00000000000E+00 0. -1.
         11    1    3    3    0    0 -0.70806126197E+00 -0.11254617954E+01 -0.11983210936E-01  0.13297213476E+01  0.51100000000E-03 0. -1.
        -11    1    3    3    0    0 -0.16373492538E+02 -0.68780985117E+00  0.20076855977E+02  0.25916104771E+02  0.51100000000E-03 0.  1.
         12    1    3    3    0    0 -0.89656723847E+01 -0.16055397790E+00  0.16633349786E+02  0.18896491314E+02  0.00000000000E+00 0. -1.
</event>
<event>
 7    1  0.1503436E-008  0.4614232E+02  0.7816164E-02  0.1320468E+00
        -11   -1    0    0    0    0  0.00000000000E+00  0.00000000000E+00  0.45593999997E+02  0.45594000000E+02  0.51100000000E-03 0.  1.
         11   -1    0    0    0    0 -0.00000000000E+00 -0.00000000000E+00 -0.45593999997E+02  0.45594000000E+02  0.51100000000E-03 0. -1.
    9900012    2    1    2    0    0  0.31503815998E+02 -0.31164485745E+02  0.80868960722E+01  0.46142317829E+02  0.10000000618E+02 0.  0.
         12    1    1    2    0    0 -0.31503815998E+02  0.31164485745E+02 -0.80868960722E+01  0.45045682171E+02  0.00000000000E+00 0. -1.
         11    1    3    3    0    0  0.21092294305E+02 -0.21805112893E+02  0.24882175135E+01  0.30439104028E+02  0.51100000000E-03 0. -1.
        -11    1    3    3    0    0  0.48560682838E+01 -0.21630530616E+01  0.65908577132E+00  0.53567333366E+01  0.51100000000E-03 0.  1.
         12    1    3    3    0    0  0.55554534084E+01 -0.71963197903E+01  0.49395927873E+01  0.10346480464E+02  0.00000000000E+00 0. -1.
</event>
<event>
 7    1  0.1503436E-008  0.4614232E+02  0.7816164E-02  0.1320468E+00
        -11   -1    0    0    0    0  0.00000000000E+00  0.00000000000E+00  0.45593999997E+02  0.45594000000E+02  0.51100000000E-03 0.  1.
         11   -1    0    0    0    0 -0.00000000000E+00 -0.00000000000E+00 -0.45593999997E+02  0.45594000000E+02  0.51100000000E-03 0. -1.
    9900012    2    1    2    0    0  0.42664288649E+02 -0.13643133142E+02  0.47683199656E+01  0.46142317819E+02  0.10000000527E+02 0.  0.
         12    1    1    2    0    0 -0.42664288649E+02  0.13643133142E+02 -0.47683199656E+01  0.45045682181E+02  0.00000000000E+00 0. -1.
         11    1    3    3    0    0  0.68116314426E+00  0.86646805446E+00 -0.41547961685E+00  0.11778682828E+01  0.51100000000E-03 0. -1.
        -11    1    3    3    0    0  0.10500020751E+02 -0.49044187641E+01  0.30290350190E+01  0.11978264172E+02  0.51100000000E-03 0.  1.
         12    1    3    3    0    0  0.31483104754E+02 -0.96051824324E+01  0.21547645635E+01  0.32986185364E+02  0.00000000000E+00 0. -1.
</event>
<event>
 7    1  0.1594987E-008  0.4614232E+02  0.7816164E-02  0.1320468E+00
        -11   -1    0    0    0    0  0.00000000000E+00  0.00000000000E+00  0.45593999997E+02  0.45594000000E+02  0.51100000000E-03 0. -1.
         11   -1    0    0    0    0 -0.00000000000E+00 -0.00000000000E+00 -0.45593999997E+02  0.45594000000E+02  0.51100000000E-03 0.  1.
    9900012    2    1    2    0    0 -0.12451887341E+02  0.42991689385E+02 -0.50772694089E+01  0.46142317419E+02  0.99999968814E+01 0.  0.
         12    1    1    2    0    0  0.12451887341E+02 -0.42991689385E+02  0.50772694089E+01  0.45045682581E+02  0.00000000000E+00 0. -1.
         11    1    3    3    0    0 -0.11180376756E+01  0.42318128730E+00 -0.25128545635E+00  0.12215708279E+01  0.51100000000E-03 0. -1.
        -11    1    3    3    0    0 -0.58041974920E+01  0.25496648072E+02 -0.63567144778E+01  0.26910510784E+02  0.51100000000E-03 0.  1.
        -12    1    3    3    0    0 -0.55296521738E+01  0.17071860025E+02  0.15307305252E+01  0.18010235807E+02  0.00000000000E+00 0.  1.
</event>
<event>
 7    1  0.1503436E-008  0.4614232E+02  0.7816164E-02  0.1320468E+00
        -11   -1    0    0    0    0  0.00000000000E+00  0.00000000000E+00  0.45593999997E+02  0.45594000000E+02  0.51100000000E-03 0. -1.
         11   -1    0    0    0    0 -0.00000000000E+00 -0.00000000000E+00 -0.45593999997E+02  0.45594000000E+02  0.51100000000E-03 0.  1.
    9900012    2    1    2    0    0 -0.26156667503E+02  0.46657033575E+01 -0.36375448504E+02  0.46142319890E+02  0.10000019417E+02 0.  0.
         12    1    1    2    0    0  0.26156667503E+02 -0.46657033575E+01  0.36375448504E+02  0.45045680110E+02  0.00000000000E+00 0. -1.
         11    1    3    3    0    0 -0.40347499317E+01 -0.18732079028E+01 -0.30802091185E+01  0.54107119063E+01  0.51100000000E-03 0. -1.
        -11    1    3    3    0    0 -0.15818977705E+02  0.61412846072E+01 -0.26379377864E+02  0.31366016786E+02  0.51100000000E-03 0.  1.
         12    1    3    3    0    0 -0.63029398665E+01  0.39762665310E+00 -0.69158615214E+01  0.93655911986E+01  0.00000000000E+00 0. -1.
</event>
<event>
 7    1  0.1503436E-008  0.4614232E+02  0.7816164E-02  0.1320468E+00
        -11   -1    0    0    0    0  0.00000000000E+00  0.00000000000E+00  0.45593999997E+02  0.45594000000E+02  0.51100000000E-03 0.  1.
         11   -1    0    0    0    0 -0.00000000000E+00 -0.00000000000E+00 -0.45593999997E+02  0.45594000000E+02  0.51100000000E-03 0. -1.
    9900012    2    1    2    0    0  0.29828439579E+02  0.18012772750E+02  0.28546763039E+02  0.46142317967E+02  0.10000001875E+02 0.  0.
         12    1    1    2    0    0 -0.29828439579E+02 -0.18012772750E+02 -0.28546763039E+02  0.45045682033E+02  0.00000000000E+00 0. -1.
         11    1    3    3    0    0  0.57335809240E+01  0.70107113072E+01  0.10656886126E+02  0.13985465505E+02  0.51100000000E-03 0. -1.
        -11    1    3    3    0    0  0.61747375734E+01  0.45272855322E+01  0.55386834228E+01  0.94499054339E+01  0.51100000000E-03 0.  1.
         12    1    3    3    0    0  0.17920121082E+02  0.64747759106E+01  0.12351193490E+02  0.22706947027E+02  0.00000000000E+00 0. -1.
</event>
<event>
 7    1  0.1503436E-008  0.4614232E+02  0.7816164E-02  0.1320468E+00
        -11   -1    0    0    0    0  0.00000000000E+00  0.00000000000E+00  0.45593999997E+02  0.45594000000E+02  0.51100000000E-03 0.  1.
         11   -1    0    0    0    0 -0.00000000000E+00 -0.00000000000E+00 -0.45593999997E+02  0.45594000000E+02  0.51100000000E-03 0. -1.
    9900012    2    1    2    0    0 -0.33198785775E+02  0.89335429313E+01  0.29105773116E+02  0.46142316578E+02  0.99999892111E+01 0.  0.
         12    1    1    2    0    0  0.33198785775E+02 -0.89335429313E+01 -0.29105773116E+02  0.45045683422E+02  0.00000000000E+00 0. -1.
         11    1    3    3    0    0 -0.16524910182E+02  0.22144082611E+01  0.11100985581E+02  0.20030180768E+02  0.51100000000E-03 0. -1.
        -11    1    3    3    0    0 -0.84948058761E+01  0.98006983517E+00  0.10890294867E+02  0.13846327539E+02  0.51100000000E-03 0.  1.
        -12    1    3    3    0    0 -0.81790697166E+01  0.57390648350E+01  0.71144926689E+01  0.12265808271E+02  0.00000000000E+00 0.  1.
</event>
<event>
 7    1  0.1503436E-008  0.4614232E+02  0.7816164E-02  0.1320468E+00
        -11   -1    0    0    0    0  0.00000000000E+00  0.00000000000E+00  0.45593999997E+02  0.45594000000E+02  0.51100000000E-03 0. -1.
         11   -1    0    0    0    0 -0.00000000000E+00 -0.00000000000E+00 -0.45593999997E+02  0.45594000000E+02  0.51100000000E-03 0.  1.
    9900012    2    1    2    0    0 -0.30141967686E+02 -0.30154773756E+02 -0.14534936098E+02  0.46142323586E+02  0.10000053115E+02 0.  0.
         12    1    1    2    0    0  0.30141967686E+02  0.30154773756E+02  0.14534936098E+02  0.45045676414E+02  0.00000000000E+00 0. -1.
         11    1    3    3    0    0 -0.13146056172E+01 -0.37741130921E+00  0.94730564283E+00  0.16637353958E+01  0.51100000000E-03 0. -1.
        -11    1    3    3    0    0 -0.20712648283E+02 -0.23586798130E+02 -0.12992379810E+02  0.33972824115E+02  0.51100000000E-03 0.  1.
        -12    1    3    3    0    0 -0.81147137850E+01 -0.61905643169E+01 -0.24898619304E+01  0.10505764075E+02  0.00000000000E+00 0.  1.
</event>
<event>
 7    1  0.1503436E-008  0.4614232E+02  0.7816164E-02  0.1320468E+00
        -11   -1    0    0    0    0  0.00000000000E+00  0.00000000000E+00  0.45593999997E+02  0.45594000000E+02  0.51100000000E-03 0.  1.
         11   -1    0    0    0    0 -0.00000000000E+00 -0.00000000000E+00 -0.45593999997E+02  0.45594000000E+02  0.51100000000E-03 0. -1.
    9900012    2    1    2    0    0  0.25646086501E+02 -0.17535725659E+02  0.32617327697E+02  0.46142317706E+02  0.99999995005E+01 0.  0.
         12    1    1    2    0    0 -0.25646086501E+02  0.17535725659E+02 -0.32617327697E+02  0.45045682294E+02  0.00000000000E+00 0. -1.
         11    1    3    3    0    0  0.32019286976E+01 -0.50993769269E+01  0.67755109791E+01  0.90644107209E+01  0.51100000000E-03 0. -1.
        -11    1    3    3    0    0  0.11792399956E+02 -0.83103108440E+01  0.10025639367E+02  0.17568022313E+02  0.51100000000E-03 0.  1.
        -12    1    3    3    0    0  0.10651757848E+02 -0.41260378879E+01  0.15816177352E+02  0.19509884672E+02  0.00000000000E+00 0.  1.
</event>
<event>
 7    1  0.1503436E-008  0.4614232E+02  0.7816164E-02  0.1320468E+00
        -11   -1    0    0    0    0  0.00000000000E+00  0.00000000000E+00  0.45593999997E+02  0.45594000000E+02  0.51100000000E-03 0.  1.
         11   -1    0    0    0    0 -0.00000000000E+00 -0.00000000000E+00 -0.45593999997E+02  0.45594000000E+02  0.51100000000E-03 0. -1.
    9900012    2    1    2    0    0  0.26551365494E+02  0.27393551426E+02  0.23952698450E+02  0.46142318383E+02  0.10000005669E+02 0.  0.
         12    1    1    2    0    0 -0.26551365494E+02 -0.27393551426E+02 -0.23952698450E+02  0.45045681617E+02  0.00000000000E+00 0. -1.
         11    1    3    3    0    0  0.97870196449E+00  0.13122350541E+01  0.33415339197E+01  0.37209766957E+01  0.51100000000E-03 0. -1.
        -11    1    3    3    0    0  0.20921579424E+02  0.23820205090E+02  0.19186162229E+02  0.37057030068E+02  0.51100000000E-03 0.  1.
        -12    1    3    3    0    0  0.46510841061E+01  0.22611112815E+01  0.14250023013E+01  0.53643116192E+01  0.00000000000E+00 0.  1.
</event>
<event>
 7    1  0.1503436E-008  0.4614232E+02  0.7816164E-02  0.1320468E+00
        -11   -1    0    0    0    0  0.00000000000E+00  0.00000000000E+00  0.45593999997E+02  0.45594000000E+02  0.51100000000E-03 0.  1.
         11   -1    0    0    0    0 -0.00000000000E+00 -0.00000000000E+00 -0.45593999997E+02  0.45594000000E+02  0.51100000000E-03 0. -1.
    9900012    2    1    2    0    0 -0.43271154553E+02 -0.79169520815E+01 -0.96975487464E+01  0.46142318760E+02  0.10000009113E+02 0.  0.
         12    1    1    2    0    0  0.43271154553E+02  0.79169520815E+01  0.96975487464E+01  0.45045681240E+02  0.00000000000E+00 0. -1.
         11    1    3    3    0    0 -0.12882911097E+02 -0.45864385461E+01  0.98176111737E+00  0.13710166739E+02  0.51100000000E-03 0. -1.
        -11    1    3    3    0    0 -0.25035805264E+02 -0.34311725912E+01 -0.87625493423E+01  0.26745967206E+02  0.51100000000E-03 0.  1.
         12    1    3    3    0    0 -0.53524381925E+01  0.10065905585E+00 -0.19167605215E+01  0.56861848147E+01  0.00000000000E+00 0. -1.
</event>
<event>
 7    1  0.1503436E-008  0.4614232E+02  0.7816164E-02  0.1320468E+00
        -11   -1    0    0    0    0  0.00000000000E+00  0.00000000000E+00  0.45593999997E+02  0.45594000000E+02  0.51100000000E-03 0.  1.
         11   -1    0    0    0    0 -0.00000000000E+00 -0.00000000000E+00 -0.45593999997E+02  0.45594000000E+02  0.51100000000E-03 0. -1.
    9900012    2    1    2    0    0 -0.88956264315E+01 -0.37665243552E+02  0.23050176847E+02  0.46142318808E+02  0.10000009544E+02 0.  0.
         12    1    1    2    0    0  0.88956264315E+01  0.37665243552E+02 -0.23050176847E+02  0.45045681192E+02  0.00000000000E+00 0. -1.
         11    1    3    3    0    0 -0.29300937910E+01 -0.24320405840E+01  0.39317237947E+01  0.54734562467E+01  0.51100000000E-03 0. -1.
        -11    1    3    3    0    0 -0.56201078384E+01 -0.34399005254E+02  0.19142373840E+02  0.39765659193E+02  0.51100000000E-03 0.  1.
         12    1    3    3    0    0 -0.34542480209E+00 -0.83419771369E+00 -0.23920788169E-01  0.90320336776E+00  0.00000000000E+00 0. -1.
</event>
<event>
 7    1  0.1503436E-008  0.4614232E+02  0.7816164E-02  0.1320468E+00
        -11   -1    0    0    0    0  0.00000000000E+00  0.00000000000E+00  0.45593999997E+02  0.45594000000E+02  0.51100000000E-03 0. -1.
         11   -1    0    0    0    0 -0.00000000000E+00 -0.00000000000E+00 -0.45593999997E+02  0.45594000000E+02  0.51100000000E-03 0.  1.
    9900012    2    1    2    0    0 -0.11674955297E+02  0.26714313016E+02 -0.34338817212E+02  0.46142317980E+02  0.10000001997E+02 0.  0.
         12    1    1    2    0    0  0.11674955297E+02 -0.26714313016E+02  0.34338817212E+02  0.45045682020E+02  0.00000000000E+00 0. -1.
         11    1    3    3    0    0 -0.11452149014E+01  0.93570597404E+01 -0.14584076556E+02  0.17365522550E+02  0.51100000000E-03 0.  1.
        -11    1    3    3    0    0 -0.10750871554E+01  0.26640471383E+00 -0.24224755369E+01  0.26636763788E+01  0.51100000000E-03 0. -1.
        -12    1    3    3    0    0 -0.94546532406E+01  0.17090848562E+02 -0.17332265119E+02  0.26113119052E+02  0.00000000000E+00 0.  1.
</event>
<event>
 7    1  0.1503436E-008  0.4614232E+02  0.7816164E-02  0.1320468E+00
        -11   -1    0    0    0    0  0.00000000000E+00  0.00000000000E+00  0.45593999997E+02  0.45594000000E+02  0.51100000000E-03 0.  1.
         11   -1    0    0    0    0 -0.00000000000E+00 -0.00000000000E+00 -0.45593999997E+02  0.45594000000E+02  0.51100000000E-03 0. -1.
    9900012    2    1    2    0    0  0.80765547279E+01  0.22969854038E+02  0.37898134481E+02  0.46142317322E+02  0.99999959978E+01 0.  0.
         12    1    1    2    0    0 -0.80765547279E+01 -0.22969854038E+02 -0.37898134481E+02  0.45045682678E+02  0.00000000000E+00 0. -1.
         11    1    3    3    0    0  0.62900520067E+01  0.15812401755E+02  0.31490447187E+02  0.35794483763E+02  0.51100000000E-03 0.  1.
        -11    1    3    3    0    0  0.21982681718E+01  0.69640840863E+01  0.49538370861E+01  0.88244746162E+01  0.51100000000E-03 0. -1.
        -12    1    3    3    0    0 -0.41176545055E+00  0.19336819680E+00  0.14538502071E+01  0.15233589435E+01  0.00000000000E+00 0.  1.
</event>
<event>
 7    1  0.1503436E-008  0.4614232E+02  0.7816164E-02  0.1320468E+00
        -11   -1    0    0    0    0  0.00000000000E+00  0.00000000000E+00  0.45593999997E+02  0.45594000000E+02  0.51100000000E-03 0.  1.
         11   -1    0    0    0    0 -0.00000000000E+00 -0.00000000000E+00 -0.45593999997E+02  0.45594000000E+02  0.51100000000E-03 0. -1.
    9900012    2    1    2    0    0 -0.10677707249E+02  0.17883604355E+02  0.39940915969E+02  0.46142317573E+02  0.99999982885E+01 0.  0.
         12    1    1    2    0    0  0.10677707249E+02 -0.17883604355E+02 -0.39940915969E+02  0.45045682427E+02  0.00000000000E+00 0. -1.
         11    1    3    3    0    0 -0.75987073040E+01  0.49026509178E+01  0.14452478155E+02  0.17048473943E+02  0.51100000000E-03 0. -1.
        -11    1    3    3    0    0 -0.91104098346E+00  0.47602602991E+01  0.13903650921E+02  0.14724183610E+02  0.51100000000E-03 0.  1.
         12    1    3    3    0    0 -0.21679589615E+01  0.82206931386E+01  0.11584786893E+02  0.14369660021E+02  0.00000000000E+00 0. -1.
</event>
<event>
 7    1  0.1503436E-008  0.4614232E+02  0.7816164E-02  0.1320468E+00
        -11   -1    0    0    0    0  0.00000000000E+00  0.00000000000E+00  0.45593999997E+02  0.45594000000E+02  0.51100000000E-03 0.  1.
         11   -1    0    0    0    0 -0.00000000000E+00 -0.00000000000E+00 -0.45593999997E+02  0.45594000000E+02  0.51100000000E-03 0. -1.
    9900012    2    1    2    0    0  0.32886709059E+02 -0.20601991737E+02  0.22872163427E+02  0.46142317009E+02  0.99999931415E+01 0.  0.
         12    1    1    2    0    0 -0.32886709059E+02  0.20601991737E+02 -0.22872163427E+02  0.45045682991E+02  0.00000000000E+00 0. -1.
         11    1    3    3    0    0  0.28654432906E+01 -0.51547139671E+01  0.28052553087E+01  0.65307961951E+01  0.51100000000E-03 0. -1.
        -11    1    3    3    0    0  0.18864947675E+02 -0.12238983757E+02  0.14305555871E+02  0.26651977473E+02  0.51100000000E-03 0.  1.
         12    1    3    3    0    0  0.11156318094E+02 -0.32082940129E+01  0.57613522476E+01  0.12959543341E+02  0.00000000000E+00 0. -1.
</event>
<event>
 7    1  0.1503436E-008  0.4614232E+02  0.7816164E-02  0.1320468E+00
        -11   -1    0    0    0    0  0.00000000000E+00  0.00000000000E+00  0.45593999997E+02  0.45594000000E+02  0.51100000000E-03 0.  1.
         11   -1    0    0    0    0 -0.00000000000E+00 -0.00000000000E+00 -0.45593999997E+02  0.45594000000E+02  0.51100000000E-03 0. -1.
    9900012    2    1    2    0    0 -0.48677059407E+01  0.19297363658E+02  0.40410774968E+02  0.46142317202E+02  0.99999948987E+01 0.  0.
         12    1    1    2    0    0  0.48677059407E+01 -0.19297363658E+02 -0.40410774968E+02  0.45045682798E+02  0.00000000000E+00 0. -1.
         11    1    3    3    0    0 -0.57522838015E+00  0.11469208146E+01  0.75823914995E+01  0.76901870040E+01  0.51100000000E-03 0. -1.
        -11    1    3    3    0    0 -0.53133624796E+00  0.13670207434E+02  0.26572652547E+02  0.29887501621E+02  0.51100000000E-03 0.  1.
        -12    1    3    3    0    0 -0.37611413126E+01  0.44802354100E+01  0.62557309211E+01  0.85646285768E+01  0.00000000000E+00 0.  1.
</event>
<event>
 7    1  0.1503436E-008  0.4614232E+02  0.7816164E-02  0.1320468E+00
        -11   -1    0    0    0    0  0.00000000000E+00  0.00000000000E+00  0.45593999997E+02  0.45594000000E+02  0.51100000000E-03 0.  1.
         11   -1    0    0    0    0 -0.00000000000E+00 -0.00000000000E+00 -0.45593999997E+02  0.45594000000E+02  0.51100000000E-03 0. -1.
    9900012    2    1    2    0    0 -0.12888161744E+02 -0.43134460656E+02  0.15579244009E+01  0.46142317214E+02  0.99999950121E+01 0.  0.
         12    1    1    2    0    0  0.12888161744E+02  0.43134460656E+02 -0.15579244009E+01  0.45045682786E+02  0.00000000000E+00 0. -1.
         11    1    3    3    0    0 -0.10305336117E+02 -0.30282187431E+02 -0.23222710330E+01  0.32071853253E+02  0.51100000000E-03 0.  1.
        -11    1    3    3    0    0  0.42802462711E+00 -0.48167729685E+00  0.69213009258E+00  0.94565449605E+00  0.51100000000E-03 0. -1.
        -12    1    3    3    0    0 -0.30108502543E+01 -0.12370595928E+02  0.31880653413E+01  0.13124809465E+02  0.00000000000E+00 0.  1.
</event>
<event>
 7    1  0.1503436E-008  0.4614232E+02  0.7816164E-02  0.1320468E+00
        -11   -1    0    0    0    0  0.00000000000E+00  0.00000000000E+00  0.45593999997E+02  0.45594000000E+02  0.51100000000E-03 0.  1.
         11   -1    0    0    0    0 -0.00000000000E+00 -0.00000000000E+00 -0.45593999997E+02  0.45594000000E+02  0.51100000000E-03 0. -1.
    9900012    2    1    2    0    0  0.41734677914E+02  0.51280706852E+01  0.16156517113E+02  0.46142317690E+02  0.99999993541E+01 0.  0.
         12    1    1    2    0    0 -0.41734677914E+02 -0.51280706852E+01 -0.16156517113E+02  0.45045682310E+02  0.00000000000E+00 0. -1.
         11    1    3    3    0    0  0.15675386477E+02 -0.62856558458E+00  0.52199802499E+01  0.16533633296E+02  0.51100000000E-03 0. -1.
        -11    1    3    3    0    0  0.13760552749E+02  0.25643512825E+01  0.21531680302E+01  0.14162091734E+02  0.51100000000E-03 0.  1.
         12    1    3    3    0    0  0.12298738688E+02  0.31922849874E+01  0.87833688330E+01  0.15446592660E+02  0.00000000000E+00 0. -1.
</event>
<event>
 7    1  0.1503436E-008  0.4614232E+02  0.7816164E-02  0.1320468E+00
        -11   -1    0    0    0    0  0.00000000000E+00  0.00000000000E+00  0.45593999997E+02  0.45594000000E+02  0.51100000000E-03 0. -1.
         11   -1    0    0    0    0 -0.00000000000E+00 -0.00000000000E+00 -0.45593999997E+02  0.45594000000E+02  0.51100000000E-03 0.  1.
    9900012    2    1    2    0    0 -0.12553393023E+02  0.43208971708E+02  0.21237866960E+01  0.46142318938E+02  0.10000010731E+02 0.  0.
         12    1    1    2    0    0  0.12553393023E+02 -0.43208971708E+02 -0.21237866960E+01  0.45045681062E+02  0.00000000000E+00 0. -1.
         11    1    3    3    0    0 -0.52746768265E+01  0.59643400389E+01  0.92487627952E+00  0.80156699107E+01  0.51100000000E-03 0. -1.
        -11    1    3    3    0    0 -0.48275803287E+01  0.20578414910E+02  0.22009490247E+01  0.21251373342E+02  0.51100000000E-03 0.  1.
         12    1    3    3    0    0 -0.24511358677E+01  0.16666216758E+02 -0.10020386082E+01  0.16875275685E+02  0.00000000000E+00 0. -1.
</event>
<event>
 7    1  0.1503436E-008  0.4614232E+02  0.7816164E-02  0.1320468E+00
        -11   -1    0    0    0    0  0.00000000000E+00  0.00000000000E+00  0.45593999997E+02  0.45594000000E+02  0.51100000000E-03 0. -1.
         11   -1    0    0    0    0 -0.00000000000E+00 -0.00000000000E+00 -0.45593999997E+02  0.45594000000E+02  0.51100000000E-03 0.  1.
    9900012    2    1    2    0    0  0.18444199134E+02 -0.35214725597E+02  0.21186036686E+02  0.46142317287E+02  0.99999956789E+01 0.  0.
         12    1    1    2    0    0 -0.18444199134E+02  0.35214725597E+02 -0.21186036686E+02  0.45045682713E+02  0.00000000000E+00 0. -1.
         11    1    3    3    0    0  0.33762028728E+00 -0.81984334322E+00 -0.96825601524E+00  0.13128787217E+01  0.51100000000E-03 0. -1.
        -11    1    3    3    0    0  0.42489659602E+01 -0.63221433614E+01  0.34638105559E+01  0.83678666482E+01  0.51100000000E-03 0.  1.
         12    1    3    3    0    0  0.13857612886E+02 -0.28072738893E+02  0.18690482146E+02  0.36461571917E+02  0.00000000000E+00 0. -1.
</event>
<event>
 7    1  0.1503436E-008  0.4614232E+02  0.7816164E-02  0.1320468E+00
        -11   -1    0    0    0    0  0.00000000000E+00  0.00000000000E+00  0.45593999997E+02  0.45594000000E+02  0.51100000000E-03 0.  1.
         11   -1    0    0    0    0 -0.00000000000E+00 -0.00000000000E+00 -0.45593999997E+02  0.45594000000E+02  0.51100000000E-03 0. -1.
    9900012    2    1    2    0    0  0.31519746519E+02 -0.24968868971E+02  0.20302084752E+02  0.46142317814E+02  0.10000000480E+02 0.  0.
         12    1    1    2    0    0 -0.31519746519E+02  0.24968868971E+02 -0.20302084752E+02  0.45045682186E+02  0.00000000000E+00 0. -1.
         11    1    3    3    0    0 -0.26273317947E-02 -0.15202755614E+01  0.95422925891E+00  0.17949368861E+01  0.51100000000E-03 0. -1.
        -11    1    3    3    0    0  0.15178483115E+02 -0.10253800062E+02  0.12794903253E+02  0.22343596731E+02  0.51100000000E-03 0.  1.
        -12    1    3    3    0    0  0.16343890736E+02 -0.13194793348E+02  0.65529522396E+01  0.22003784196E+02  0.00000000000E+00 0.  1.
</event>
<event>
 7    1  0.1503436E-008  0.4614232E+02  0.7816164E-02  0.1320468E+00
        -11   -1    0    0    0    0  0.00000000000E+00  0.00000000000E+00  0.45593999997E+02  0.45594000000E+02  0.51100000000E-03 0.  1.
         11   -1    0    0    0    0 -0.00000000000E+00 -0.00000000000E+00 -0.45593999997E+02  0.45594000000E+02  0.51100000000E-03 0. -1.
    9900012    2    1    2    0    0 -0.36671486111E+02 -0.10077445397E+02  0.24140436530E+02  0.46142317908E+02  0.10000001335E+02 0.  0.
         12    1    1    2    0    0  0.36671486111E+02  0.10077445397E+02 -0.24140436530E+02  0.45045682092E+02  0.00000000000E+00 0. -1.
         11    1    3    3    0    0 -0.20325413333E+02 -0.78919813341E+01  0.16329881501E+02  0.27240976976E+02  0.51100000000E-03 0.  1.
        -11    1    3    3    0    0 -0.81726387955E+01 -0.34942203594E+01  0.47353878300E+01  0.10071022737E+02  0.51100000000E-03 0. -1.
         12    1    3    3    0    0 -0.81734339825E+01  0.13087562968E+01  0.30751671993E+01  0.88303181944E+01  0.00000000000E+00 0. -1.
</event>
<event>
 7    1  0.1503436E-008  0.4614232E+02  0.7816164E-02  0.1320468E+00
        -11   -1    0    0    0    0  0.00000000000E+00  0.00000000000E+00  0.45593999997E+02  0.45594000000E+02  0.51100000000E-03 0. -1.
         11   -1    0    0    0    0 -0.00000000000E+00 -0.00000000000E+00 -0.45593999997E+02  0.45594000000E+02  0.51100000000E-03 0.  1.
    9900012    2    1    2    0    0  0.25491648272E+02 -0.51045980571E+01  0.36786307531E+02  0.46142317913E+02  0.10000001383E+02 0.  0.
         12    1    1    2    0    0 -0.25491648272E+02  0.51045980571E+01 -0.36786307531E+02  0.45045682087E+02  0.00000000000E+00 0. -1.
         11    1    3    3    0    0  0.30754275668E+01 -0.25196126726E+01  0.97081657370E+01  0.10490718992E+02  0.51100000000E-03 0. -1.
        -11    1    3    3    0    0  0.15671701787E+02 -0.30813770778E+01  0.15580502597E+02  0.22312534213E+02  0.51100000000E-03 0.  1.
         12    1    3    3    0    0  0.67445189181E+01  0.49639169331E+00  0.11497639197E+02  0.13339064707E+02  0.00000000000E+00 0. -1.
</event>
<event>
 7    1  0.1503436E-008  0.4614232E+02  0.7816164E-02  0.1320468E+00
        -11   -1    0    0    0    0  0.00000000000E+00  0.00000000000E+00  0.45593999997E+02  0.45594000000E+02  0.51100000000E-03 0.  1.
         11   -1    0    0    0    0 -0.00000000000E+00 -0.00000000000E+00 -0.45593999997E+02  0.45594000000E+02  0.51100000000E-03 0. -1.
    9900012    2    1    2    0    0  0.44412608229E+01 -0.39047451034E+02  0.22015565499E+02  0.46142319251E+02  0.10000013582E+02 0.  0.
         12    1    1    2    0    0 -0.44412608229E+01  0.39047451034E+02 -0.22015565499E+02  0.45045680749E+02  0.00000000000E+00 0. -1.
         11    1    3    3    0    0  0.52954498286E+01 -0.11079324608E+02  0.59442103260E+01  0.13642831793E+02  0.51100000000E-03 0. -1.
        -11    1    3    3    0    0  0.11960847410E+01 -0.87821371476E+01  0.38784027245E+01  0.96746348531E+01  0.51100000000E-03 0.  1.
         12    1    3    3    0    0 -0.20502737467E+01 -0.19185989278E+02  0.12192952449E+02  0.22824852605E+02  0.00000000000E+00 0. -1.
</event>
<event>
 7    1  0.1503436E-008  0.4614232E+02  0.7816164E-02  0.1320468E+00
        -11   -1    0    0    0    0  0.00000000000E+00  0.00000000000E+00  0.45593999997E+02  0.45594000000E+02  0.51100000000E-03 0.  1.
         11   -1    0    0    0    0 -0.00000000000E+00 -0.00000000000E+00 -0.45593999997E+02  0.45594000000E+02  0.51100000000E-03 0. -1.
    9900012    2    1    2    0    0 -0.14975100352E+02 -0.39893783557E+02  0.14606368465E+02  0.46142316558E+02  0.99999890286E+01 0.  0.
         12    1    1    2    0    0  0.14975100352E+02  0.39893783557E+02 -0.14606368465E+02  0.45045683442E+02  0.00000000000E+00 0. -1.
         11    1    3    3    0    0 -0.43884834023E+01 -0.86943014053E+01  0.76227854817E+01  0.12367559269E+02  0.51100000000E-03 0. -1.
        -11    1    3    3    0    0 -0.84983810589E+01 -0.24364402933E+02  0.65077265250E+01  0.26611973164E+02  0.51100000000E-03 0.  1.
         12    1    3    3    0    0 -0.20882358911E+01 -0.68350792186E+01  0.47585645854E+00  0.71627841257E+01  0.00000000000E+00 0. -1.
</event>
<event>
 7    1  0.1503436E-008  0.4614232E+02  0.7816164E-02  0.1320468E+00
        -11   -1    0    0    0    0  0.00000000000E+00  0.00000000000E+00  0.45593999997E+02  0.45594000000E+02  0.51100000000E-03 0.  1.
         11   -1    0    0    0    0 -0.00000000000E+00 -0.00000000000E+00 -0.45593999997E+02  0.45594000000E+02  0.51100000000E-03 0. -1.
    9900012    2    1    2    0    0 -0.83899322000E+01  0.47183313804E+01  0.44005226077E+02  0.46142317238E+02  0.99999952340E+01 0.  0.
         12    1    1    2    0    0  0.83899322000E+01 -0.47183313804E+01 -0.44005226077E+02  0.45045682762E+02  0.00000000000E+00 0. -1.
         11    1    3    3    0    0 -0.27910571618E+01 -0.13088156272E+01  0.20368745810E+02  0.20600699128E+02  0.51100000000E-03 0. -1.
        -11    1    3    3    0    0 -0.51830914188E+01  0.39588554127E+01  0.11478898117E+02  0.13202351120E+02  0.51100000000E-03 0.  1.
         12    1    3    3    0    0 -0.41578361932E+00  0.20682915949E+01  0.12157582150E+02  0.12339266991E+02  0.00000000000E+00 0. -1.
</event>
<event>
 7    1  0.1503436E-008  0.4614232E+02  0.7816164E-02  0.1320468E+00
        -11   -1    0    0    0    0  0.00000000000E+00  0.00000000000E+00  0.45593999997E+02  0.45594000000E+02  0.51100000000E-03 0.  1.
         11   -1    0    0    0    0 -0.00000000000E+00 -0.00000000000E+00 -0.45593999997E+02  0.45594000000E+02  0.51100000000E-03 0. -1.
    9900012    2    1    2    0    0 -0.22443246881E+01  0.36349236556E+02  0.26510554608E+02  0.46142317664E+02  0.99999991138E+01 0.  0.
         12    1    1    2    0    0  0.22443246881E+01 -0.36349236556E+02 -0.26510554608E+02  0.45045682336E+02  0.00000000000E+00 0. -1.
         11    1    3    3    0    0  0.17051957382E+01  0.13094804108E+02  0.77182167280E+01  0.15295504466E+02  0.51100000000E-03 0. -1.
        -11    1    3    3    0    0 -0.41347369713E+01  0.14153135833E+02  0.14849560180E+02  0.20926460320E+02  0.51100000000E-03 0.  1.
        -12    1    3    3    0    0  0.18521654498E+00  0.91012966146E+01  0.39427777003E+01  0.99203528782E+01  0.00000000000E+00 0.  1.
</event>
<event>
 7    1  0.1503436E-008  0.4614232E+02  0.7816164E-02  0.1320468E+00
        -11   -1    0    0    0    0  0.00000000000E+00  0.00000000000E+00  0.45593999997E+02  0.45594000000E+02  0.51100000000E-03 0.  1.
         11   -1    0    0    0    0 -0.00000000000E+00 -0.00000000000E+00 -0.45593999997E+02  0.45594000000E+02  0.51100000000E-03 0. -1.
    9900012    2    1    2    0    0  0.32690970798E+02 -0.12240132671E+02  0.28470915835E+02  0.46142317987E+02  0.10000002061E+02 0.  0.
         12    1    1    2    0    0 -0.32690970798E+02  0.12240132671E+02 -0.28470915835E+02  0.45045682013E+02  0.00000000000E+00 0. -1.
         11    1    3    3    0    0  0.92670318720E+01 -0.19230984714E+01  0.35217593917E+01  0.10098464087E+02  0.51100000000E-03 0. -1.
        -11    1    3    3    0    0  0.23646811324E+02 -0.10277917212E+02  0.24675468003E+02  0.35688737571E+02  0.51100000000E-03 0.  1.
         12    1    3    3    0    0 -0.22287239802E+00 -0.39116988455E-01  0.27368844034E+00  0.35511632877E+00  0.00000000000E+00 0. -1.
</event>
<event>
 7    1  0.1503436E-008  0.4614232E+02  0.7816164E-02  0.1320468E+00
        -11   -1    0    0    0    0  0.00000000000E+00  0.00000000000E+00  0.45593999997E+02  0.45594000000E+02  0.51100000000E-03 0. -1.
         11   -1    0    0    0    0 -0.00000000000E+00 -0.00000000000E+00 -0.45593999997E+02  0.45594000000E+02  0.51100000000E-03 0.  1.
    9900012    2    1    2    0    0  0.33963181179E+02 -0.34827951840E+01 -0.29385131342E+02  0.46142317831E+02  0.10000000636E+02 0.  0.
         12    1    1    2    0    0 -0.33963181179E+02  0.34827951840E+01  0.29385131342E+02  0.45045682169E+02  0.00000000000E+00 0. -1.
         11    1    3    3    0    0  0.22054513398E+01 -0.13295948036E+01 -0.20662657044E+01  0.33017104925E+01  0.51100000000E-03 0. -1.
        -11    1    3    3    0    0  0.53411467728E+01 -0.88395748111E-01 -0.95329958049E+01  0.10927656287E+02  0.51100000000E-03 0.  1.
        -12    1    3    3    0    0  0.26416583066E+02 -0.20648046323E+01 -0.17785869833E+02  0.31912951051E+02  0.00000000000E+00 0.  1.
</event>
<event>
 7    1  0.1503436E-008  0.4614232E+02  0.7816164E-02  0.1320468E+00
        -11   -1    0    0    0    0  0.00000000000E+00  0.00000000000E+00  0.45593999997E+02  0.45594000000E+02  0.51100000000E-03 0.  1.
         11   -1    0    0    0    0 -0.00000000000E+00 -0.00000000000E+00 -0.45593999997E+02  0.45594000000E+02  0.51100000000E-03 0. -1.
    9900012    2    1    2    0    0 -0.30981980647E+02 -0.32303785696E+02 -0.50690938084E+01  0.46142318662E+02  0.10000008218E+02 0.  0.
         12    1    1    2    0    0  0.30981980647E+02  0.32303785696E+02  0.50690938084E+01  0.45045681338E+02  0.00000000000E+00 0. -1.
         11    1    3    3    0    0 -0.13139459449E+02 -0.14603835692E+02 -0.23484563501E+01  0.19784657162E+02  0.51100000000E-03 0.  1.
        -11    1    3    3    0    0 -0.10988559730E+02 -0.56950393827E+01 -0.17521435628E+01  0.12500077033E+02  0.51100000000E-03 0. -1.
         12    1    3    3    0    0 -0.68539614682E+01 -0.12004910621E+02 -0.96849389556E+00  0.13857584467E+02  0.00000000000E+00 0. -1.
</event>
<event>
 7    1  0.1503436E-008  0.4614232E+02  0.7816164E-02  0.1320468E+00
        -11   -1    0    0    0    0  0.00000000000E+00  0.00000000000E+00  0.45593999997E+02  0.45594000000E+02  0.51100000000E-03 0.  1.
         11   -1    0    0    0    0 -0.00000000000E+00 -0.00000000000E+00 -0.45593999997E+02  0.45594000000E+02  0.51100000000E-03 0. -1.
    9900012    2    1    2    0    0 -0.24107235228E+02  0.29688469300E+02  0.23802302096E+02  0.46142316691E+02  0.99999902402E+01 0.  0.
         12    1    1    2    0    0  0.24107235228E+02 -0.29688469300E+02 -0.23802302096E+02  0.45045683309E+02  0.00000000000E+00 0. -1.
         11    1    3    3    0    0 -0.61073167248E+01  0.13642210645E+02  0.10791379016E+02  0.18435376052E+02  0.51100000000E-03 0. -1.
        -11    1    3    3    0    0 -0.15000074923E+02  0.12663418516E+02  0.12201637438E+02  0.23113726931E+02  0.51100000000E-03 0.  1.
        -12    1    3    3    0    0 -0.29998435806E+01  0.33828401390E+01  0.80928564166E+00  0.45932137076E+01  0.00000000000E+00 0.  1.
</event>
<event>
 7    1  0.1503436E-008  0.4614232E+02  0.7816164E-02  0.1320468E+00
        -11   -1    0    0    0    0  0.00000000000E+00  0.00000000000E+00  0.45593999997E+02  0.45594000000E+02  0.51100000000E-03 0.  1.
         11   -1    0    0    0    0 -0.00000000000E+00 -0.00000000000E+00 -0.45593999997E+02  0.45594000000E+02  0.51100000000E-03 0. -1.
    9900012    2    1    2    0    0 -0.22533580107E+01  0.22188081319E+02  0.39137259909E+02  0.46142315544E+02  0.99999797822E+01 0.  0.
         12    1    1    2    0    0  0.22533580107E+01 -0.22188081319E+02 -0.39137259909E+02  0.45045684456E+02  0.00000000000E+00 0. -1.
         11    1    3    3    0    0 -0.25970288473E+01  0.34925327992E+01  0.12124379755E+02  0.12881883748E+02  0.51100000000E-03 0.  1.
        -11    1    3    3    0    0 -0.12587788293E+01  0.10898072085E+02  0.19160116954E+02  0.22078554782E+02  0.51100000000E-03 0. -1.
         12    1    3    3    0    0  0.16024496659E+01  0.77974764351E+01  0.78527631993E+01  0.11181877014E+02  0.00000000000E+00 0. -1.
</event>
<event>
 7    1  0.1503436E-008  0.4614232E+02  0.7816164E-02  0.1320468E+00
        -11   -1    0    0    0    0  0.00000000000E+00  0.00000000000E+00  0.45593999997E+02  0.45594000000E+02  0.51100000000E-03 0.  1.
         11   -1    0    0    0    0 -0.00000000000E+00 -0.00000000000E+00 -0.45593999997E+02  0.45594000000E+02  0.51100000000E-03 0. -1.
    9900012    2    1    2    0    0 -0.19664962644E+02 -0.14326445486E+02  0.37909838820E+02  0.46142315685E+02  0.99999810703E+01 0.  0.
         12    1    1    2    0    0  0.19664962644E+02  0.14326445486E+02 -0.37909838820E+02  0.45045684315E+02  0.00000000000E+00 0. -1.
         11    1    3    3    0    0 -0.29612335129E+01 -0.38129539153E+01  0.11841268116E+02  0.12787617148E+02  0.51100000000E-03 0. -1.
        -11    1    3    3    0    0 -0.58975896154E+01 -0.74513854312E+01  0.10561124559E+02  0.14207113019E+02  0.51100000000E-03 0.  1.
        -12    1    3    3    0    0 -0.10806139516E+02 -0.30621061397E+01  0.15507446144E+02  0.19147585518E+02  0.00000000000E+00 0.  1.
</event>
<event>
 7    1  0.1503436E-008  0.4614232E+02  0.7816164E-02  0.1320468E+00
        -11   -1    0    0    0    0  0.00000000000E+00  0.00000000000E+00  0.45593999997E+02  0.45594000000E+02  0.51100000000E-03 0. -1.
         11   -1    0    0    0    0 -0.00000000000E+00 -0.00000000000E+00 -0.45593999997E+02  0.45594000000E+02  0.51100000000E-03 0.  1.
    9900012    2    1    2    0    0 -0.40364081691E+01  0.43841616330E+02 -0.95254142735E+01  0.46142318404E+02  0.10000005867E+02 0.  0.
         12    1    1    2    0    0  0.40364081691E+01 -0.43841616330E+02  0.95254142735E+01  0.45045681596E+02  0.00000000000E+00 0. -1.
         11    1    3    3    0    0  0.97994327771E-01  0.18151323332E+02  0.17973611090E+00  0.18152477707E+02  0.51100000000E-03 0. -1.
        -11    1    3    3    0    0 -0.42741177508E+01  0.24090609684E+02 -0.98551763444E+01  0.26377074488E+02  0.51100000000E-03 0.  1.
        -12    1    3    3    0    0  0.13971525391E+00  0.15996833136E+01  0.15002595999E+00  0.16127662089E+01  0.00000000000E+00 0.  1.
</event>
<event>
 7    1  0.1503436E-008  0.4614232E+02  0.7816164E-02  0.1320468E+00
        -11   -1    0    0    0    0  0.00000000000E+00  0.00000000000E+00  0.45593999997E+02  0.45594000000E+02  0.51100000000E-03 0.  1.
         11   -1    0    0    0    0 -0.00000000000E+00 -0.00000000000E+00 -0.45593999997E+02  0.45594000000E+02  0.51100000000E-03 0. -1.
    9900012    2    1    2    0    0  0.24033346702E+02 -0.78325480780E+01  0.37284888987E+02  0.46142317523E+02  0.99999978292E+01 0.  0.
         12    1    1    2    0    0 -0.24033346702E+02  0.78325480780E+01 -0.37284888987E+02  0.45045682477E+02  0.00000000000E+00 0. -1.
         11    1    3    3    0    0  0.12557229414E+02 -0.41037848615E+01  0.24400594553E+02  0.27747325557E+02  0.51100000000E-03 0. -1.
        -11    1    3    3    0    0  0.41725736449E+01 -0.38173049348E+01  0.41814711204E+01  0.70332701341E+01  0.51100000000E-03 0.  1.
         12    1    3    3    0    0  0.73035436422E+01  0.88541718276E-01  0.87028233131E+01  0.11361721832E+02  0.00000000000E+00 0. -1.
</event>
<event>
 7    1  0.1503436E-008  0.4614232E+02  0.7816164E-02  0.1320468E+00
        -11   -1    0    0    0    0  0.00000000000E+00  0.00000000000E+00  0.45593999997E+02  0.45594000000E+02  0.51100000000E-03 0. -1.
         11   -1    0    0    0    0 -0.00000000000E+00 -0.00000000000E+00 -0.45593999997E+02  0.45594000000E+02  0.51100000000E-03 0.  1.
    9900012    2    1    2    0    0 -0.23949858992E+02 -0.32021189114E+02 -0.20740327181E+02  0.46142317969E+02  0.10000001900E+02 0.  0.
         12    1    1    2    0    0  0.23949858992E+02  0.32021189114E+02  0.20740327181E+02  0.45045682031E+02  0.00000000000E+00 0. -1.
         11    1    3    3    0    0 -0.19996562038E+01 -0.40633059484E+01 -0.51553048699E+01  0.68619420521E+01  0.51100000000E-03 0. -1.
        -11    1    3    3    0    0 -0.12384110293E+02 -0.16025398603E+02 -0.55894884713E+01  0.21010044497E+02  0.51100000000E-03 0.  1.
         12    1    3    3    0    0 -0.95660924951E+01 -0.11932484562E+02 -0.99955338400E+01  0.18270331420E+02  0.00000000000E+00 0. -1.
</event>
<event>
 7    1  0.1503436E-008  0.4614232E+02  0.7816164E-02  0.1320468E+00
        -11   -1    0    0    0    0  0.00000000000E+00  0.00000000000E+00  0.45593999997E+02  0.45594000000E+02  0.51100000000E-03 0.  1.
         11   -1    0    0    0    0 -0.00000000000E+00 -0.00000000000E+00 -0.45593999997E+02  0.45594000000E+02  0.51100000000E-03 0. -1.
    9900012    2    1    2    0    0 -0.21130830628E+02 -0.52652815011E+01  0.39431946609E+02  0.46142316459E+02  0.99999881231E+01 0.  0.
         12    1    1    2    0    0  0.21130830628E+02  0.52652815011E+01 -0.39431946609E+02  0.45045683541E+02  0.00000000000E+00 0. -1.
         11    1    3    3    0    0 -0.23229861033E+01  0.21734882924E+01  0.54237339974E+01  0.62878618408E+01  0.51100000000E-03 0. -1.
        -11    1    3    3    0    0 -0.14995402312E+02 -0.64742947508E+01  0.30435903639E+02  0.34541609887E+02  0.51100000000E-03 0.  1.
         12    1    3    3    0    0 -0.38124422130E+01 -0.96447504272E+00  0.35723089729E+01  0.53128447308E+01  0.00000000000E+00 0. -1.
</event>
<event>
 7    1  0.1503436E-008  0.4614232E+02  0.7816164E-02  0.1320468E+00
        -11   -1    0    0    0    0  0.00000000000E+00  0.00000000000E+00  0.45593999997E+02  0.45594000000E+02  0.51100000000E-03 0.  1.
         11   -1    0    0    0    0 -0.00000000000E+00 -0.00000000000E+00 -0.45593999997E+02  0.45594000000E+02  0.51100000000E-03 0. -1.
    9900012    2    1    2    0    0 -0.24167250438E+02 -0.39487932936E+01  0.37808259756E+02  0.46142317987E+02  0.10000002064E+02 0.  0.
         12    1    1    2    0    0  0.24167250438E+02  0.39487932936E+01 -0.37808259756E+02  0.45045682013E+02  0.00000000000E+00 0. -1.
         11    1    3    3    0    0  0.36752966342E+00 -0.12421497761E+01  0.24113668050E+01  0.27372804477E+01  0.51100000000E-03 0. -1.
        -11    1    3    3    0    0 -0.10225383454E+02  0.94861683629E+00  0.16269706286E+02  0.19239586367E+02  0.51100000000E-03 0.  1.
         12    1    3    3    0    0 -0.14309396648E+02 -0.36552603538E+01  0.19127186664E+02  0.24165451172E+02  0.00000000000E+00 0. -1.
</event>
<event>
 7    1  0.1503436E-008  0.4614232E+02  0.7816164E-02  0.1320468E+00
        -11   -1    0    0    0    0  0.00000000000E+00  0.00000000000E+00  0.45593999997E+02  0.45594000000E+02  0.51100000000E-03 0.  1.
         11   -1    0    0    0    0 -0.00000000000E+00 -0.00000000000E+00 -0.45593999997E+02  0.45594000000E+02  0.51100000000E-03 0. -1.
    9900012    2    1    2    0    0 -0.67888526727E+01  0.24625820025E+01  0.44463025499E+02  0.46142317996E+02  0.10000002138E+02 0.  0.
         12    1    1    2    0    0  0.67888526727E+01 -0.24625820025E+01 -0.44463025499E+02  0.45045682004E+02  0.00000000000E+00 0. -1.
         11    1    3    3    0    0 -0.16322937163E+01 -0.63860017845E+00  0.16359005284E+01  0.23975745586E+01  0.51100000000E-03 0. -1.
        -11    1    3    3    0    0 -0.30481556109E+01 -0.15586034947E+01  0.11359492206E+02  0.11864171312E+02  0.51100000000E-03 0.  1.
        -12    1    3    3    0    0 -0.21084033455E+01  0.46597856756E+01  0.31467632764E+02  0.31880572125E+02  0.00000000000E+00 0.  1.
</event>
<event>
 7    1  0.1503436E-008  0.4614232E+02  0.7816164E-02  0.1320468E+00
        -11   -1    0    0    0    0  0.00000000000E+00  0.00000000000E+00  0.45593999997E+02  0.45594000000E+02  0.51100000000E-03 0.  1.
         11   -1    0    0    0    0 -0.00000000000E+00 -0.00000000000E+00 -0.45593999997E+02  0.45594000000E+02  0.51100000000E-03 0. -1.
    9900012    2    1    2    0    0 -0.41538004714E+02 -0.45506016306E+01  0.16822594629E+02  0.46142317622E+02  0.99999987346E+01 0.  0.
         12    1    1    2    0    0  0.41538004714E+02  0.45506016306E+01 -0.16822594629E+02  0.45045682378E+02  0.00000000000E+00 0. -1.
         11    1    3    3    0    0 -0.11923370225E+01 -0.10334113822E+01  0.17322797973E+01  0.23431603055E+01  0.51100000000E-03 0. -1.
        -11    1    3    3    0    0 -0.15115306547E+01  0.77580833664E+00 -0.43992648872E+00  0.17550324988E+01  0.51100000000E-03 0.  1.
        -12    1    3    3    0    0 -0.38834137037E+02 -0.42929985851E+01  0.15530241321E+02  0.42044124818E+02  0.00000000000E+00 0.  1.
</event>
<event>
 7    1  0.1503436E-008  0.4614231E+02  0.7816164E-02  0.1320468E+00
        -11   -1    0    0    0    0  0.00000000000E+00  0.00000000000E+00  0.45593999997E+02  0.45594000000E+02  0.51100000000E-03 0.  1.
         11   -1    0    0    0    0 -0.00000000000E+00 -0.00000000000E+00 -0.45593999997E+02  0.45594000000E+02  0.51100000000E-03 0. -1.
    9900012    2    1    2    0    0 -0.17809881928E+02  0.11203027158E+02  0.39829813769E+02  0.46142314561E+02  0.99999708178E+01 0.  0.
         12    1    1    2    0    0  0.17809881928E+02 -0.11203027158E+02 -0.39829813769E+02  0.45045685439E+02  0.00000000000E+00 0. -1.
         11    1    3    3    0    0 -0.69252623073E+01  0.88967468113E+01  0.18165225954E+02  0.21379588304E+02  0.51100000000E-03 0. -1.
        -11    1    3    3    0    0 -0.10660883213E+02  0.26129803972E+01  0.18029982717E+02  0.21108348454E+02  0.51100000000E-03 0.  1.
         12    1    3    3    0    0 -0.22373640848E+00 -0.30670005071E+00  0.36346050985E+01  0.36543778026E+01  0.00000000000E+00 0. -1.
</event>
<event>
 7    1  0.1503436E-008  0.4614232E+02  0.7816164E-02  0.1320468E+00
        -11   -1    0    0    0    0  0.00000000000E+00  0.00000000000E+00  0.45593999997E+02  0.45594000000E+02  0.51100000000E-03 0.  1.
         11   -1    0    0    0    0 -0.00000000000E+00 -0.00000000000E+00 -0.45593999997E+02  0.45594000000E+02  0.51100000000E-03 0. -1.
    9900012    2    1    2    0    0 -0.21754761892E+02 -0.27639721436E+02  0.28140534107E+02  0.46142317345E+02  0.99999962056E+01 0.  0.
         12    1    1    2    0    0  0.21754761892E+02  0.27639721436E+02 -0.28140534107E+02  0.45045682655E+02  0.00000000000E+00 0. -1.
         11    1    3    3    0    0 -0.26199494595E+01 -0.18501134788E+01  0.81784351781E+00  0.33099733134E+01  0.51100000000E-03 0. -1.
        -11    1    3    3    0    0 -0.51271748435E+01 -0.24005904611E+01  0.37404928339E+01  0.67854287514E+01  0.51100000000E-03 0.  1.
        -12    1    3    3    0    0 -0.14007637589E+02 -0.23389017496E+02  0.23582197755E+02  0.36046915280E+02  0.00000000000E+00 0.  1.
</event>
<event>
 7    1  0.1503436E-008  0.4614232E+02  0.7816164E-02  0.1320468E+00
        -11   -1    0    0    0    0  0.00000000000E+00  0.00000000000E+00  0.45593999997E+02  0.45594000000E+02  0.51100000000E-03 0.  1.
         11   -1    0    0    0    0 -0.00000000000E+00 -0.00000000000E+00 -0.45593999997E+02  0.45594000000E+02  0.51100000000E-03 0. -1.
    9900012    2    1    2    0    0 -0.28241909674E+02  0.35043270597E+02 -0.18647264001E+01  0.46142317846E+02  0.10000000774E+02 0.  0.
         12    1    1    2    0    0  0.28241909674E+02 -0.35043270597E+02  0.18647264001E+01  0.45045682154E+02  0.00000000000E+00 0. -1.
         11    1    3    3    0    0 -0.51348060448E+01  0.11597208096E+02  0.99852856828E+00  0.12722363314E+02  0.51100000000E-03 0. -1.
        -11    1    3    3    0    0 -0.14558061551E+02  0.11282645645E+02 -0.11477435841E+01  0.18454066340E+02  0.51100000000E-03 0.  1.
         12    1    3    3    0    0 -0.85490420787E+01  0.12163416856E+02 -0.17155113843E+01  0.14965888192E+02  0.00000000000E+00 0. -1.
</event>
<event>
 7    1  0.1503436E-008  0.4614232E+02  0.7816164E-02  0.1320468E+00
        -11   -1    0    0    0    0  0.00000000000E+00  0.00000000000E+00  0.45593999997E+02  0.45594000000E+02  0.51100000000E-03 0. -1.
         11   -1    0    0    0    0 -0.00000000000E+00 -0.00000000000E+00 -0.45593999997E+02  0.45594000000E+02  0.51100000000E-03 0.  1.
    9900012    2    1    2    0    0 -0.44186476480E+02  0.79565906697E+01  0.36552771276E+01  0.46142322186E+02  0.10000040349E+02 0.  0.
         12    1    1    2    0    0  0.44186476480E+02 -0.79565906697E+01 -0.36552771276E+01  0.45045677814E+02  0.00000000000E+00 0. -1.
         11    1    3    3    0    0 -0.22885900403E+01 -0.29543523705E-01  0.14924888071E+01  0.27324055871E+01  0.51100000000E-03 0. -1.
        -11    1    3    3    0    0 -0.32901106468E+02  0.46315786579E+01 -0.11700783056E+01  0.33246103699E+02  0.51100000000E-03 0.  1.
        -12    1    3    3    0    0 -0.89967799725E+01  0.33545555355E+01  0.33328666262E+01  0.10163812900E+02  0.00000000000E+00 0.  1.
</event>
<event>
 7    1  0.1503436E-008  0.4614232E+02  0.7816164E-02  0.1320468E+00
        -11   -1    0    0    0    0  0.00000000000E+00  0.00000000000E+00  0.45593999997E+02  0.45594000000E+02  0.51100000000E-03 0.  1.
         11   -1    0    0    0    0 -0.00000000000E+00 -0.00000000000E+00 -0.45593999997E+02  0.45594000000E+02  0.51100000000E-03 0. -1.
    9900012    2    1    2    0    0  0.36150774695E+02  0.46133145250E+01  0.26475504813E+02  0.46142317221E+02  0.99999950723E+01 0.  0.
         12    1    1    2    0    0 -0.36150774695E+02 -0.46133145250E+01 -0.26475504813E+02  0.45045682779E+02  0.00000000000E+00 0. -1.
         11    1    3    3    0    0  0.27589421521E+02 -0.59116055440E+00  0.19671032596E+02  0.33889160130E+02  0.51100000000E-03 0. -1.
        -11    1    3    3    0    0  0.37980467100E+01  0.33933412338E+01  0.34875422653E+01  0.61727526156E+01  0.51100000000E-03 0.  1.
        -12    1    3    3    0    0  0.47633064639E+01  0.18111338457E+01  0.33169299512E+01  0.60804044748E+01  0.00000000000E+00 0.  1.
</event>
<event>
 7    1  0.1503436E-008  0.4614232E+02  0.7816164E-02  0.1320468E+00
        -11   -1    0    0    0    0  0.00000000000E+00  0.00000000000E+00  0.45593999997E+02  0.45594000000E+02  0.51100000000E-03 0. -1.
         11   -1    0    0    0    0 -0.00000000000E+00 -0.00000000000E+00 -0.45593999997E+02  0.45594000000E+02  0.51100000000E-03 0.  1.
    9900012    2    1    2    0    0 -0.19425390140E+02  0.39177905243E+02 -0.10810153436E+02  0.46142318092E+02  0.10000003015E+02 0.  0.
         12    1    1    2    0    0  0.19425390140E+02 -0.39177905243E+02  0.10810153436E+02  0.45045681908E+02  0.00000000000E+00 0. -1.
         11    1    3    3    0    0 -0.97307749797E+01  0.12270884402E+02 -0.20664844508E+01  0.15796611787E+02  0.51100000000E-03 0.  1.
        -11    1    3    3    0    0 -0.77100664067E+01  0.15934919258E+02 -0.71094409707E+01  0.19076449537E+02  0.51100000000E-03 0. -1.
        -12    1    3    3    0    0 -0.19845487532E+01  0.10972101582E+02 -0.16342280145E+01  0.11269256767E+02  0.00000000000E+00 0.  1.
</event>
<event>
 7    1  0.1503436E-008  0.4614232E+02  0.7816164E-02  0.1320468E+00
        -11   -1    0    0    0    0  0.00000000000E+00  0.00000000000E+00  0.45593999997E+02  0.45594000000E+02  0.51100000000E-03 0. -1.
         11   -1    0    0    0    0 -0.00000000000E+00 -0.00000000000E+00 -0.45593999997E+02  0.45594000000E+02  0.51100000000E-03 0.  1.
    9900012    2    1    2    0    0 -0.91799187956E+01 -0.31264201352E+02 -0.31102930004E+02  0.46142318186E+02  0.10000003873E+02 0.  0.
         12    1    1    2    0    0  0.91799187956E+01  0.31264201352E+02  0.31102930004E+02  0.45045681814E+02  0.00000000000E+00 0. -1.
         11    1    3    3    0    0 -0.38160394247E+01 -0.21252898634E+01 -0.37946907140E+01  0.57860774079E+01  0.51100000000E-03 0. -1.
        -11    1    3    3    0    0 -0.30712225382E+01 -0.11099421621E+02 -0.11157312151E+02  0.16034811595E+02  0.51100000000E-03 0.  1.
         12    1    3    3    0    0 -0.22926568327E+01 -0.18039489868E+02 -0.16150927139E+02  0.24321429183E+02  0.00000000000E+00 0. -1.
</event>
<event>
 7    1  0.1503436E-008  0.4614232E+02  0.7816164E-02  0.1320468E+00
        -11   -1    0    0    0    0  0.00000000000E+00  0.00000000000E+00  0.45593999997E+02  0.45594000000E+02  0.51100000000E-03 0.  1.
         11   -1    0    0    0    0 -0.00000000000E+00 -0.00000000000E+00 -0.45593999997E+02  0.45594000000E+02  0.51100000000E-03 0. -1.
    9900012    2    1    2    0    0  0.30030803872E+02 -0.33342244216E+02 -0.39445275555E+01  0.46142315099E+02  0.99999757209E+01 0.  0.
         12    1    1    2    0    0 -0.30030803872E+02  0.33342244216E+02  0.39445275555E+01  0.45045684901E+02  0.00000000000E+00 0. -1.
         11    1    3    3    0    0  0.38111419887E+01 -0.23683482001E+01 -0.25967468583E+01  0.51843004313E+01  0.51100000000E-03 0. -1.
        -11    1    3    3    0    0  0.28375467869E+01 -0.55993944771E+01 -0.14945482334E+01  0.64527951278E+01  0.51100000000E-03 0.  1.
        -12    1    3    3    0    0  0.23382115097E+02 -0.25374501539E+02  0.14676753618E+00  0.34505219539E+02  0.00000000000E+00 0.  1.
</event>
<event>
 7    1  0.1503436E-008  0.4614232E+02  0.7816164E-02  0.1320468E+00
        -11   -1    0    0    0    0  0.00000000000E+00  0.00000000000E+00  0.45593999997E+02  0.45594000000E+02  0.51100000000E-03 0.  1.
         11   -1    0    0    0    0 -0.00000000000E+00 -0.00000000000E+00 -0.45593999997E+02  0.45594000000E+02  0.51100000000E-03 0. -1.
    9900012    2    1    2    0    0  0.28966224164E+01 -0.18955445914E+02  0.40760448335E+02  0.46142317635E+02  0.99999988529E+01 0.  0.
         12    1    1    2    0    0 -0.28966224164E+01  0.18955445914E+02 -0.40760448335E+02  0.45045682365E+02  0.00000000000E+00 0. -1.
         11    1    3    3    0    0  0.29766386107E+01 -0.10704052321E+01  0.32000919846E+01  0.44996370688E+01  0.51100000000E-03 0. -1.
        -11    1    3    3    0    0 -0.81785270507E+00 -0.48583467613E+01  0.10826553843E+02  0.11894817556E+02  0.51100000000E-03 0.  1.
         12    1    3    3    0    0  0.73783651068E+00 -0.13026693920E+02  0.26733802508E+02  0.29747863011E+02  0.00000000000E+00 0. -1.
</event>
<event>
 7    1  0.1503436E-008  0.4614232E+02  0.7816164E-02  0.1320468E+00
        -11   -1    0    0    0    0  0.00000000000E+00  0.00000000000E+00  0.45593999997E+02  0.45594000000E+02  0.51100000000E-03 0.  1.
         11   -1    0    0    0    0 -0.00000000000E+00 -0.00000000000E+00 -0.45593999997E+02  0.45594000000E+02  0.51100000000E-03 0. -1.
    9900012    2    1    2    0    0 -0.12604955914E+02 -0.42745858950E+02 -0.65589769804E+01  0.46142317077E+02  0.99999937591E+01 0.  0.
         12    1    1    2    0    0  0.12604955914E+02  0.42745858950E+02  0.65589769804E+01  0.45045682923E+02  0.00000000000E+00 0. -1.
         11    1    3    3    0    0 -0.15853680304E+01 -0.63158882926E+01 -0.29593902229E+01  0.71527496439E+01  0.51100000000E-03 0. -1.
        -11    1    3    3    0    0  0.48234090964E+00 -0.98379784379E+01 -0.83970023471E+00  0.98855232154E+01  0.51100000000E-03 0.  1.
         12    1    3    3    0    0 -0.11501928793E+02 -0.26591992220E+02 -0.27598865228E+01  0.29104044217E+02  0.00000000000E+00 0. -1.
</event>
<event>
 7    1  0.1503436E-008  0.4614233E+02  0.7816164E-02  0.1320468E+00
        -11   -1    0    0    0    0  0.00000000000E+00  0.00000000000E+00  0.45593999997E+02  0.45594000000E+02  0.51100000000E-03 0. -1.
         11   -1    0    0    0    0 -0.00000000000E+00 -0.00000000000E+00 -0.45593999997E+02  0.45594000000E+02  0.51100000000E-03 0.  1.
    9900012    2    1    2    0    0 -0.43798293003E+02  0.62887994528E+01 -0.84423523930E+01  0.46142325596E+02  0.10000071446E+02 0.  0.
         12    1    1    2    0    0  0.43798293003E+02 -0.62887994528E+01  0.84423523930E+01  0.45045674404E+02  0.00000000000E+00 0. -1.
         11    1    3    3    0    0 -0.58585842893E+01  0.25532446858E+01 -0.73183960744E+00  0.64325467563E+01  0.51100000000E-03 0. -1.
        -11    1    3    3    0    0 -0.28623096728E+02  0.15760897901E+01 -0.90311849727E+01  0.30055415944E+02  0.51100000000E-03 0.  1.
        -12    1    3    3    0    0 -0.93166119864E+01  0.21594649770E+01  0.13206721871E+01  0.96543628955E+01  0.00000000000E+00 0.  1.
</event>
<event>
 7    1  0.1503436E-008  0.4614232E+02  0.7816164E-02  0.1320468E+00
        -11   -1    0    0    0    0  0.00000000000E+00  0.00000000000E+00  0.45593999997E+02  0.45594000000E+02  0.51100000000E-03 0. -1.
         11   -1    0    0    0    0 -0.00000000000E+00 -0.00000000000E+00 -0.45593999997E+02  0.45594000000E+02  0.51100000000E-03 0.  1.
    9900012    2    1    2    0    0 -0.38153111373E+02  0.22190918351E+02 -0.90009346711E+01  0.46142316636E+02  0.99999897441E+01 0.  0.
         12    1    1    2    0    0  0.38153111373E+02 -0.22190918351E+02  0.90009346711E+01  0.45045683364E+02  0.00000000000E+00 0. -1.
         11    1    3    3    0    0 -0.55346236862E+01  0.55320858028E+01 -0.41736787875E+01  0.88688007960E+01  0.51100000000E-03 0. -1.
        -11    1    3    3    0    0 -0.14706164588E+02  0.98084012518E+01 -0.91304437637E+00  0.17700555424E+02  0.51100000000E-03 0.  1.
        -12    1    3    3    0    0 -0.17912323099E+02  0.68504312966E+01 -0.39142115072E+01  0.19572960417E+02  0.00000000000E+00 0.  1.
</event>
<event>
 7    1  0.1503436E-008  0.4614232E+02  0.7816164E-02  0.1320468E+00
        -11   -1    0    0    0    0  0.00000000000E+00  0.00000000000E+00  0.45593999997E+02  0.45594000000E+02  0.51100000000E-03 0.  1.
         11   -1    0    0    0    0 -0.00000000000E+00 -0.00000000000E+00 -0.45593999997E+02  0.45594000000E+02  0.51100000000E-03 0. -1.
    9900012    2    1    2    0    0 -0.21059326905E+01  0.26952143844E+02  0.36031382566E+02  0.46142317189E+02  0.99999947851E+01 0.  0.
         12    1    1    2    0    0  0.21059326905E+01 -0.26952143844E+02 -0.36031382566E+02  0.45045682811E+02  0.00000000000E+00 0. -1.
         11    1    3    3    0    0  0.16792767909E+01  0.14156106640E+01  0.40869900882E+01  0.46397642543E+01  0.51100000000E-03 0. -1.
        -11    1    3    3    0    0 -0.50286503308E+01  0.18598820770E+02  0.21140611608E+02  0.28602952953E+02  0.51100000000E-03 0.  1.
        -12    1    3    3    0    0  0.12434408494E+01  0.69377124102E+01  0.10803780869E+02  0.12899599982E+02  0.00000000000E+00 0.  1.
</event>
<event>
 7    1  0.1503436E-008  0.4614232E+02  0.7816164E-02  0.1320468E+00
        -11   -1    0    0    0    0  0.00000000000E+00  0.00000000000E+00  0.45593999997E+02  0.45594000000E+02  0.51100000000E-03 0.  1.
         11   -1    0    0    0    0 -0.00000000000E+00 -0.00000000000E+00 -0.45593999997E+02  0.45594000000E+02  0.51100000000E-03 0. -1.
    9900012    2    1    2    0    0 -0.71179581905E+01  0.43647067756E+02 -0.85663102583E+01  0.46142317366E+02  0.99999963998E+01 0.  0.
         12    1    1    2    0    0  0.71179581905E+01 -0.43647067756E+02  0.85663102583E+01  0.45045682634E+02  0.00000000000E+00 0. -1.
         11    1    3    3    0    0  0.87772351420E+00  0.44873194073E+01 -0.24895673723E+01  0.52061867036E+01  0.51100000000E-03 0. -1.
        -11    1    3    3    0    0 -0.71097149502E+01  0.19377110181E+02 -0.21933282922E+01  0.20756472121E+02  0.51100000000E-03 0.  1.
        -12    1    3    3    0    0 -0.88596675452E+00  0.19782638167E+02 -0.38834145938E+01  0.20179658542E+02  0.00000000000E+00 0.  1.
</event>
<event>
 7    1  0.1503436E-008  0.4614232E+02  0.7816164E-02  0.1320468E+00
        -11   -1    0    0    0    0  0.00000000000E+00  0.00000000000E+00  0.45593999997E+02  0.45594000000E+02  0.51100000000E-03 0.  1.
         11   -1    0    0    0    0 -0.00000000000E+00 -0.00000000000E+00 -0.45593999997E+02  0.45594000000E+02  0.51100000000E-03 0. -1.
    9900012    2    1    2    0    0 -0.22700706165E+02  0.38905973740E+02  0.34118778213E+00  0.46142320272E+02  0.10000022897E+02 0.  0.
         12    1    1    2    0    0  0.22700706165E+02 -0.38905973740E+02 -0.34118778213E+00  0.45045679728E+02  0.00000000000E+00 0. -1.
         11    1    3    3    0    0 -0.20990413338E+01  0.61725051703E+01  0.13835858138E+01  0.66648409256E+01  0.51100000000E-03 0. -1.
        -11    1    3    3    0    0 -0.43516662461E+01  0.65741022984E+01  0.29631962660E+01  0.84223721432E+01  0.51100000000E-03 0.  1.
         12    1    3    3    0    0 -0.16249998586E+02  0.26159366271E+02 -0.40055942976E+01  0.31055107203E+02  0.00000000000E+00 0. -1.
</event>
<event>
 7    1  0.1503436E-008  0.4614232E+02  0.7816164E-02  0.1320468E+00
        -11   -1    0    0    0    0  0.00000000000E+00  0.00000000000E+00  0.45593999997E+02  0.45594000000E+02  0.51100000000E-03 0.  1.
         11   -1    0    0    0    0 -0.00000000000E+00 -0.00000000000E+00 -0.45593999997E+02  0.45594000000E+02  0.51100000000E-03 0. -1.
    9900012    2    1    2    0    0 -0.27694124607E+01 -0.43802650236E+02  0.10137638403E+02  0.46142317349E+02  0.99999962422E+01 0.  0.
         12    1    1    2    0    0  0.27694124607E+01  0.43802650236E+02 -0.10137638403E+02  0.45045682651E+02  0.00000000000E+00 0. -1.
         11    1    3    3    0    0 -0.54058798056E+01 -0.32612785918E+02  0.50280572377E+01  0.33437982918E+02  0.51100000000E-03 0. -1.
        -11    1    3    3    0    0  0.18790109793E+01 -0.95045795487E+01  0.48622736628E+01  0.10840176202E+02  0.51100000000E-03 0.  1.
         12    1    3    3    0    0  0.75745636555E+00 -0.16852847699E+01  0.24730750251E+00  0.18641582289E+01  0.00000000000E+00 0. -1.
</event>
<event>
 7    1  0.1503436E-008  0.4614232E+02  0.7816164E-02  0.1320468E+00
        -11   -1    0    0    0    0  0.00000000000E+00  0.00000000000E+00  0.45593999997E+02  0.45594000000E+02  0.51100000000E-03 0.  1.
         11   -1    0    0    0    0 -0.00000000000E+00 -0.00000000000E+00 -0.45593999997E+02  0.45594000000E+02  0.51100000000E-03 0. -1.
    9900012    2    1    2    0    0 -0.31845405320E+02 -0.24792262212E+02  0.20008182355E+02  0.46142318001E+02  0.10000002190E+02 0.  0.
         12    1    1    2    0    0  0.31845405320E+02  0.24792262212E+02 -0.20008182355E+02  0.45045681999E+02  0.00000000000E+00 0. -1.
         11    1    3    3    0    0 -0.18597555622E+01 -0.27452585261E+01  0.38107357079E+01  0.50514198027E+01  0.51100000000E-03 0. -1.
        -11    1    3    3    0    0 -0.28852091808E+02 -0.20903322697E+02  0.13810421000E+02  0.38211514363E+02  0.51100000000E-03 0.  1.
        -12    1    3    3    0    0 -0.11335579495E+01 -0.11436809893E+01  0.23870256476E+01  0.28793838355E+01  0.00000000000E+00 0.  1.
</event>
<event>
 7    1  0.1503436E-008  0.4614232E+02  0.7816164E-02  0.1320468E+00
        -11   -1    0    0    0    0  0.00000000000E+00  0.00000000000E+00  0.45593999997E+02  0.45594000000E+02  0.51100000000E-03 0.  1.
         11   -1    0    0    0    0 -0.00000000000E+00 -0.00000000000E+00 -0.45593999997E+02  0.45594000000E+02  0.51100000000E-03 0. -1.
    9900012    2    1    2    0    0  0.29772783524E+02  0.23347372324E+02  0.24445757572E+02  0.46142317671E+02  0.99999991757E+01 0.  0.
         12    1    1    2    0    0 -0.29772783524E+02 -0.23347372324E+02 -0.24445757572E+02  0.45045682329E+02  0.00000000000E+00 0. -1.
         11    1    3    3    0    0  0.10564015888E+00  0.11410435197E+01  0.53972493882E+00  0.12666662654E+01  0.51100000000E-03 0. -1.
        -11    1    3    3    0    0  0.25658394828E+01  0.46358370584E+01  0.13114648655E+01  0.54584299792E+01  0.51100000000E-03 0.  1.
        -12    1    3    3    0    0  0.27101303883E+02  0.17570491746E+02  0.22594567768E+02  0.39417221426E+02  0.00000000000E+00 0.  1.
</event>
<event>
 7    1  0.1503436E-008  0.4614232E+02  0.7816164E-02  0.1320468E+00
        -11   -1    0    0    0    0  0.00000000000E+00  0.00000000000E+00  0.45593999997E+02  0.45594000000E+02  0.51100000000E-03 0. -1.
         11   -1    0    0    0    0 -0.00000000000E+00 -0.00000000000E+00 -0.45593999997E+02  0.45594000000E+02  0.51100000000E-03 0.  1.
    9900012    2    1    2    0    0 -0.18384601059E+02  0.40392128752E+02 -0.77198236160E+01  0.46142319876E+02  0.10000019283E+02 0.  0.
         12    1    1    2    0    0  0.18384601059E+02 -0.40392128752E+02  0.77198236160E+01  0.45045680124E+02  0.00000000000E+00 0. -1.
         11    1    3    3    0    0 -0.66463076318E+01  0.63011532549E+01 -0.24174479507E+00  0.91616798834E+01  0.51100000000E-03 0. -1.
        -11    1    3    3    0    0 -0.97568192790E+01  0.24789155682E+02 -0.64872053877E+01  0.27418635923E+02  0.51100000000E-03 0.  1.
         12    1    3    3    0    0 -0.19814741484E+01  0.93018198142E+01 -0.99087343318E+00  0.95620040691E+01  0.00000000000E+00 0. -1.
</event>
<event>
 7    1  0.1503436E-008  0.4614232E+02  0.7816164E-02  0.1320468E+00
        -11   -1    0    0    0    0  0.00000000000E+00  0.00000000000E+00  0.45593999997E+02  0.45594000000E+02  0.51100000000E-03 0.  1.
         11   -1    0    0    0    0 -0.00000000000E+00 -0.00000000000E+00 -0.45593999997E+02  0.45594000000E+02  0.51100000000E-03 0. -1.
    9900012    2    1    2    0    0 -0.30714690275E+02 -0.90555496494E+01  0.31681513502E+02  0.46142317900E+02  0.10000001265E+02 0.  0.
         12    1    1    2    0    0  0.30714690275E+02  0.90555496494E+01 -0.31681513502E+02  0.45045682100E+02  0.00000000000E+00 0. -1.
         11    1    3    3    0    0 -0.29352815545E+01 -0.11519458551E-01  0.12482002210E+01  0.31896731110E+01  0.51100000000E-03 0. -1.
        -11    1    3    3    0    0 -0.47121501104E+01  0.43638973332E+00  0.20165320732E+01  0.51440447632E+01  0.51100000000E-03 0.  1.
        -12    1    3    3    0    0 -0.23067258610E+02 -0.94804199242E+01  0.28416781208E+02  0.37808600026E+02  0.00000000000E+00 0.  1.
</event>
<event>
 7    1  0.1848504E-008  0.4614231E+02  0.7816164E-02  0.1320468E+00
        -11   -1    0    0    0    0  0.00000000000E+00  0.00000000000E+00  0.45593999997E+02  0.45594000000E+02  0.51100000000E-03 0. -1.
         11   -1    0    0    0    0 -0.00000000000E+00 -0.00000000000E+00 -0.45593999997E+02  0.45594000000E+02  0.51100000000E-03 0.  1.
    9900012    2    1    2    0    0  0.20018710813E+02 -0.87713049465E+01 -0.39388186347E+02  0.46142314338E+02  0.99999687865E+01 0.  0.
         12    1    1    2    0    0 -0.20018710813E+02  0.87713049465E+01  0.39388186347E+02  0.45045685662E+02  0.00000000000E+00 0. -1.
         11    1    3    3    0    0  0.86535545934E+00  0.10721440771E-01 -0.79779723308E+01  0.80247740026E+01  0.51100000000E-03 0. -1.
        -11    1    3    3    0    0  0.18885146748E+02 -0.75736234033E+01 -0.29866474306E+02  0.36138827138E+02  0.51100000000E-03 0.  1.
        -12    1    3    3    0    0  0.26820860525E+00 -0.12084029839E+01 -0.15437397097E+01  0.19787131977E+01  0.00000000000E+00 0.  1.
</event>
<event>
 7    1  0.1503436E-008  0.4614232E+02  0.7816164E-02  0.1320468E+00
        -11   -1    0    0    0    0  0.00000000000E+00  0.00000000000E+00  0.45593999997E+02  0.45594000000E+02  0.51100000000E-03 0. -1.
         11   -1    0    0    0    0 -0.00000000000E+00 -0.00000000000E+00 -0.45593999997E+02  0.45594000000E+02  0.51100000000E-03 0.  1.
    9900012    2    1    2    0    0 -0.24801839556E+02  0.35446670357E+02 -0.12550527722E+02  0.46142318400E+02  0.10000005823E+02 0.  0.
         12    1    1    2    0    0  0.24801839556E+02 -0.35446670357E+02  0.12550527722E+02  0.45045681600E+02  0.00000000000E+00 0. -1.
         11    1    3    3    0    0 -0.33371722332E+01  0.51512013681E+01 -0.53188070128E+01  0.81216563797E+01  0.51100000000E-03 0. -1.
        -11    1    3    3    0    0 -0.12152882297E+02  0.13836482028E+02 -0.36416847652E+01  0.18772390663E+02  0.51100000000E-03 0.  1.
         12    1    3    3    0    0 -0.93117850260E+01  0.16458986961E+02 -0.35900359441E+01  0.19248271357E+02  0.00000000000E+00 0. -1.
</event>
<event>
 7    1  0.1503436E-008  0.4614232E+02  0.7816164E-02  0.1320468E+00
        -11   -1    0    0    0    0  0.00000000000E+00  0.00000000000E+00  0.45593999997E+02  0.45594000000E+02  0.51100000000E-03 0.  1.
         11   -1    0    0    0    0 -0.00000000000E+00 -0.00000000000E+00 -0.45593999997E+02  0.45594000000E+02  0.51100000000E-03 0. -1.
    9900012    2    1    2    0    0  0.63136694028E+01  0.20737898479E+02  0.39486587639E+02  0.46142318098E+02  0.10000003072E+02 0.  0.
         12    1    1    2    0    0 -0.63136694028E+01 -0.20737898479E+02 -0.39486587639E+02  0.45045681902E+02  0.00000000000E+00 0. -1.
         11    1    3    3    0    0 -0.21017510516E+01  0.30595329528E+01  0.62566157331E+01  0.72748429581E+01  0.51100000000E-03 0. -1.
        -11    1    3    3    0    0  0.42977924326E+01  0.83825004913E+01  0.20616221852E+02  0.22666405494E+02  0.51100000000E-03 0.  1.
         12    1    3    3    0    0  0.41176280219E+01  0.92958650346E+01  0.12613750054E+02  0.16201069646E+02  0.00000000000E+00 0. -1.
</event>
<event>
 7    1  0.1503436E-008  0.4614232E+02  0.7816164E-02  0.1320468E+00
        -11   -1    0    0    0    0  0.00000000000E+00  0.00000000000E+00  0.45593999997E+02  0.45594000000E+02  0.51100000000E-03 0.  1.
         11   -1    0    0    0    0 -0.00000000000E+00 -0.00000000000E+00 -0.45593999997E+02  0.45594000000E+02  0.51100000000E-03 0. -1.
    9900012    2    1    2    0    0  0.17657206814E+01 -0.39444400154E+02  0.21682595371E+02  0.46142318575E+02  0.10000007421E+02 0.  0.
         12    1    1    2    0    0 -0.17657206814E+01  0.39444400154E+02 -0.21682595371E+02  0.45045681425E+02  0.00000000000E+00 0. -1.
         11    1    3    3    0    0 -0.94736283214E+00 -0.33756045640E+00 -0.31570987517E+00  0.10540950545E+01  0.51100000000E-03 0. -1.
        -11    1    3    3    0    0  0.14300056156E+01 -0.75005503554E+01  0.31027639216E+01  0.82419849495E+01  0.51100000000E-03 0.  1.
         12    1    3    3    0    0  0.12830778979E+01 -0.31606289342E+02  0.18895541324E+02  0.36846238571E+02  0.00000000000E+00 0. -1.
</event>
<event>
 7    1  0.1503436E-008  0.4614232E+02  0.7816164E-02  0.1320468E+00
        -11   -1    0    0    0    0  0.00000000000E+00  0.00000000000E+00  0.45593999997E+02  0.45594000000E+02  0.51100000000E-03 0.  1.
         11   -1    0    0    0    0 -0.00000000000E+00 -0.00000000000E+00 -0.45593999997E+02  0.45594000000E+02  0.51100000000E-03 0. -1.
    9900012    2    1    2    0    0 -0.29555205198E+02 -0.86307436042E+00  0.33983207217E+02  0.46142318471E+02  0.10000006476E+02 0.  0.
         12    1    1    2    0    0  0.29555205198E+02  0.86307436042E+00 -0.33983207217E+02  0.45045681529E+02  0.00000000000E+00 0. -1.
         11    1    3    3    0    0 -0.97453472355E+01 -0.32734853348E+01  0.15829655891E+02  0.18874996818E+02  0.51100000000E-03 0. -1.
        -11    1    3    3    0    0 -0.12118471078E+02  0.32468438152E+01  0.10171655571E+02  0.16151220181E+02  0.51100000000E-03 0.  1.
        -12    1    3    3    0    0 -0.76913868845E+01 -0.83643284077E+00  0.79818957547E+01  0.11116101472E+02  0.00000000000E+00 0.  1.
</event>
<event>
 7    1  0.1503436E-008  0.4614232E+02  0.7816164E-02  0.1320468E+00
        -11   -1    0    0    0    0  0.00000000000E+00  0.00000000000E+00  0.45593999997E+02  0.45594000000E+02  0.51100000000E-03 0. -1.
         11   -1    0    0    0    0 -0.00000000000E+00 -0.00000000000E+00 -0.45593999997E+02  0.45594000000E+02  0.51100000000E-03 0.  1.
    9900012    2    1    2    0    0  0.32226717026E+02 -0.30011049269E+02 -0.94809870030E+01  0.46142317820E+02  0.10000000541E+02 0.  0.
         12    1    1    2    0    0 -0.32226717026E+02  0.30011049269E+02  0.94809870030E+01  0.45045682180E+02  0.00000000000E+00 0. -1.
         11    1    3    3    0    0  0.69358862524E+01 -0.11790090919E+02 -0.11919626055E+01  0.13730751512E+02  0.51100000000E-03 0. -1.
        -11    1    3    3    0    0  0.12555581883E+02 -0.88495629195E+01 -0.57263378928E+01  0.16393545871E+02  0.51100000000E-03 0.  1.
        -12    1    3    3    0    0  0.12735248890E+02 -0.93713954308E+01 -0.25626865047E+01  0.16018020438E+02  0.00000000000E+00 0.  1.
</event>
<event>
 7    1  0.1503436E-008  0.4614232E+02  0.7816164E-02  0.1320468E+00
        -11   -1    0    0    0    0  0.00000000000E+00  0.00000000000E+00  0.45593999997E+02  0.45594000000E+02  0.51100000000E-03 0.  1.
         11   -1    0    0    0    0 -0.00000000000E+00 -0.00000000000E+00 -0.45593999997E+02  0.45594000000E+02  0.51100000000E-03 0. -1.
    9900012    2    1    2    0    0  0.33263540388E+02 -0.54106624236E+01  0.29889382708E+02  0.46142316681E+02  0.99999901510E+01 0.  0.
         12    1    1    2    0    0 -0.33263540388E+02  0.54106624236E+01 -0.29889382708E+02  0.45045683319E+02  0.00000000000E+00 0. -1.
         11    1    3    3    0    0  0.19125961591E+02 -0.17172214833E+00  0.11877019152E+02  0.22514339419E+02  0.51100000000E-03 0. -1.
        -11    1    3    3    0    0  0.12425036184E+02 -0.36797805434E+01  0.15669729797E+02  0.20333783249E+02  0.51100000000E-03 0.  1.
         12    1    3    3    0    0  0.17125426133E+01 -0.15591597318E+01  0.23426337592E+01  0.32941940139E+01  0.00000000000E+00 0. -1.
</event>
<event>
 7    1  0.1503436E-008  0.4614232E+02  0.7816164E-02  0.1320468E+00
        -11   -1    0    0    0    0  0.00000000000E+00  0.00000000000E+00  0.45593999997E+02  0.45594000000E+02  0.51100000000E-03 0.  1.
         11   -1    0    0    0    0 -0.00000000000E+00 -0.00000000000E+00 -0.45593999997E+02  0.45594000000E+02  0.51100000000E-03 0. -1.
    9900012    2    1    2    0    0 -0.18531570161E+02 -0.80453248951E+01  0.40261236647E+02  0.46142317392E+02  0.99999966305E+01 0.  0.
         12    1    1    2    0    0  0.18531570161E+02  0.80453248951E+01 -0.40261236647E+02  0.45045682608E+02  0.00000000000E+00 0. -1.
         11    1    3    3    0    0 -0.11512165358E+01 -0.19977182835E+01  0.63867598881E+01  0.67902047084E+01  0.51100000000E-03 0.  1.
        -11    1    3    3    0    0 -0.61450553239E+00 -0.15027436783E+01  0.45244848195E+00  0.16853977281E+01  0.51100000000E-03 0. -1.
        -12    1    3    3    0    0 -0.16765848093E+02 -0.45448629333E+01  0.33422028277E+02  0.37666714955E+02  0.00000000000E+00 0.  1.
</event>
<event>
 7    1  0.1503436E-008  0.4614232E+02  0.7816164E-02  0.1320468E+00
        -11   -1    0    0    0    0  0.00000000000E+00  0.00000000000E+00  0.45593999997E+02  0.45594000000E+02  0.51100000000E-03 0.  1.
         11   -1    0    0    0    0 -0.00000000000E+00 -0.00000000000E+00 -0.45593999997E+02  0.45594000000E+02  0.51100000000E-03 0. -1.
    9900012    2    1    2    0    0  0.18067489778E+02 -0.34282919281E+02  0.22964336494E+02  0.46142317721E+02  0.99999996387E+01 0.  0.
         12    1    1    2    0    0 -0.18067489778E+02  0.34282919281E+02 -0.22964336494E+02  0.45045682279E+02  0.00000000000E+00 0. -1.
         11    1    3    3    0    0  0.79504729784E+01 -0.96482478952E+01  0.36908007404E+01  0.13035364145E+02  0.51100000000E-03 0. -1.
        -11    1    3    3    0    0  0.51876999567E+01 -0.14556369351E+02  0.89333628028E+01  0.17849512340E+02  0.51100000000E-03 0.  1.
        -12    1    3    3    0    0  0.49293168432E+01 -0.10078302034E+02  0.10340172951E+02  0.15257441237E+02  0.00000000000E+00 0.  1.
</event>
<event>
 7    1  0.1503436E-008  0.4614232E+02  0.7816164E-02  0.1320468E+00
        -11   -1    0    0    0    0  0.00000000000E+00  0.00000000000E+00  0.45593999997E+02  0.45594000000E+02  0.51100000000E-03 0.  1.
         11   -1    0    0    0    0 -0.00000000000E+00 -0.00000000000E+00 -0.45593999997E+02  0.45594000000E+02  0.51100000000E-03 0. -1.
    9900012    2    1    2    0    0  0.59673600239E+01  0.43288397663E+02  0.10937033496E+02  0.46142318081E+02  0.10000002915E+02 0.  0.
         12    1    1    2    0    0 -0.59673600239E+01 -0.43288397663E+02 -0.10937033496E+02  0.45045681919E+02  0.00000000000E+00 0. -1.
         11    1    3    3    0    0 -0.16930826041E+00  0.80473229847E+01  0.35371866008E+01  0.87920283108E+01  0.51100000000E-03 0. -1.
        -11    1    3    3    0    0  0.73789710900E+01  0.32793289608E+02  0.79735098716E+01  0.34545997128E+02  0.51100000000E-03 0.  1.
        -12    1    3    3    0    0 -0.12423028057E+01  0.24477850705E+01 -0.57366297614E+00  0.28042926421E+01  0.00000000000E+00 0.  1.
</event>
<event>
 7    1  0.1503436E-008  0.4614231E+02  0.7816164E-02  0.1320468E+00
        -11   -1    0    0    0    0  0.00000000000E+00  0.00000000000E+00  0.45593999997E+02  0.45594000000E+02  0.51100000000E-03 0.  1.
         11   -1    0    0    0    0 -0.00000000000E+00 -0.00000000000E+00 -0.45593999997E+02  0.45594000000E+02  0.51100000000E-03 0. -1.
    9900012    2    1    2    0    0  0.39593410627E+02  0.65740389027E-01  0.21481884173E+02  0.46142313919E+02  0.99999649644E+01 0.  0.
         12    1    1    2    0    0 -0.39593410627E+02 -0.65740389027E-01 -0.21481884173E+02  0.45045686081E+02  0.00000000000E+00 0. -1.
         11    1    3    3    0    0  0.34239701434E+02  0.59931378077E+00  0.16369927200E+02  0.37956433553E+02  0.51100000000E-03 0. -1.
        -11    1    3    3    0    0  0.84479168327E+00  0.34558452137E+00  0.29889485473E+01  0.31252064459E+01  0.51100000000E-03 0.  1.
         12    1    3    3    0    0  0.45089175101E+01 -0.87915791311E+00  0.21230084258E+01  0.50606739200E+01  0.00000000000E+00 0. -1.
</event>
<event>
 7    1  0.1503436E-008  0.4614232E+02  0.7816164E-02  0.1320468E+00
        -11   -1    0    0    0    0  0.00000000000E+00  0.00000000000E+00  0.45593999997E+02  0.45594000000E+02  0.51100000000E-03 0. -1.
         11   -1    0    0    0    0 -0.00000000000E+00 -0.00000000000E+00 -0.45593999997E+02  0.45594000000E+02  0.51100000000E-03 0.  1.
    9900012    2    1    2    0    0  0.44658747313E+01  0.43851162394E+02  0.92868161806E+01  0.46142318351E+02  0.10000005382E+02 0.  0.
         12    1    1    2    0    0 -0.44658747313E+01 -0.43851162394E+02 -0.92868161806E+01  0.45045681649E+02  0.00000000000E+00 0. -1.
         11    1    3    3    0    0  0.63206321565E+00  0.10557764939E+02  0.85939216348E+00  0.10611524846E+02  0.51100000000E-03 0. -1.
        -11    1    3    3    0    0  0.19300714013E+01  0.16845904354E+02  0.87231151035E-02  0.16956112333E+02  0.51100000000E-03 0.  1.
        -12    1    3    3    0    0  0.19037401144E+01  0.16447493102E+02  0.84187009021E+01  0.18574681172E+02  0.00000000000E+00 0.  1.
</event>
<event>
 7    1  0.1503436E-008  0.4614232E+02  0.7816164E-02  0.1320468E+00
        -11   -1    0    0    0    0  0.00000000000E+00  0.00000000000E+00  0.45593999997E+02  0.45594000000E+02  0.51100000000E-03 0. -1.
         11   -1    0    0    0    0 -0.00000000000E+00 -0.00000000000E+00 -0.45593999997E+02  0.45594000000E+02  0.51100000000E-03 0.  1.
    9900012    2    1    2    0    0  0.17517428204E+02 -0.25709127722E+02 -0.32577507075E+02  0.46142317562E+02  0.99999981860E+01 0.  0.
         12    1    1    2    0    0 -0.17517428204E+02  0.25709127722E+02  0.32577507075E+02  0.45045682438E+02  0.00000000000E+00 0. -1.
         11    1    3    3    0    0  0.55523871537E+01 -0.36154343625E+01 -0.32097591140E+01  0.73622634132E+01  0.51100000000E-03 0. -1.
        -11    1    3    3    0    0  0.27899050380E+01 -0.32237226578E+01 -0.61835020964E+01  0.75107693569E+01  0.51100000000E-03 0.  1.
         12    1    3    3    0    0  0.91751360121E+01 -0.18869970702E+02 -0.23184245864E+02  0.31269284792E+02  0.00000000000E+00 0. -1.
</event>
<event>
 7    1  0.1618265E-008  0.4614232E+02  0.7816164E-02  0.1320468E+00
        -11   -1    0    0    0    0  0.00000000000E+00  0.00000000000E+00  0.45593999997E+02  0.45594000000E+02  0.51100000000E-03 0.  1.
         11   -1    0    0    0    0 -0.00000000000E+00 -0.00000000000E+00 -0.45593999997E+02  0.45594000000E+02  0.51100000000E-03 0. -1.
    9900012    2    1    2    0    0  0.66892111483E+01 -0.43454085747E+02  0.98035926816E+01  0.46142317150E+02  0.99999944310E+01 0.  0.
         12    1    1    2    0    0 -0.66892111483E+01  0.43454085747E+02 -0.98035926816E+01  0.45045682850E+02  0.00000000000E+00 0. -1.
         11    1    3    3    0    0  0.35634524851E+01 -0.64754244696E+01 -0.58045416315E-01  0.73913926432E+01  0.51100000000E-03 0. -1.
        -11    1    3    3    0    0  0.73920613840E+00 -0.30640216679E+02  0.88626584118E+01  0.31904796163E+02  0.51100000000E-03 0.  1.
        -12    1    3    3    0    0  0.23865525248E+01 -0.63384445991E+01  0.99897968619E+00  0.68461283440E+01  0.00000000000E+00 0.  1.
</event>
<event>
 7    1  0.1503436E-008  0.4614232E+02  0.7816164E-02  0.1320468E+00
        -11   -1    0    0    0    0  0.00000000000E+00  0.00000000000E+00  0.45593999997E+02  0.45594000000E+02  0.51100000000E-03 0.  1.
         11   -1    0    0    0    0 -0.00000000000E+00 -0.00000000000E+00 -0.45593999997E+02  0.45594000000E+02  0.51100000000E-03 0. -1.
    9900012    2    1    2    0    0 -0.99207850641E+01 -0.17915474885E+02  0.40121407690E+02  0.46142316836E+02  0.99999915656E+01 0.  0.
         12    1    1    2    0    0  0.99207850641E+01  0.17915474885E+02 -0.40121407690E+02  0.45045683164E+02  0.00000000000E+00 0. -1.
         11    1    3    3    0    0 -0.80756718456E+01 -0.58151079108E+01  0.17990732745E+02  0.20559630851E+02  0.51100000000E-03 0. -1.
        -11    1    3    3    0    0 -0.16404311558E+01 -0.10066363124E+02  0.20734327737E+02  0.23107034164E+02  0.51100000000E-03 0.  1.
         12    1    3    3    0    0 -0.20468206270E+00 -0.20340038506E+01  0.13963472088E+01  0.24756518210E+01  0.00000000000E+00 0. -1.
</event>
<event>
 7    1  0.1503436E-008  0.4614232E+02  0.7816164E-02  0.1320468E+00
        -11   -1    0    0    0    0  0.00000000000E+00  0.00000000000E+00  0.45593999997E+02  0.45594000000E+02  0.51100000000E-03 0. -1.
         11   -1    0    0    0    0 -0.00000000000E+00 -0.00000000000E+00 -0.45593999997E+02  0.45594000000E+02  0.51100000000E-03 0.  1.
    9900012    2    1    2    0    0 -0.28835447291E+02  0.34567084135E+02 -0.16574583407E+01  0.46142317696E+02  0.99999994061E+01 0.  0.
         12    1    1    2    0    0  0.28835447291E+02 -0.34567084135E+02  0.16574583407E+01  0.45045682304E+02  0.00000000000E+00 0. -1.
         11    1    3    3    0    0 -0.60538978268E+01  0.27970914015E+01 -0.35880344509E+00  0.66784833142E+01  0.51100000000E-03 0. -1.
        -11    1    3    3    0    0 -0.10135433027E+02  0.10925058849E+02  0.12238092723E+01  0.14952646016E+02  0.51100000000E-03 0.  1.
         12    1    3    3    0    0 -0.12646116438E+02  0.20844933884E+02 -0.25224641679E+01  0.24511188365E+02  0.00000000000E+00 0. -1.
</event>
<event>
 7    1  0.1503436E-008  0.4614232E+02  0.7816164E-02  0.1320468E+00
        -11   -1    0    0    0    0  0.00000000000E+00  0.00000000000E+00  0.45593999997E+02  0.45594000000E+02  0.51100000000E-03 0.  1.
         11   -1    0    0    0    0 -0.00000000000E+00 -0.00000000000E+00 -0.45593999997E+02  0.45594000000E+02  0.51100000000E-03 0. -1.
    9900012    2    1    2    0    0 -0.32820036582E+02  0.19794211054E+02  0.23667442184E+02  0.46142318609E+02  0.10000007729E+02 0.  0.
         12    1    1    2    0    0  0.32820036582E+02 -0.19794211054E+02 -0.23667442184E+02  0.45045681391E+02  0.00000000000E+00 0. -1.
         11    1    3    3    0    0 -0.26627041995E+01  0.16673012434E+01  0.55894506375E+00  0.31909727256E+01  0.51100000000E-03 0. -1.
        -11    1    3    3    0    0 -0.29630209470E+02  0.15475041321E+02  0.22063017613E+02  0.40052502588E+02  0.51100000000E-03 0.  1.
        -12    1    3    3    0    0 -0.52712291247E+00  0.26518684890E+01  0.10454795076E+01  0.28988432950E+01  0.00000000000E+00 0.  1.
</event>
<event>
 7    1  0.1503436E-008  0.4614232E+02  0.7816164E-02  0.1320468E+00
        -11   -1    0    0    0    0  0.00000000000E+00  0.00000000000E+00  0.45593999997E+02  0.45594000000E+02  0.51100000000E-03 0.  1.
         11   -1    0    0    0    0 -0.00000000000E+00 -0.00000000000E+00 -0.45593999997E+02  0.45594000000E+02  0.51100000000E-03 0. -1.
    9900012    2    1    2    0    0  0.12058291131E+02  0.16915880243E+02  0.39969538117E+02  0.46142319112E+02  0.10000012317E+02 0.  0.
         12    1    1    2    0    0 -0.12058291131E+02 -0.16915880243E+02 -0.39969538117E+02  0.45045680888E+02  0.00000000000E+00 0. -1.
         11    1    3    3    0    0  0.68992844348E+01  0.28304091703E+01  0.10749998148E+02  0.13083340637E+02  0.51100000000E-03 0. -1.
        -11    1    3    3    0    0  0.14851320418E+01  0.46611391625E+01  0.13571778729E+02  0.14426538518E+02  0.51100000000E-03 0.  1.
         12    1    3    3    0    0  0.36738746545E+01  0.94243319100E+01  0.15647761240E+02  0.18632439957E+02  0.00000000000E+00 0. -1.
</event>
<event>
 7    1  0.1503436E-008  0.4614231E+02  0.7816164E-02  0.1320468E+00
        -11   -1    0    0    0    0  0.00000000000E+00  0.00000000000E+00  0.45593999997E+02  0.45594000000E+02  0.51100000000E-03 0.  1.
         11   -1    0    0    0    0 -0.00000000000E+00 -0.00000000000E+00 -0.45593999997E+02  0.45594000000E+02  0.51100000000E-03 0. -1.
    9900012    2    1    2    0    0  0.15977130690E+02  0.20583497948E+02  0.36744589224E+02  0.46142312858E+02  0.99999552903E+01 0.  0.
         12    1    1    2    0    0 -0.15977130690E+02 -0.20583497948E+02 -0.36744589224E+02  0.45045687142E+02  0.00000000000E+00 0. -1.
         11    1    3    3    0    0  0.39650884695E+01  0.89711864931E+01  0.82738267156E+01  0.12832003836E+02  0.51100000000E-03 0.  1.
        -11    1    3    3    0    0  0.51965535372E+01  0.34093486696E+01  0.14149031895E+02  0.15453896946E+02  0.51100000000E-03 0. -1.
         12    1    3    3    0    0  0.68154886829E+01  0.82029627852E+01  0.14321730614E+02  0.17856412076E+02  0.00000000000E+00 0. -1.
</event>
<event>
 7    1  0.1503436E-008  0.4614232E+02  0.7816164E-02  0.1320468E+00
        -11   -1    0    0    0    0  0.00000000000E+00  0.00000000000E+00  0.45593999997E+02  0.45594000000E+02  0.51100000000E-03 0.  1.
         11   -1    0    0    0    0 -0.00000000000E+00 -0.00000000000E+00 -0.45593999997E+02  0.45594000000E+02  0.51100000000E-03 0. -1.
    9900012    2    1    2    0    0 -0.35941185765E+02 -0.14749638975E+02  0.22798964825E+02  0.46142317841E+02  0.10000000726E+02 0.  0.
         12    1    1    2    0    0  0.35941185765E+02  0.14749638975E+02 -0.22798964825E+02  0.45045682159E+02  0.00000000000E+00 0. -1.
         11    1    3    3    0    0 -0.17119197812E+02 -0.78951646550E+01  0.72690119253E+01  0.20204927451E+02  0.51100000000E-03 0. -1.
        -11    1    3    3    0    0 -0.15764109756E+02 -0.75673377890E+01  0.11971441593E+02  0.21191676944E+02  0.51100000000E-03 0.  1.
        -12    1    3    3    0    0 -0.30578781973E+01  0.71286346912E+00  0.35585113066E+01  0.47457134463E+01  0.00000000000E+00 0.  1.
</event>
<event>
 7    1  0.1503436E-008  0.4614232E+02  0.7816164E-02  0.1320468E+00
        -11   -1    0    0    0    0  0.00000000000E+00  0.00000000000E+00  0.45593999997E+02  0.45594000000E+02  0.51100000000E-03 0.  1.
         11   -1    0    0    0    0 -0.00000000000E+00 -0.00000000000E+00 -0.45593999997E+02  0.45594000000E+02  0.51100000000E-03 0. -1.
    9900012    2    1    2    0    0 -0.22631208209E+00  0.87793390331E+01  0.44181279823E+02  0.46142317656E+02  0.99999990436E+01 0.  0.
         12    1    1    2    0    0  0.22631208209E+00 -0.87793390331E+01 -0.44181279823E+02  0.45045682344E+02  0.00000000000E+00 0. -1.
         11    1    3    3    0    0 -0.42480342434E+01  0.71392353536E+01  0.29130600025E+02  0.30292017668E+02  0.51100000000E-03 0. -1.
        -11    1    3    3    0    0  0.12349823382E+01 -0.32810688228E+00  0.21039886569E+01  0.24616262981E+01  0.51100000000E-03 0.  1.
        -12    1    3    3    0    0  0.27867398231E+01  0.19682105618E+01  0.12946691141E+02  0.13388673690E+02  0.00000000000E+00 0.  1.
</event>
<event>
 7    1  0.1503436E-008  0.4614232E+02  0.7816164E-02  0.1320468E+00
        -11   -1    0    0    0    0  0.00000000000E+00  0.00000000000E+00  0.45593999997E+02  0.45594000000E+02  0.51100000000E-03 0.  1.
         11   -1    0    0    0    0 -0.00000000000E+00 -0.00000000000E+00 -0.45593999997E+02  0.45594000000E+02  0.51100000000E-03 0. -1.
    9900012    2    1    2    0    0  0.67463779682E+01  0.28645865491E+02  0.34102995008E+02  0.46142317699E+02  0.99999994359E+01 0.  0.
         12    1    1    2    0    0 -0.67463779682E+01 -0.28645865491E+02 -0.34102995008E+02  0.45045682301E+02  0.00000000000E+00 0. -1.
         11    1    3    3    0    0  0.61809097335E-01  0.13238726463E+02  0.19175968920E+02  0.23302048901E+02  0.51100000000E-03 0. -1.
        -11    1    3    3    0    0  0.63041462191E+01  0.97237519688E+01  0.10207053403E+02  0.15442718392E+02  0.51100000000E-03 0.  1.
        -12    1    3    3    0    0  0.38042265179E+00  0.56833870591E+01  0.47199726856E+01  0.73975504060E+01  0.00000000000E+00 0.  1.
</event>
<event>
 7    1  0.1503436E-008  0.4614232E+02  0.7816164E-02  0.1320468E+00
        -11   -1    0    0    0    0  0.00000000000E+00  0.00000000000E+00  0.45593999997E+02  0.45594000000E+02  0.51100000000E-03 0. -1.
         11   -1    0    0    0    0 -0.00000000000E+00 -0.00000000000E+00 -0.45593999997E+02  0.45594000000E+02  0.51100000000E-03 0.  1.
    9900012    2    1    2    0    0 -0.21091596721E+02  0.38013972096E+02 -0.11798112938E+02  0.46142323231E+02  0.10000049876E+02 0.  0.
         12    1    1    2    0    0  0.21091596721E+02 -0.38013972096E+02  0.11798112938E+02  0.45045676769E+02  0.00000000000E+00 0. -1.
         11    1    3    3    0    0 -0.23188778573E+01  0.51840581202E+01  0.81006661850E+00  0.57365373962E+01  0.51100000000E-03 0. -1.
        -11    1    3    3    0    0 -0.10926241317E+02  0.22572644122E+02 -0.11026201212E+02  0.27394965329E+02  0.51100000000E-03 0.  1.
        -12    1    3    3    0    0 -0.78464775463E+01  0.10257269854E+02 -0.15819783441E+01  0.13010820505E+02  0.00000000000E+00 0.  1.
</event>
<event>
 7    1  0.1503436E-008  0.4614232E+02  0.7816164E-02  0.1320468E+00
        -11   -1    0    0    0    0  0.00000000000E+00  0.00000000000E+00  0.45593999997E+02  0.45594000000E+02  0.51100000000E-03 0. -1.
         11   -1    0    0    0    0 -0.00000000000E+00 -0.00000000000E+00 -0.45593999997E+02  0.45594000000E+02  0.51100000000E-03 0.  1.
    9900012    2    1    2    0    0 -0.16492018551E+01  0.16794876543E+02 -0.41765126909E+02  0.46142316849E+02  0.99999916838E+01 0.  0.
         12    1    1    2    0    0  0.16492018551E+01 -0.16794876543E+02  0.41765126909E+02  0.45045683151E+02  0.00000000000E+00 0. -1.
         11    1    3    3    0    0 -0.29138528036E+01  0.28972425217E+01 -0.79525224451E+01  0.89513778767E+01  0.51100000000E-03 0. -1.
        -11    1    3    3    0    0  0.30969415446E+01  0.12389989888E+02 -0.25117121405E+02  0.28177520904E+02  0.51100000000E-03 0.  1.
        -12    1    3    3    0    0 -0.18322905960E+01  0.15076441334E+01 -0.86954830584E+01  0.90134180687E+01  0.00000000000E+00 0.  1.
</event>
<event>
 7    1  0.1503436E-008  0.4614232E+02  0.7816164E-02  0.1320468E+00
        -11   -1    0    0    0    0  0.00000000000E+00  0.00000000000E+00  0.45593999997E+02  0.45594000000E+02  0.51100000000E-03 0.  1.
         11   -1    0    0    0    0 -0.00000000000E+00 -0.00000000000E+00 -0.45593999997E+02  0.45594000000E+02  0.51100000000E-03 0. -1.
    9900012    2    1    2    0    0 -0.12236907989E+02 -0.30654474234E+02  0.30654111419E+02  0.46142320356E+02  0.10000023666E+02 0.  0.
         12    1    1    2    0    0  0.12236907989E+02  0.30654474234E+02 -0.30654111419E+02  0.45045679644E+02  0.00000000000E+00 0. -1.
         11    1    3    3    0    0 -0.38984863168E+01 -0.90439651831E+01  0.43979685204E+01  0.10785806839E+02  0.51100000000E-03 0. -1.
        -11    1    3    3    0    0 -0.19940194061E-02 -0.44468639892E+01  0.66341794375E+01  0.79866726730E+01  0.51100000000E-03 0.  1.
         12    1    3    3    0    0 -0.83364276528E+01 -0.17163645061E+02  0.19621963461E+02  0.27369840845E+02  0.00000000000E+00 0. -1.
</event>
<event>
 7    1  0.1503436E-008  0.4614232E+02  0.7816164E-02  0.1320468E+00
        -11   -1    0    0    0    0  0.00000000000E+00  0.00000000000E+00  0.45593999997E+02  0.45594000000E+02  0.51100000000E-03 0. -1.
         11   -1    0    0    0    0 -0.00000000000E+00 -0.00000000000E+00 -0.45593999997E+02  0.45594000000E+02  0.51100000000E-03 0.  1.
    9900012    2    1    2    0    0  0.36808555157E+02  0.10588847314E+02 -0.23709073319E+02  0.46142316768E+02  0.99999909482E+01 0.  0.
         12    1    1    2    0    0 -0.36808555157E+02 -0.10588847314E+02  0.23709073319E+02  0.45045683232E+02  0.00000000000E+00 0. -1.
         11    1    3    3    0    0  0.10182720443E+02  0.47662602942E+01 -0.57654301520E+01  0.12635078865E+02  0.51100000000E-03 0. -1.
        -11    1    3    3    0    0  0.23234888546E+02  0.30202632920E+01 -0.17152223554E+02  0.29037575815E+02  0.51100000000E-03 0.  1.
        -12    1    3    3    0    0  0.33909461674E+01  0.28023237278E+01 -0.79141961283E+00  0.44696620889E+01  0.00000000000E+00 0.  1.
</event>
<event>
 7    1  0.1503436E-008  0.4614232E+02  0.7816164E-02  0.1320468E+00
        -11   -1    0    0    0    0  0.00000000000E+00  0.00000000000E+00  0.45593999997E+02  0.45594000000E+02  0.51100000000E-03 0.  1.
         11   -1    0    0    0    0 -0.00000000000E+00 -0.00000000000E+00 -0.45593999997E+02  0.45594000000E+02  0.51100000000E-03 0. -1.
    9900012    2    1    2    0    0  0.62228310803E+01 -0.61897603834E+01  0.44182311760E+02  0.46142318379E+02  0.10000005636E+02 0.  0.
         12    1    1    2    0    0 -0.62228310803E+01  0.61897603834E+01 -0.44182311760E+02  0.45045681621E+02  0.00000000000E+00 0. -1.
         11    1    3    3    0    0  0.32108447780E+01 -0.22690716286E+01  0.27199412295E+02  0.27482107628E+02  0.51100000000E-03 0.  1.
        -11    1    3    3    0    0  0.41621962222E+01 -0.42169877466E+01  0.16168760526E+02  0.17220211389E+02  0.51100000000E-03 0. -1.
         12    1    3    3    0    0 -0.11502099199E+01  0.29629899180E+00  0.81413893834E+00  0.14399993622E+01  0.00000000000E+00 0. -1.
</event>
<event>
 7    1  0.1503436E-008  0.4614232E+02  0.7816164E-02  0.1320468E+00
        -11   -1    0    0    0    0  0.00000000000E+00  0.00000000000E+00  0.45593999997E+02  0.45594000000E+02  0.51100000000E-03 0.  1.
         11   -1    0    0    0    0 -0.00000000000E+00 -0.00000000000E+00 -0.45593999997E+02  0.45594000000E+02  0.51100000000E-03 0. -1.
    9900012    2    1    2    0    0 -0.85718678847E+01 -0.50726324926E+01  0.43930684566E+02  0.46142316901E+02  0.99999921592E+01 0.  0.
         12    1    1    2    0    0  0.85718678847E+01  0.50726324926E+01 -0.43930684566E+02  0.45045683099E+02  0.00000000000E+00 0. -1.
         11    1    3    3    0    0 -0.13135822926E+01 -0.55414798369E+01  0.18812617305E+02  0.19655738790E+02  0.51100000000E-03 0. -1.
        -11    1    3    3    0    0 -0.10983911250E+01  0.11558219551E+01  0.20316814142E+01  0.25826569817E+01  0.51100000000E-03 0.  1.
        -12    1    3    3    0    0 -0.61598944671E+01 -0.68697461073E+00  0.23086385846E+02  0.23903921130E+02  0.00000000000E+00 0.  1.
</event>
<event>
 7    1  0.1503436E-008  0.4614232E+02  0.7816164E-02  0.1320468E+00
        -11   -1    0    0    0    0  0.00000000000E+00  0.00000000000E+00  0.45593999997E+02  0.45594000000E+02  0.51100000000E-03 0.  1.
         11   -1    0    0    0    0 -0.00000000000E+00 -0.00000000000E+00 -0.45593999997E+02  0.45594000000E+02  0.51100000000E-03 0. -1.
    9900012    2    1    2    0    0  0.10117704081E+02  0.16662763591E+02  0.40609086436E+02  0.46142317327E+02  0.99999960392E+01 0.  0.
         12    1    1    2    0    0 -0.10117704081E+02 -0.16662763591E+02 -0.40609086436E+02  0.45045682673E+02  0.00000000000E+00 0. -1.
         11    1    3    3    0    0  0.67196078249E+01  0.10332807911E+02  0.16002298453E+02  0.20198851569E+02  0.51100000000E-03 0. -1.
        -11    1    3    3    0    0  0.40062383710E+01  0.54575265694E+01  0.23272356629E+02  0.24237102249E+02  0.51100000000E-03 0.  1.
         12    1    3    3    0    0 -0.60814211532E+00  0.87242910968E+00  0.13344313540E+01  0.17063635083E+01  0.00000000000E+00 0. -1.
</event>
<event>
 7    1  0.1503436E-008  0.4614232E+02  0.7816164E-02  0.1320468E+00
        -11   -1    0    0    0    0  0.00000000000E+00  0.00000000000E+00  0.45593999997E+02  0.45594000000E+02  0.51100000000E-03 0. -1.
         11   -1    0    0    0    0 -0.00000000000E+00 -0.00000000000E+00 -0.45593999997E+02  0.45594000000E+02  0.51100000000E-03 0.  1.
    9900012    2    1    2    0    0  0.90164203300E+01 -0.35129441113E+02 -0.26715905988E+02  0.46142322059E+02  0.10000039188E+02 0.  0.
         12    1    1    2    0    0 -0.90164203300E+01  0.35129441113E+02  0.26715905988E+02  0.45045677941E+02  0.00000000000E+00 0. -1.
         11    1    3    3    0    0  0.80168476006E+01 -0.22501543457E+02 -0.19371540770E+02  0.30754607711E+02  0.51100000000E-03 0. -1.
        -11    1    3    3    0    0  0.19570041866E+01 -0.63315026715E+01 -0.58644238868E+01  0.88492519034E+01  0.51100000000E-03 0.  1.
         12    1    3    3    0    0 -0.95743145712E+00 -0.62963949841E+01 -0.14799413310E+01  0.65384624442E+01  0.00000000000E+00 0. -1.
</event>
<event>
 7    1  0.1503436E-008  0.4614232E+02  0.7816164E-02  0.1320468E+00
        -11   -1    0    0    0    0  0.00000000000E+00  0.00000000000E+00  0.45593999997E+02  0.45594000000E+02  0.51100000000E-03 0.  1.
         11   -1    0    0    0    0 -0.00000000000E+00 -0.00000000000E+00 -0.45593999997E+02  0.45594000000E+02  0.51100000000E-03 0. -1.
    9900012    2    1    2    0    0 -0.34563846221E+02 -0.22631554226E+02  0.17951793120E+02  0.46142316650E+02  0.99999898666E+01 0.  0.
         12    1    1    2    0    0  0.34563846221E+02  0.22631554226E+02 -0.17951793120E+02  0.45045683350E+02  0.00000000000E+00 0. -1.
         11    1    3    3    0    0 -0.64388844348E+01 -0.30400872957E+01  0.71575353883E+01  0.10096121861E+02  0.51100000000E-03 0. -1.
        -11    1    3    3    0    0 -0.21358399601E+02 -0.13404697435E+02  0.82382148135E+01  0.26528010299E+02  0.51100000000E-03 0.  1.
         12    1    3    3    0    0 -0.67665621852E+01 -0.61867694954E+01  0.25560429179E+01  0.95181844904E+01  0.00000000000E+00 0. -1.
</event>
<event>
 7    1  0.1503436E-008  0.4614232E+02  0.7816164E-02  0.1320468E+00
        -11   -1    0    0    0    0  0.00000000000E+00  0.00000000000E+00  0.45593999997E+02  0.45594000000E+02  0.51100000000E-03 0. -1.
         11   -1    0    0    0    0 -0.00000000000E+00 -0.00000000000E+00 -0.45593999997E+02  0.45594000000E+02  0.51100000000E-03 0.  1.
    9900012    2    1    2    0    0 -0.21469025193E+02 -0.12482815158E+02 -0.37581561819E+02  0.46142317568E+02  0.99999982433E+01 0.  0.
         12    1    1    2    0    0  0.21469025193E+02  0.12482815158E+02  0.37581561819E+02  0.45045682432E+02  0.00000000000E+00 0. -1.
         11    1    3    3    0    0 -0.56483382182E+01 -0.48725145129E+01 -0.59511776671E+01  0.95426221864E+01  0.51100000000E-03 0. -1.
        -11    1    3    3    0    0 -0.13124820471E+02 -0.39669802376E+01 -0.21475533899E+02  0.25479332823E+02  0.51100000000E-03 0.  1.
         12    1    3    3    0    0 -0.26958665042E+01 -0.36433204071E+01 -0.10154850252E+02  0.11120362559E+02  0.00000000000E+00 0. -1.
</event>
<event>
 7    1  0.1503436E-008  0.4614232E+02  0.7816164E-02  0.1320468E+00
        -11   -1    0    0    0    0  0.00000000000E+00  0.00000000000E+00  0.45593999997E+02  0.45594000000E+02  0.51100000000E-03 0. -1.
         11   -1    0    0    0    0 -0.00000000000E+00 -0.00000000000E+00 -0.45593999997E+02  0.45594000000E+02  0.51100000000E-03 0.  1.
    9900012    2    1    2    0    0 -0.43129090520E+02  0.12468898425E+02  0.36771706739E+01  0.46142318063E+02  0.10000002749E+02 0.  0.
         12    1    1    2    0    0  0.43129090520E+02 -0.12468898425E+02 -0.36771706739E+01  0.45045681937E+02  0.00000000000E+00 0. -1.
         11    1    3    3    0    0 -0.15828165662E+02  0.73758366245E+01  0.88456043331E+00  0.17484743108E+02  0.51100000000E-03 0. -1.
        -11    1    3    3    0    0 -0.40654325364E+01 -0.14188703939E+01  0.12210369031E+01  0.44756972957E+01  0.51100000000E-03 0.  1.
        -12    1    3    3    0    0 -0.23235492322E+02  0.65119321939E+01  0.15715733375E+01  0.24181877659E+02  0.00000000000E+00 0.  1.
</event>
<event>
 7    1  0.1503436E-008  0.4614232E+02  0.7816164E-02  0.1320468E+00
        -11   -1    0    0    0    0  0.00000000000E+00  0.00000000000E+00  0.45593999997E+02  0.45594000000E+02  0.51100000000E-03 0.  1.
         11   -1    0    0    0    0 -0.00000000000E+00 -0.00000000000E+00 -0.45593999997E+02  0.45594000000E+02  0.51100000000E-03 0. -1.
    9900012    2    1    2    0    0  0.19823232025E+02  0.33983858511E+02  0.21937416460E+02  0.46142318651E+02  0.10000008116E+02 0.  0.
         12    1    1    2    0    0 -0.19823232025E+02 -0.33983858511E+02 -0.21937416460E+02  0.45045681349E+02  0.00000000000E+00 0. -1.
         11    1    3    3    0    0  0.24240700916E+01  0.15029688183E+01  0.69507819890E+00  0.29356711399E+01  0.51100000000E-03 0. -1.
        -11    1    3    3    0    0  0.17212970021E+02  0.32902375804E+02  0.21159522905E+02  0.42738484769E+02  0.51100000000E-03 0.  1.
        -12    1    3    3    0    0  0.18619191263E+00 -0.42148611131E+00  0.82815356678E-01  0.46816274271E+00  0.00000000000E+00 0.  1.
</event>
<event>
 7    1  0.1503436E-008  0.4614232E+02  0.7816164E-02  0.1320468E+00
        -11   -1    0    0    0    0  0.00000000000E+00  0.00000000000E+00  0.45593999997E+02  0.45594000000E+02  0.51100000000E-03 0.  1.
         11   -1    0    0    0    0 -0.00000000000E+00 -0.00000000000E+00 -0.45593999997E+02  0.45594000000E+02  0.51100000000E-03 0. -1.
    9900012    2    1    2    0    0  0.22451920091E+02  0.28101399597E+02  0.27117081993E+02  0.46142317511E+02  0.99999977156E+01 0.  0.
         12    1    1    2    0    0 -0.22451920091E+02 -0.28101399597E+02 -0.27117081993E+02  0.45045682489E+02  0.00000000000E+00 0. -1.
         11    1    3    3    0    0  0.15294781495E+02  0.13109037353E+02  0.18271747135E+02  0.27196211959E+02  0.51100000000E-03 0. -1.
        -11    1    3    3    0    0  0.25546323788E+01  0.69431829325E+01  0.48729907325E+01  0.88588924119E+01  0.51100000000E-03 0.  1.
         12    1    3    3    0    0  0.46025062176E+01  0.80491793112E+01  0.39723441261E+01  0.10087213140E+02  0.00000000000E+00 0. -1.
</event>
<event>
 7    1  0.1503436E-008  0.4614232E+02  0.7816164E-02  0.1320468E+00
        -11   -1    0    0    0    0  0.00000000000E+00  0.00000000000E+00  0.45593999997E+02  0.45594000000E+02  0.51100000000E-03 0. -1.
         11   -1    0    0    0    0 -0.00000000000E+00 -0.00000000000E+00 -0.45593999997E+02  0.45594000000E+02  0.51100000000E-03 0.  1.
    9900012    2    1    2    0    0 -0.18789715604E+02 -0.22976455918E+01 -0.40875187855E+02  0.46142316856E+02  0.99999917442E+01 0.  0.
         12    1    1    2    0    0  0.18789715604E+02  0.22976455918E+01  0.40875187855E+02  0.45045683144E+02  0.00000000000E+00 0. -1.
         11    1    3    3    0    0 -0.97071013759E+01 -0.30951447439E+01 -0.13915006204E+02  0.17246307895E+02  0.51100000000E-03 0. -1.
        -11    1    3    3    0    0 -0.51758429500E+01 -0.19830913062E+01 -0.12891825334E+02  0.14032860082E+02  0.51100000000E-03 0.  1.
         12    1    3    3    0    0 -0.39067712777E+01  0.27805904583E+01 -0.14068356318E+02  0.14863148879E+02  0.00000000000E+00 0. -1.
</event>
<event>
 7    1  0.1503436E-008  0.4614232E+02  0.7816164E-02  0.1320468E+00
        -11   -1    0    0    0    0  0.00000000000E+00  0.00000000000E+00  0.45593999997E+02  0.45594000000E+02  0.51100000000E-03 0.  1.
         11   -1    0    0    0    0 -0.00000000000E+00 -0.00000000000E+00 -0.45593999997E+02  0.45594000000E+02  0.51100000000E-03 0. -1.
    9900012    2    1    2    0    0  0.12072521905E+02  0.40584499500E+02  0.15370948799E+02  0.46142318168E+02  0.10000003706E+02 0.  0.
         12    1    1    2    0    0 -0.12072521905E+02 -0.40584499500E+02 -0.15370948799E+02  0.45045681832E+02  0.00000000000E+00 0. -1.
         11    1    3    3    0    0  0.43866515546E+01  0.17804046393E+02  0.99327319739E+01  0.20853919166E+02  0.51100000000E-03 0. -1.
        -11    1    3    3    0    0  0.73408151957E+00  0.10939572914E+02  0.25663377490E+01  0.11260516014E+02  0.51100000000E-03 0.  1.
         12    1    3    3    0    0  0.69517888308E+01  0.11840880193E+02  0.28718790758E+01  0.14027882988E+02  0.00000000000E+00 0. -1.
</event>
<event>
 7    1  0.1503436E-008  0.4614232E+02  0.7816164E-02  0.1320468E+00
        -11   -1    0    0    0    0  0.00000000000E+00  0.00000000000E+00  0.45593999997E+02  0.45594000000E+02  0.51100000000E-03 0. -1.
         11   -1    0    0    0    0 -0.00000000000E+00 -0.00000000000E+00 -0.45593999997E+02  0.45594000000E+02  0.51100000000E-03 0.  1.
    9900012    2    1    2    0    0 -0.41510731964E+01 -0.33963970324E+02  0.29297283250E+02  0.46142317691E+02  0.99999993598E+01 0.  0.
         12    1    1    2    0    0  0.41510731964E+01  0.33963970324E+02 -0.29297283250E+02  0.45045682309E+02  0.00000000000E+00 0. -1.
         11    1    3    3    0    0  0.79593296490E+00 -0.11263691051E+02  0.12694652936E+02  0.16989951701E+02  0.51100000000E-03 0. -1.
        -11    1    3    3    0    0 -0.59229754412E+01 -0.21669406086E+02  0.15002672699E+02  0.27013422341E+02  0.51100000000E-03 0.  1.
         12    1    3    3    0    0  0.97596927993E+00 -0.10308731869E+01  0.15999576152E+01  0.21389436489E+01  0.00000000000E+00 0. -1.
</event>
<event>
 7    1  0.1503436E-008  0.4614232E+02  0.7816164E-02  0.1320468E+00
        -11   -1    0    0    0    0  0.00000000000E+00  0.00000000000E+00  0.45593999997E+02  0.45594000000E+02  0.51100000000E-03 0. -1.
         11   -1    0    0    0    0 -0.00000000000E+00 -0.00000000000E+00 -0.45593999997E+02  0.45594000000E+02  0.51100000000E-03 0.  1.
    9900012    2    1    2    0    0  0.79371982111E+01 -0.14679402347E+02 -0.41840525337E+02  0.46142317308E+02  0.99999958642E+01 0.  0.
         12    1    1    2    0    0 -0.79371982111E+01  0.14679402347E+02  0.41840525337E+02  0.45045682692E+02  0.00000000000E+00 0. -1.
         11    1    3    3    0    0  0.62526662779E+00 -0.24949661065E+01 -0.11981364839E+02  0.12254342818E+02  0.51100000000E-03 0. -1.
        -11    1    3    3    0    0  0.76847298069E+01 -0.91706934607E+01 -0.17765689821E+02  0.21419066876E+02  0.51100000000E-03 0.  1.
        -12    1    3    3    0    0 -0.37279822358E+00 -0.30137427802E+01 -0.12093470677E+02  0.12468907614E+02  0.00000000000E+00 0.  1.
</event>
<event>
 7    1  0.1503436E-008  0.4614232E+02  0.7816164E-02  0.1320468E+00
        -11   -1    0    0    0    0  0.00000000000E+00  0.00000000000E+00  0.45593999997E+02  0.45594000000E+02  0.51100000000E-03 0.  1.
         11   -1    0    0    0    0 -0.00000000000E+00 -0.00000000000E+00 -0.45593999997E+02  0.45594000000E+02  0.51100000000E-03 0. -1.
    9900012    2    1    2    0    0  0.31624058701E+02  0.58277205060E+01  0.31544729571E+02  0.46142318978E+02  0.10000011100E+02 0.  0.
         12    1    1    2    0    0 -0.31624058701E+02 -0.58277205060E+01 -0.31544729571E+02  0.45045681022E+02  0.00000000000E+00 0. -1.
         11    1    3    3    0    0  0.28239317657E+01  0.15523001529E+01  0.64550802080E+01  0.72147271005E+01  0.51100000000E-03 0. -1.
        -11    1    3    3    0    0  0.14875002358E+02  0.34495254726E+01  0.93897985179E+01  0.17925770210E+02  0.51100000000E-03 0.  1.
        -12    1    3    3    0    0  0.13925124577E+02  0.82589488056E+00  0.15699850845E+02  0.21001821668E+02  0.00000000000E+00 0.  1.
</event>
<event>
 7    1  0.1503436E-008  0.4614232E+02  0.7816164E-02  0.1320468E+00
        -11   -1    0    0    0    0  0.00000000000E+00  0.00000000000E+00  0.45593999997E+02  0.45594000000E+02  0.51100000000E-03 0.  1.
         11   -1    0    0    0    0 -0.00000000000E+00 -0.00000000000E+00 -0.45593999997E+02  0.45594000000E+02  0.51100000000E-03 0. -1.
    9900012    2    1    2    0    0  0.33349644795E+02 -0.28984818855E+01  0.30141555679E+02  0.46142318920E+02  0.10000010568E+02 0.  0.
         12    1    1    2    0    0 -0.33349644795E+02  0.28984818855E+01 -0.30141555679E+02  0.45045681080E+02  0.00000000000E+00 0. -1.
         11    1    3    3    0    0 -0.54776606441E+00 -0.36039253378E-01  0.10494990599E+01  0.11843964822E+01  0.51100000000E-03 0. -1.
        -11    1    3    3    0    0  0.18343762142E+02 -0.36473465840E+01  0.15840526132E+02  0.24509569866E+02  0.51100000000E-03 0.  1.
        -12    1    3    3    0    0  0.15553648717E+02  0.78490395186E+00  0.13251530488E+02  0.20448352572E+02  0.00000000000E+00 0.  1.
</event>
<event>
 7    1  0.1503436E-008  0.4614232E+02  0.7816164E-02  0.1320468E+00
        -11   -1    0    0    0    0  0.00000000000E+00  0.00000000000E+00  0.45593999997E+02  0.45594000000E+02  0.51100000000E-03 0.  1.
         11   -1    0    0    0    0 -0.00000000000E+00 -0.00000000000E+00 -0.45593999997E+02  0.45594000000E+02  0.51100000000E-03 0. -1.
    9900012    2    1    2    0    0 -0.34018643420E+01 -0.44889016840E+02 -0.15864990796E+01  0.46142317708E+02  0.99999995114E+01 0.  0.
         12    1    1    2    0    0  0.34018643420E+01  0.44889016840E+02  0.15864990796E+01  0.45045682292E+02  0.00000000000E+00 0. -1.
         11    1    3    3    0    0 -0.24031205613E+01 -0.17071564347E+02  0.24530726209E+01  0.17413525295E+02  0.51100000000E-03 0. -1.
        -11    1    3    3    0    0 -0.21648732432E+01 -0.36208118795E+01 -0.60394287512E+00  0.42616548527E+01  0.51100000000E-03 0.  1.
         12    1    3    3    0    0  0.11661294625E+01 -0.24196640614E+02 -0.34356288254E+01  0.24467137559E+02  0.00000000000E+00 0. -1.
</event>
<event>
 7    1  0.1503436E-008  0.4614232E+02  0.7816164E-02  0.1320468E+00
        -11   -1    0    0    0    0  0.00000000000E+00  0.00000000000E+00  0.45593999997E+02  0.45594000000E+02  0.51100000000E-03 0.  1.
         11   -1    0    0    0    0 -0.00000000000E+00 -0.00000000000E+00 -0.45593999997E+02  0.45594000000E+02  0.51100000000E-03 0. -1.
    9900012    2    1    2    0    0  0.33248623146E+02 -0.17796885397E+02  0.24635607635E+02  0.46142320579E+02  0.10000025698E+02 0.  0.
         12    1    1    2    0    0 -0.33248623146E+02  0.17796885397E+02 -0.24635607635E+02  0.45045679421E+02  0.00000000000E+00 0. -1.
         11    1    3    3    0    0  0.16233192686E+02 -0.11911582735E+02  0.11067328610E+02  0.22975815782E+02  0.51100000000E-03 0.  1.
        -11    1    3    3    0    0  0.33950099730E+01  0.82382346020E+00  0.35207394818E+01  0.49598774753E+01  0.51100000000E-03 0. -1.
         12    1    3    3    0    0  0.13620420487E+02 -0.67091261227E+01  0.10047539543E+02  0.18206627322E+02  0.00000000000E+00 0. -1.
</event>
<event>
 7    1  0.1503436E-008  0.4614232E+02  0.7816164E-02  0.1320468E+00
        -11   -1    0    0    0    0  0.00000000000E+00  0.00000000000E+00  0.45593999997E+02  0.45594000000E+02  0.51100000000E-03 0. -1.
         11   -1    0    0    0    0 -0.00000000000E+00 -0.00000000000E+00 -0.45593999997E+02  0.45594000000E+02  0.51100000000E-03 0.  1.
    9900012    2    1    2    0    0  0.39521388105E+02 -0.55749088861E+01 -0.20882858038E+02  0.46142317780E+02  0.10000000170E+02 0.  0.
         12    1    1    2    0    0 -0.39521388105E+02  0.55749088861E+01  0.20882858038E+02  0.45045682220E+02  0.00000000000E+00 0. -1.
         11    1    3    3    0    0  0.28399639031E+01  0.90301150811E+00  0.47561957522E+00  0.30177871026E+01  0.51100000000E-03 0. -1.
        -11    1    3    3    0    0  0.29256554903E+02 -0.67509213313E+01 -0.16749501653E+02  0.34381197616E+02  0.51100000000E-03 0.  1.
        -12    1    3    3    0    0  0.74248692991E+01  0.27300093704E+00 -0.46089759602E+01  0.87433330614E+01  0.00000000000E+00 0.  1.
</event>
<event>
 7    1  0.1503436E-008  0.4614232E+02  0.7816164E-02  0.1320468E+00
        -11   -1    0    0    0    0  0.00000000000E+00  0.00000000000E+00  0.45593999997E+02  0.45594000000E+02  0.51100000000E-03 0.  1.
         11   -1    0    0    0    0 -0.00000000000E+00 -0.00000000000E+00 -0.45593999997E+02  0.45594000000E+02  0.51100000000E-03 0. -1.
    9900012    2    1    2    0    0  0.28799949614E+02 -0.15124532771E+02  0.31159662534E+02  0.46142321422E+02  0.10000033382E+02 0.  0.
         12    1    1    2    0    0 -0.28799949614E+02  0.15124532771E+02 -0.31159662534E+02  0.45045678578E+02  0.00000000000E+00 0. -1.
         11    1    3    3    0    0  0.37919571422E+01  0.57597554551E+00  0.21072692789E+01  0.43762165020E+01  0.51100000000E-03 0. -1.
        -11    1    3    3    0    0  0.18405567039E+02 -0.14019499280E+02  0.23486179992E+02  0.32968347076E+02  0.51100000000E-03 0.  1.
        -12    1    3    3    0    0  0.66024254332E+01 -0.16810090371E+01  0.55662132632E+01  0.87977578436E+01  0.00000000000E+00 0.  1.
</event>
<event>
 7    1  0.1503436E-008  0.4614232E+02  0.7816164E-02  0.1320468E+00
        -11   -1    0    0    0    0  0.00000000000E+00  0.00000000000E+00  0.45593999997E+02  0.45594000000E+02  0.51100000000E-03 0.  1.
         11   -1    0    0    0    0 -0.00000000000E+00 -0.00000000000E+00 -0.45593999997E+02  0.45594000000E+02  0.51100000000E-03 0. -1.
    9900012    2    1    2    0    0  0.18797007302E+02  0.39810602743E+02  0.95342539928E+01  0.46142316816E+02  0.99999913817E+01 0.  0.
         12    1    1    2    0    0 -0.18797007302E+02 -0.39810602743E+02 -0.95342539928E+01  0.45045683184E+02  0.00000000000E+00 0. -1.
         11    1    3    3    0    0  0.23170387808E+01  0.30517595947E+01 -0.63801700761E+00  0.38844525095E+01  0.51100000000E-03 0. -1.
        -11    1    3    3    0    0  0.73372875513E+01  0.12119133497E+02  0.69491021781E+01  0.15779708701E+02  0.51100000000E-03 0.  1.
        -12    1    3    3    0    0  0.91426809701E+01  0.24639709651E+02  0.32231688223E+01  0.26478155606E+02  0.00000000000E+00 0.  1.
</event>
<event>
 7    1  0.1503436E-008  0.4614232E+02  0.7816164E-02  0.1320468E+00
        -11   -1    0    0    0    0  0.00000000000E+00  0.00000000000E+00  0.45593999997E+02  0.45594000000E+02  0.51100000000E-03 0.  1.
         11   -1    0    0    0    0 -0.00000000000E+00 -0.00000000000E+00 -0.45593999997E+02  0.45594000000E+02  0.51100000000E-03 0. -1.
    9900012    2    1    2    0    0 -0.37474286546E+02 -0.21269119862E+02  0.13130717294E+02  0.46142319314E+02  0.10000014159E+02 0.  0.
         12    1    1    2    0    0  0.37474286546E+02  0.21269119862E+02 -0.13130717294E+02  0.45045680686E+02  0.00000000000E+00 0. -1.
         11    1    3    3    0    0 -0.87696541076E+00 -0.28687783579E-01 -0.39801624364E+00  0.96348768125E+00  0.51100000000E-03 0. -1.
        -11    1    3    3    0    0 -0.45243132303E+01 -0.61788679793E+01  0.28483594168E+01  0.81707387267E+01  0.51100000000E-03 0.  1.
        -12    1    3    3    0    0 -0.32073007905E+02 -0.15061564099E+02  0.10680374121E+02  0.37008092906E+02  0.00000000000E+00 0.  1.
</event>
<event>
 7    1  0.1503436E-008  0.4614232E+02  0.7816164E-02  0.1320468E+00
        -11   -1    0    0    0    0  0.00000000000E+00  0.00000000000E+00  0.45593999997E+02  0.45594000000E+02  0.51100000000E-03 0.  1.
         11   -1    0    0    0    0 -0.00000000000E+00 -0.00000000000E+00 -0.45593999997E+02  0.45594000000E+02  0.51100000000E-03 0. -1.
    9900012    2    1    2    0    0  0.85921317823E+01  0.35493933813E+02  0.26371752646E+02  0.46142318701E+02  0.10000008573E+02 0.  0.
         12    1    1    2    0    0 -0.85921317823E+01 -0.35493933813E+02 -0.26371752646E+02  0.45045681299E+02  0.00000000000E+00 0. -1.
         11    1    3    3    0    0 -0.16671774159E+01  0.34169531011E+01  0.28779066144E+01  0.47683745420E+01  0.51100000000E-03 0. -1.
        -11    1    3    3    0    0  0.79798366169E+01  0.28812094812E+02  0.22008793358E+02  0.37124137502E+02  0.51100000000E-03 0.  1.
        -12    1    3    3    0    0  0.22794725813E+01  0.32648858992E+01  0.14850526734E+01  0.42498066575E+01  0.00000000000E+00 0.  1.
</event>
<event>
 7    1  0.1503436E-008  0.4614232E+02  0.7816164E-02  0.1320468E+00
        -11   -1    0    0    0    0  0.00000000000E+00  0.00000000000E+00  0.45593999997E+02  0.45594000000E+02  0.51100000000E-03 0.  1.
         11   -1    0    0    0    0 -0.00000000000E+00 -0.00000000000E+00 -0.45593999997E+02  0.45594000000E+02  0.51100000000E-03 0. -1.
    9900012    2    1    2    0    0 -0.14567104967E+02 -0.26189192453E+02  0.33630925260E+02  0.46142317829E+02  0.10000000616E+02 0.  0.
         12    1    1    2    0    0  0.14567104967E+02  0.26189192453E+02 -0.33630925260E+02  0.45045682171E+02  0.00000000000E+00 0. -1.
         11    1    3    3    0    0 -0.47070908154E+01 -0.11571588457E+02  0.80276237150E+01  0.14849279650E+02  0.51100000000E-03 0. -1.
        -11    1    3    3    0    0 -0.92850522805E+01 -0.12108596045E+02  0.20272411147E+02  0.25373232904E+02  0.51100000000E-03 0.  1.
        -12    1    3    3    0    0 -0.57496187112E+00 -0.25090079508E+01  0.53308903980E+01  0.59198052743E+01  0.00000000000E+00 0.  1.
</event>
<event>
 7    1  0.1503436E-008  0.4614232E+02  0.7816164E-02  0.1320468E+00
        -11   -1    0    0    0    0  0.00000000000E+00  0.00000000000E+00  0.45593999997E+02  0.45594000000E+02  0.51100000000E-03 0.  1.
         11   -1    0    0    0    0 -0.00000000000E+00 -0.00000000000E+00 -0.45593999997E+02  0.45594000000E+02  0.51100000000E-03 0. -1.
    9900012    2    1    2    0    0  0.21809310487E+01 -0.26592002416E+02  0.36293560026E+02  0.46142317054E+02  0.99999935535E+01 0.  0.
         12    1    1    2    0    0 -0.21809310487E+01  0.26592002416E+02 -0.36293560026E+02  0.45045682946E+02  0.00000000000E+00 0. -1.
         11    1    3    3    0    0 -0.11679161490E+01 -0.39570134812E+00  0.82343549771E+00  0.14827858807E+01  0.51100000000E-03 0. -1.
        -11    1    3    3    0    0  0.40373530181E+01 -0.18436483044E+02  0.28637644269E+02  0.34297504223E+02  0.51100000000E-03 0.  1.
        -12    1    3    3    0    0 -0.68850582038E+00 -0.77598180233E+01  0.68324802593E+01  0.10362026950E+02  0.00000000000E+00 0.  1.
</event>
<event>
 7    1  0.1503436E-008  0.4614232E+02  0.7816164E-02  0.1320468E+00
        -11   -1    0    0    0    0  0.00000000000E+00  0.00000000000E+00  0.45593999997E+02  0.45594000000E+02  0.51100000000E-03 0.  1.
         11   -1    0    0    0    0 -0.00000000000E+00 -0.00000000000E+00 -0.45593999997E+02  0.45594000000E+02  0.51100000000E-03 0. -1.
    9900012    2    1    2    0    0  0.28973274352E+02 -0.29409900241E+02  0.18020007208E+02  0.46142317425E+02  0.99999969362E+01 0.  0.
         12    1    1    2    0    0 -0.28973274352E+02  0.29409900241E+02 -0.18020007208E+02  0.45045682575E+02  0.00000000000E+00 0. -1.
         11    1    3    3    0    0  0.14960359027E+02 -0.17679711919E+02  0.79624767638E+01  0.24490520456E+02  0.51100000000E-03 0. -1.
        -11    1    3    3    0    0  0.33340102825E+01 -0.44329792621E+01  0.58235528956E+01  0.80424311182E+01  0.51100000000E-03 0.  1.
        -12    1    3    3    0    0  0.10678905042E+02 -0.72972090601E+01  0.42339775489E+01  0.13609365851E+02  0.00000000000E+00 0.  1.
</event>
<event>
 7    1  0.1503436E-008  0.4614232E+02  0.7816164E-02  0.1320468E+00
        -11   -1    0    0    0    0  0.00000000000E+00  0.00000000000E+00  0.45593999997E+02  0.45594000000E+02  0.51100000000E-03 0.  1.
         11   -1    0    0    0    0 -0.00000000000E+00 -0.00000000000E+00 -0.45593999997E+02  0.45594000000E+02  0.51100000000E-03 0. -1.
    9900012    2    1    2    0    0  0.39603885098E+02 -0.47345951033E+01  0.20933928320E+02  0.46142318070E+02  0.10000002817E+02 0.  0.
         12    1    1    2    0    0 -0.39603885098E+02  0.47345951033E+01 -0.20933928320E+02  0.45045681930E+02  0.00000000000E+00 0. -1.
         11    1    3    3    0    0  0.77097875249E+01 -0.35981197222E+01  0.36321732766E+01  0.92509443943E+01  0.51100000000E-03 0. -1.
        -11    1    3    3    0    0  0.23400275588E+02  0.12575557261E+01  0.10172720358E+02  0.25546792044E+02  0.51100000000E-03 0.  1.
        -12    1    3    3    0    0  0.84938219852E+01 -0.23940311073E+01  0.71290346857E+01  0.11344581632E+02  0.00000000000E+00 0.  1.
</event>
<event>
 7    1  0.1503436E-008  0.4614232E+02  0.7816164E-02  0.1320468E+00
        -11   -1    0    0    0    0  0.00000000000E+00  0.00000000000E+00  0.45593999997E+02  0.45594000000E+02  0.51100000000E-03 0.  1.
         11   -1    0    0    0    0 -0.00000000000E+00 -0.00000000000E+00 -0.45593999997E+02  0.45594000000E+02  0.51100000000E-03 0. -1.
    9900012    2    1    2    0    0 -0.18363375796E+02 -0.34359679335E+02  0.22612217882E+02  0.46142317275E+02  0.99999955639E+01 0.  0.
         12    1    1    2    0    0  0.18363375796E+02  0.34359679335E+02 -0.22612217882E+02  0.45045682725E+02  0.00000000000E+00 0. -1.
         11    1    3    3    0    0 -0.10018629601E+02 -0.98372003805E+01  0.54862086564E+01  0.15074545967E+02  0.51100000000E-03 0. -1.
        -11    1    3    3    0    0 -0.69514997509E+01 -0.20600935316E+02  0.14783770948E+02  0.26292237798E+02  0.51100000000E-03 0.  1.
         12    1    3    3    0    0 -0.13932464439E+01 -0.39215436386E+01  0.23422382769E+01  0.47755335104E+01  0.00000000000E+00 0. -1.
</event>
<event>
 7    1  0.1503436E-008  0.4614232E+02  0.7816164E-02  0.1320468E+00
        -11   -1    0    0    0    0  0.00000000000E+00  0.00000000000E+00  0.45593999997E+02  0.45594000000E+02  0.51100000000E-03 0.  1.
         11   -1    0    0    0    0 -0.00000000000E+00 -0.00000000000E+00 -0.45593999997E+02  0.45594000000E+02  0.51100000000E-03 0. -1.
    9900012    2    1    2    0    0 -0.20782365450E+02  0.36636289210E+01  0.39796792188E+02  0.46142316977E+02  0.99999928475E+01 0.  0.
         12    1    1    2    0    0  0.20782365450E+02 -0.36636289210E+01 -0.39796792188E+02  0.45045683023E+02  0.00000000000E+00 0. -1.
         11    1    3    3    0    0 -0.31071105681E+01  0.77005663471E+00  0.21419079519E+01  0.38516091752E+01  0.51100000000E-03 0. -1.
        -11    1    3    3    0    0 -0.16333328107E+02  0.43098356895E+01  0.35860492704E+02  0.39639970080E+02  0.51100000000E-03 0.  1.
        -12    1    3    3    0    0 -0.13419267750E+01 -0.14162634032E+01  0.17943915320E+01  0.26507377212E+01  0.00000000000E+00 0.  1.
</event>
<event>
 7    1  0.1503436E-008  0.4614232E+02  0.7816164E-02  0.1320468E+00
        -11   -1    0    0    0    0  0.00000000000E+00  0.00000000000E+00  0.45593999997E+02  0.45594000000E+02  0.51100000000E-03 0.  1.
         11   -1    0    0    0    0 -0.00000000000E+00 -0.00000000000E+00 -0.45593999997E+02  0.45594000000E+02  0.51100000000E-03 0. -1.
    9900012    2    1    2    0    0  0.39044290390E+02 -0.22109610787E+02  0.39776983905E+01  0.46142316681E+02  0.99999901505E+01 0.  0.
         12    1    1    2    0    0 -0.39044290390E+02  0.22109610787E+02 -0.39776983905E+01  0.45045683319E+02  0.00000000000E+00 0. -1.
         11    1    3    3    0    0  0.13548697135E+02 -0.11205785768E+02 -0.44840384925E+00  0.17588004293E+02  0.51100000000E-03 0. -1.
        -11    1    3    3    0    0  0.15270628888E+02 -0.44994198306E+01  0.42934424340E+01  0.16488497010E+02  0.51100000000E-03 0.  1.
        -12    1    3    3    0    0  0.10224964368E+02 -0.64044051881E+01  0.13265980572E+00  0.12065815379E+02  0.00000000000E+00 0.  1.
</event>
<event>
 7    1  0.1503436E-008  0.4614232E+02  0.7816164E-02  0.1320468E+00
        -11   -1    0    0    0    0  0.00000000000E+00  0.00000000000E+00  0.45593999997E+02  0.45594000000E+02  0.51100000000E-03 0.  1.
         11   -1    0    0    0    0 -0.00000000000E+00 -0.00000000000E+00 -0.45593999997E+02  0.45594000000E+02  0.51100000000E-03 0. -1.
    9900012    2    1    2    0    0 -0.63343074951E+01  0.41123559603E+02  0.17258123903E+02  0.46142318225E+02  0.10000004234E+02 0.  0.
         12    1    1    2    0    0  0.63343074951E+01 -0.41123559603E+02 -0.17258123903E+02  0.45045681775E+02  0.00000000000E+00 0. -1.
         11    1    3    3    0    0 -0.21577142051E+01  0.17085002172E+02  0.24915775558E+01  0.17400028414E+02  0.51100000000E-03 0. -1.
        -11    1    3    3    0    0  0.59959066762E+00  0.21376505618E+01  0.98423809485E+00  0.24285353161E+01  0.51100000000E-03 0.  1.
         12    1    3    3    0    0 -0.47761839576E+01  0.21900906869E+02  0.13782308253E+02  0.26313754495E+02  0.00000000000E+00 0. -1.
</event>
<event>
 7    1  0.1503436E-008  0.4614232E+02  0.7816164E-02  0.1320468E+00
        -11   -1    0    0    0    0  0.00000000000E+00  0.00000000000E+00  0.45593999997E+02  0.45594000000E+02  0.51100000000E-03 0. -1.
         11   -1    0    0    0    0 -0.00000000000E+00 -0.00000000000E+00 -0.45593999997E+02  0.45594000000E+02  0.51100000000E-03 0.  1.
    9900012    2    1    2    0    0 -0.17104252489E+02  0.37873986337E+02 -0.17381574241E+02  0.46142318549E+02  0.10000007186E+02 0.  0.
         12    1    1    2    0    0  0.17104252489E+02 -0.37873986337E+02  0.17381574241E+02  0.45045681451E+02  0.00000000000E+00 0. -1.
         11    1    3    3    0    0 -0.10134835776E+01  0.36796279586E+01 -0.78671934966E+00  0.38968883063E+01  0.51100000000E-03 0. -1.
        -11    1    3    3    0    0 -0.10137691135E+02  0.26359230019E+02 -0.15830351268E+02  0.32375636059E+02  0.51100000000E-03 0.  1.
        -12    1    3    3    0    0 -0.59530777773E+01  0.78351283600E+01 -0.76450362350E+00  0.98697941838E+01  0.00000000000E+00 0.  1.
</event>
<event>
 7    1  0.1503436E-008  0.4614232E+02  0.7816164E-02  0.1320468E+00
        -11   -1    0    0    0    0  0.00000000000E+00  0.00000000000E+00  0.45593999997E+02  0.45594000000E+02  0.51100000000E-03 0.  1.
         11   -1    0    0    0    0 -0.00000000000E+00 -0.00000000000E+00 -0.45593999997E+02  0.45594000000E+02  0.51100000000E-03 0. -1.
    9900012    2    1    2    0    0 -0.22963784437E+02  0.13137202313E+02  0.36458085522E+02  0.46142317852E+02  0.10000000825E+02 0.  0.
         12    1    1    2    0    0  0.22963784437E+02 -0.13137202313E+02 -0.36458085522E+02  0.45045682148E+02  0.00000000000E+00 0. -1.
         11    1    3    3    0    0 -0.12287732112E+01  0.61648120019E+00  0.66360283185E+01  0.67769318116E+01  0.51100000000E-03 0. -1.
        -11    1    3    3    0    0 -0.53946840951E+01  0.42640351196E+01  0.49094849293E+01  0.84491215235E+01  0.51100000000E-03 0.  1.
         12    1    3    3    0    0 -0.16340327131E+02  0.82566859934E+01  0.24912572274E+02  0.30916264516E+02  0.00000000000E+00 0. -1.
</event>
<event>
 7    1  0.1503436E-008  0.4614232E+02  0.7816164E-02  0.1320468E+00
        -11   -1    0    0    0    0  0.00000000000E+00  0.00000000000E+00  0.45593999997E+02  0.45594000000E+02  0.51100000000E-03 0.  1.
         11   -1    0    0    0    0 -0.00000000000E+00 -0.00000000000E+00 -0.45593999997E+02  0.45594000000E+02  0.51100000000E-03 0. -1.
    9900012    2    1    2    0    0  0.32275878722E+01 -0.29646206194E+02  0.33760903627E+02  0.46142317867E+02  0.10000000965E+02 0.  0.
         12    1    1    2    0    0 -0.32275878722E+01  0.29646206194E+02 -0.33760903627E+02  0.45045682133E+02  0.00000000000E+00 0. -1.
         11    1    3    3    0    0  0.36758965999E+01 -0.74082685473E+01  0.74327405715E+01  0.11119365600E+02  0.51100000000E-03 0. -1.
        -11    1    3    3    0    0 -0.29384554787E+01 -0.11844795505E+02  0.16344187714E+02  0.20397700200E+02  0.51100000000E-03 0.  1.
        -12    1    3    3    0    0  0.24901467511E+01 -0.10393142141E+02  0.99839753407E+01  0.14625252067E+02  0.00000000000E+00 0.  1.
</event>
<event>
 7    1  0.1503436E-008  0.4614232E+02  0.7816164E-02  0.1320468E+00
        -11   -1    0    0    0    0  0.00000000000E+00  0.00000000000E+00  0.45593999997E+02  0.45594000000E+02  0.51100000000E-03 0. -1.
         11   -1    0    0    0    0 -0.00000000000E+00 -0.00000000000E+00 -0.45593999997E+02  0.45594000000E+02  0.51100000000E-03 0.  1.
    9900012    2    1    2    0    0 -0.14306168572E+02  0.21226661957E+02 -0.37065829282E+02  0.46142319437E+02  0.10000015285E+02 0.  0.
         12    1    1    2    0    0  0.14306168572E+02 -0.21226661957E+02  0.37065829282E+02  0.45045680563E+02  0.00000000000E+00 0. -1.
         11    1    3    3    0    0 -0.63053725182E+01  0.68696386640E+01 -0.68438746727E+01  0.11566688323E+02  0.51100000000E-03 0. -1.
        -11    1    3    3    0    0 -0.47349891323E+01  0.65651994843E+01 -0.17785634537E+02  0.19541002086E+02  0.51100000000E-03 0.  1.
         12    1    3    3    0    0 -0.32658069211E+01  0.77918238084E+01 -0.12436320072E+02  0.15034629029E+02  0.00000000000E+00 0. -1.
</event>
<event>
 7    1  0.1503436E-008  0.4614232E+02  0.7816164E-02  0.1320468E+00
        -11   -1    0    0    0    0  0.00000000000E+00  0.00000000000E+00  0.45593999997E+02  0.45594000000E+02  0.51100000000E-03 0. -1.
         11   -1    0    0    0    0 -0.00000000000E+00 -0.00000000000E+00 -0.45593999997E+02  0.45594000000E+02  0.51100000000E-03 0.  1.
    9900012    2    1    2    0    0 -0.20357278011E+02  0.10198510572E+02 -0.38867533945E+02  0.46142316734E+02  0.99999906375E+01 0.  0.
         12    1    1    2    0    0  0.20357278011E+02 -0.10198510572E+02  0.38867533945E+02  0.45045683266E+02  0.00000000000E+00 0. -1.
         11    1    3    3    0    0 -0.32201829560E+01 -0.59589238876E+00 -0.99947545746E+01  0.10517594082E+02  0.51100000000E-03 0. -1.
        -11    1    3    3    0    0 -0.25361032668E+01  0.39249054744E+01 -0.76471329474E+01  0.89618829126E+01  0.51100000000E-03 0.  1.
        -12    1    3    3    0    0 -0.14600991788E+02  0.68694974862E+01 -0.21225646423E+02  0.26662839740E+02  0.00000000000E+00 0.  1.
</event>
<event>
 7    1  0.1503436E-008  0.4614232E+02  0.7816164E-02  0.1320468E+00
        -11   -1    0    0    0    0  0.00000000000E+00  0.00000000000E+00  0.45593999997E+02  0.45594000000E+02  0.51100000000E-03 0. -1.
         11   -1    0    0    0    0 -0.00000000000E+00 -0.00000000000E+00 -0.45593999997E+02  0.45594000000E+02  0.51100000000E-03 0.  1.
    9900012    2    1    2    0    0 -0.15831557225E+02  0.35211529963E+02 -0.23208258028E+02  0.46142319994E+02  0.10000020360E+02 0.  0.
         12    1    1    2    0    0  0.15831557225E+02 -0.35211529963E+02  0.23208258028E+02  0.45045680006E+02  0.00000000000E+00 0. -1.
         11    1    3    3    0    0 -0.13816667639E+02  0.22725436691E+02 -0.17766122733E+02  0.31984072516E+02  0.51100000000E-03 0. -1.
        -11    1    3    3    0    0  0.31718112837E+00  0.43676560341E+01 -0.59458174567E+00  0.44193382778E+01  0.51100000000E-03 0.  1.
        -12    1    3    3    0    0 -0.23320707148E+01  0.81184372376E+01 -0.48475535495E+01  0.97389092005E+01  0.00000000000E+00 0.  1.
</event>
<event>
 7    1  0.1503436E-008  0.4614232E+02  0.7816164E-02  0.1320468E+00
        -11   -1    0    0    0    0  0.00000000000E+00  0.00000000000E+00  0.45593999997E+02  0.45594000000E+02  0.51100000000E-03 0.  1.
         11   -1    0    0    0    0 -0.00000000000E+00 -0.00000000000E+00 -0.45593999997E+02  0.45594000000E+02  0.51100000000E-03 0. -1.
    9900012    2    1    2    0    0 -0.24044805125E+02 -0.35755302809E+02  0.13134648307E+02  0.46142319645E+02  0.10000017182E+02 0.  0.
         12    1    1    2    0    0  0.24044805125E+02  0.35755302809E+02 -0.13134648307E+02  0.45045680355E+02  0.00000000000E+00 0. -1.
         11    1    3    3    0    0 -0.13637332077E+02 -0.24964885495E+02  0.52470387445E+01  0.28926696144E+02  0.51100000000E-03 0. -1.
        -11    1    3    3    0    0 -0.88497005192E+01 -0.98544866842E+01  0.78530096084E+01  0.15397982571E+02  0.51100000000E-03 0.  1.
         12    1    3    3    0    0 -0.15577725282E+01 -0.93593063007E+00  0.34599953909E-01  0.18176409301E+01  0.00000000000E+00 0. -1.
</event>
<event>
 7    1  0.1503436E-008  0.4614232E+02  0.7816164E-02  0.1320468E+00
        -11   -1    0    0    0    0  0.00000000000E+00  0.00000000000E+00  0.45593999997E+02  0.45594000000E+02  0.51100000000E-03 0.  1.
         11   -1    0    0    0    0 -0.00000000000E+00 -0.00000000000E+00 -0.45593999997E+02  0.45594000000E+02  0.51100000000E-03 0. -1.
    9900012    2    1    2    0    0 -0.40464518710E+02  0.46485796314E+01  0.19238683048E+02  0.46142317716E+02  0.99999995860E+01 0.  0.
         12    1    1    2    0    0  0.40464518710E+02 -0.46485796314E+01 -0.19238683048E+02  0.45045682284E+02  0.00000000000E+00 0. -1.
         11    1    3    3    0    0 -0.32551972913E+02  0.63622922887E+01  0.15517588698E+02  0.36618373298E+02  0.51100000000E-03 0. -1.
        -11    1    3    3    0    0 -0.59735434502E+01  0.26728578098E+00  0.28025130901E+01  0.66036916131E+01  0.51100000000E-03 0.  1.
         12    1    3    3    0    0 -0.19390023472E+01 -0.19809984383E+01  0.91858125945E+00  0.29202528050E+01  0.00000000000E+00 0. -1.
</event>
<event>
 7    1  0.1503436E-008  0.4614232E+02  0.7816164E-02  0.1320468E+00
        -11   -1    0    0    0    0  0.00000000000E+00  0.00000000000E+00  0.45593999997E+02  0.45594000000E+02  0.51100000000E-03 0.  1.
         11   -1    0    0    0    0 -0.00000000000E+00 -0.00000000000E+00 -0.45593999997E+02  0.45594000000E+02  0.51100000000E-03 0. -1.
    9900012    2    1    2    0    0 -0.12410792280E+02  0.36840971551E+02  0.22755842414E+02  0.46142319699E+02  0.10000017667E+02 0.  0.
         12    1    1    2    0    0  0.12410792280E+02 -0.36840971551E+02 -0.22755842414E+02  0.45045680301E+02  0.00000000000E+00 0. -1.
         11    1    3    3    0    0 -0.20114500376E+01  0.22698537507E+01 -0.29527898110E+00  0.30471884157E+01  0.51100000000E-03 0. -1.
        -11    1    3    3    0    0 -0.94733466785E+01  0.33880976807E+02  0.22770730855E+02  0.41906694818E+02  0.51100000000E-03 0.  1.
        -12    1    3    3    0    0 -0.92599556368E+00  0.69014099420E+00  0.28039054003E+00  0.11884364648E+01  0.00000000000E+00 0.  1.
</event>
<event>
 7    1  0.1503436E-008  0.4614232E+02  0.7816164E-02  0.1320468E+00
        -11   -1    0    0    0    0  0.00000000000E+00  0.00000000000E+00  0.45593999997E+02  0.45594000000E+02  0.51100000000E-03 0.  1.
         11   -1    0    0    0    0 -0.00000000000E+00 -0.00000000000E+00 -0.45593999997E+02  0.45594000000E+02  0.51100000000E-03 0. -1.
    9900012    2    1    2    0    0 -0.87828064308E+01 -0.36206592335E+02  0.25319131593E+02  0.46142318277E+02  0.10000004701E+02 0.  0.
         12    1    1    2    0    0  0.87828064308E+01  0.36206592335E+02 -0.25319131593E+02  0.45045681723E+02  0.00000000000E+00 0. -1.
         11    1    3    3    0    0 -0.70554339856E+00 -0.10329276345E+02  0.11421667962E+02  0.15415778949E+02  0.51100000000E-03 0. -1.
        -11    1    3    3    0    0 -0.74556351990E+01 -0.24686221840E+02  0.12107335396E+02  0.28488306647E+02  0.51100000000E-03 0.  1.
        -12    1    3    3    0    0 -0.62162783319E+00 -0.11910941495E+01  0.17901282346E+01  0.22382326806E+01  0.00000000000E+00 0.  1.
</event>
<event>
 7    1  0.1503436E-008  0.4614232E+02  0.7816164E-02  0.1320468E+00
        -11   -1    0    0    0    0  0.00000000000E+00  0.00000000000E+00  0.45593999997E+02  0.45594000000E+02  0.51100000000E-03 0. -1.
         11   -1    0    0    0    0 -0.00000000000E+00 -0.00000000000E+00 -0.45593999997E+02  0.45594000000E+02  0.51100000000E-03 0.  1.
    9900012    2    1    2    0    0  0.29661766611E+02 -0.13824363718E+02 -0.30954484118E+02  0.46142317436E+02  0.99999970310E+01 0.  0.
         12    1    1    2    0    0 -0.29661766611E+02  0.13824363718E+02  0.30954484118E+02  0.45045682564E+02  0.00000000000E+00 0. -1.
         11    1    3    3    0    0  0.30148838169E+01 -0.28988795790E+00 -0.23861882317E+00  0.30381735733E+01  0.51100000000E-03 0. -1.
        -11    1    3    3    0    0  0.15949686843E+02 -0.98631677904E+01 -0.16852085502E+02  0.25212444849E+02  0.51100000000E-03 0.  1.
         12    1    3    3    0    0  0.10697195951E+02 -0.36713079695E+01 -0.13863779793E+02  0.17891699013E+02  0.00000000000E+00 0. -1.
</event>
<event>
 7    1  0.1503436E-008  0.4614232E+02  0.7816164E-02  0.1320468E+00
        -11   -1    0    0    0    0  0.00000000000E+00  0.00000000000E+00  0.45593999997E+02  0.45594000000E+02  0.51100000000E-03 0.  1.
         11   -1    0    0    0    0 -0.00000000000E+00 -0.00000000000E+00 -0.45593999997E+02  0.45594000000E+02  0.51100000000E-03 0. -1.
    9900012    2    1    2    0    0 -0.29022131904E+02 -0.24536780960E+02  0.24182138114E+02  0.46142316922E+02  0.99999923525E+01 0.  0.
         12    1    1    2    0    0  0.29022131904E+02  0.24536780960E+02 -0.24182138114E+02  0.45045683078E+02  0.00000000000E+00 0. -1.
         11    1    3    3    0    0 -0.10160253484E+02 -0.56184827513E+01  0.59533779591E+01  0.13047636133E+02  0.51100000000E-03 0.  1.
        -11    1    3    3    0    0 -0.11526398320E+02 -0.11187080248E+02  0.14952390234E+02  0.21944990241E+02  0.51100000000E-03 0. -1.
        -12    1    3    3    0    0 -0.73354801003E+01 -0.77312179611E+01  0.32763699211E+01  0.11149690548E+02  0.00000000000E+00 0.  1.
</event>
<event>
 7    1  0.1503436E-008  0.4614232E+02  0.7816164E-02  0.1320468E+00
        -11   -1    0    0    0    0  0.00000000000E+00  0.00000000000E+00  0.45593999997E+02  0.45594000000E+02  0.51100000000E-03 0.  1.
         11   -1    0    0    0    0 -0.00000000000E+00 -0.00000000000E+00 -0.45593999997E+02  0.45594000000E+02  0.51100000000E-03 0. -1.
    9900012    2    1    2    0    0 -0.31494898816E+02  0.74789319981E+01  0.31324915643E+02  0.46142318572E+02  0.10000007394E+02 0.  0.
         12    1    1    2    0    0  0.31494898816E+02 -0.74789319981E+01 -0.31324915643E+02  0.45045681428E+02  0.00000000000E+00 0. -1.
         11    1    3    3    0    0 -0.18827029400E+00 -0.10965344248E+01  0.32564566530E+00  0.11592578699E+01  0.51100000000E-03 0. -1.
        -11    1    3    3    0    0 -0.23911008624E+02  0.56222853010E+01  0.22110061348E+02  0.33048468020E+02  0.51100000000E-03 0.  1.
         12    1    3    3    0    0 -0.73956198989E+01  0.29531811218E+01  0.88892086299E+01  0.11934592682E+02  0.00000000000E+00 0. -1.
</event>
<event>
 7    1  0.1503436E-008  0.4614232E+02  0.7816164E-02  0.1320468E+00
        -11   -1    0    0    0    0  0.00000000000E+00  0.00000000000E+00  0.45593999997E+02  0.45594000000E+02  0.51100000000E-03 0.  1.
         11   -1    0    0    0    0 -0.00000000000E+00 -0.00000000000E+00 -0.45593999997E+02  0.45594000000E+02  0.51100000000E-03 0. -1.
    9900012    2    1    2    0    0 -0.43054386971E+02 -0.49335999335E+01 -0.12291985585E+02  0.46142317017E+02  0.99999932169E+01 0.  0.
         12    1    1    2    0    0  0.43054386971E+02  0.49335999335E+01  0.12291985585E+02  0.45045682983E+02  0.00000000000E+00 0. -1.
         11    1    3    3    0    0 -0.37328170089E+00  0.43973308032E+00 -0.14373454957E+01  0.15487629726E+01  0.51100000000E-03 0. -1.
        -11    1    3    3    0    0 -0.20885176759E+02 -0.38693024910E+00 -0.55643895553E+01  0.21617186557E+02  0.51100000000E-03 0.  1.
         12    1    3    3    0    0 -0.21795928511E+02 -0.49864027647E+01 -0.52902505338E+01  0.22976367487E+02  0.00000000000E+00 0. -1.
</event>
<event>
 7    1  0.1503436E-008  0.4614232E+02  0.7816164E-02  0.1320468E+00
        -11   -1    0    0    0    0  0.00000000000E+00  0.00000000000E+00  0.45593999997E+02  0.45594000000E+02  0.51100000000E-03 0.  1.
         11   -1    0    0    0    0 -0.00000000000E+00 -0.00000000000E+00 -0.45593999997E+02  0.45594000000E+02  0.51100000000E-03 0. -1.
    9900012    2    1    2    0    0  0.26055246133E+02  0.16093475806E+01  0.36710318751E+02  0.46142319258E+02  0.10000013652E+02 0.  0.
         12    1    1    2    0    0 -0.26055246133E+02 -0.16093475806E+01 -0.36710318751E+02  0.45045680742E+02  0.00000000000E+00 0. -1.
         11    1    3    3    0    0  0.11214205041E+02  0.24524761518E+01  0.95648792220E+01  0.14941885717E+02  0.51100000000E-03 0. -1.
        -11    1    3    3    0    0  0.52213582253E+01  0.26650444581E+00  0.13424054724E+02  0.14406208794E+02  0.51100000000E-03 0.  1.
         12    1    3    3    0    0  0.96196828664E+01 -0.11096330170E+01  0.13721384805E+02  0.16794224747E+02  0.00000000000E+00 0. -1.
</event>
<event>
 7    1  0.1503436E-008  0.4614232E+02  0.7816164E-02  0.1320468E+00
        -11   -1    0    0    0    0  0.00000000000E+00  0.00000000000E+00  0.45593999997E+02  0.45594000000E+02  0.51100000000E-03 0. -1.
         11   -1    0    0    0    0 -0.00000000000E+00 -0.00000000000E+00 -0.45593999997E+02  0.45594000000E+02  0.51100000000E-03 0.  1.
    9900012    2    1    2    0    0 -0.42522278145E+02 -0.14864793440E+02 -0.85024710042E-01  0.46142318166E+02  0.10000003695E+02 0.  0.
         12    1    1    2    0    0  0.42522278145E+02  0.14864793440E+02  0.85024710042E-01  0.45045681834E+02  0.00000000000E+00 0. -1.
         11    1    3    3    0    0 -0.86494476757E+00 -0.19730124649E+01  0.71845736472E+00  0.22709224741E+01  0.51100000000E-03 0. -1.
        -11    1    3    3    0    0 -0.13671290068E+02 -0.27339075196E+01 -0.19452811482E+01  0.14077021754E+02  0.51100000000E-03 0.  1.
         12    1    3    3    0    0 -0.27986043309E+02 -0.10157873456E+02  0.11417990735E+01  0.29794373938E+02  0.00000000000E+00 0. -1.
</event>
<event>
 7    1  0.1503436E-008  0.4614232E+02  0.7816164E-02  0.1320468E+00
        -11   -1    0    0    0    0  0.00000000000E+00  0.00000000000E+00  0.45593999997E+02  0.45594000000E+02  0.51100000000E-03 0.  1.
         11   -1    0    0    0    0 -0.00000000000E+00 -0.00000000000E+00 -0.45593999997E+02  0.45594000000E+02  0.51100000000E-03 0. -1.
    9900012    2    1    2    0    0 -0.18322918934E+02 -0.35350792797E+02  0.21064319349E+02  0.46142318083E+02  0.10000002939E+02 0.  0.
         12    1    1    2    0    0  0.18322918934E+02  0.35350792797E+02 -0.21064319349E+02  0.45045681917E+02  0.00000000000E+00 0. -1.
         11    1    3    3    0    0 -0.71901046902E+01 -0.93743758622E+01  0.28332521499E+01  0.12149232332E+02  0.51100000000E-03 0. -1.
        -11    1    3    3    0    0 -0.11248692078E+02 -0.24084016305E+02  0.15845861929E+02  0.30946150897E+02  0.51100000000E-03 0.  1.
         12    1    3    3    0    0  0.11587783416E+00 -0.18924006306E+01  0.23852052709E+01  0.30469348538E+01  0.00000000000E+00 0. -1.
</event>
<event>
 7    1  0.1503436E-008  0.4614232E+02  0.7816164E-02  0.1320468E+00
        -11   -1    0    0    0    0  0.00000000000E+00  0.00000000000E+00  0.45593999997E+02  0.45594000000E+02  0.51100000000E-03 0. -1.
         11   -1    0    0    0    0 -0.00000000000E+00 -0.00000000000E+00 -0.45593999997E+02  0.45594000000E+02  0.51100000000E-03 0.  1.
    9900012    2    1    2    0    0  0.96099788036E+01 -0.43427684383E+02 -0.71272711388E+01  0.46142318105E+02  0.10000003137E+02 0.  0.
         12    1    1    2    0    0 -0.96099788036E+01  0.43427684383E+02  0.71272711388E+01  0.45045681895E+02  0.00000000000E+00 0. -1.
         11    1    3    3    0    0  0.74368400320E+01 -0.21508203223E+02 -0.75296954439E+01  0.23970934677E+02  0.51100000000E-03 0.  1.
        -11    1    3    3    0    0  0.12580903725E+01 -0.36555703672E+01 -0.23831842141E+00  0.38733424875E+01  0.51100000000E-03 0. -1.
         12    1    3    3    0    0  0.91504839902E+00 -0.18263910793E+02  0.64074272646E+00  0.18298040940E+02  0.00000000000E+00 0. -1.
</event>
<event>
 7    1  0.1503436E-008  0.4614232E+02  0.7816164E-02  0.1320468E+00
        -11   -1    0    0    0    0  0.00000000000E+00  0.00000000000E+00  0.45593999997E+02  0.45594000000E+02  0.51100000000E-03 0.  1.
         11   -1    0    0    0    0 -0.00000000000E+00 -0.00000000000E+00 -0.45593999997E+02  0.45594000000E+02  0.51100000000E-03 0. -1.
    9900012    2    1    2    0    0  0.35444388471E+02 -0.19834594211E+02 -0.19478131703E+02  0.46142318562E+02  0.10000007300E+02 0.  0.
         12    1    1    2    0    0 -0.35444388471E+02  0.19834594211E+02  0.19478131703E+02  0.45045681438E+02  0.00000000000E+00 0. -1.
         11    1    3    3    0    0  0.67658881594E+01 -0.51792594348E+01 -0.74527227692E+01  0.11320116952E+02  0.51100000000E-03 0. -1.
        -11    1    3    3    0    0  0.23421424751E+02 -0.94375639952E+01 -0.98245804600E+01  0.27095260342E+02  0.51100000000E-03 0.  1.
         12    1    3    3    0    0  0.52570755601E+01 -0.52177707811E+01 -0.22008284742E+01  0.77269412669E+01  0.00000000000E+00 0. -1.
</event>
<event>
 7    1  0.1503436E-008  0.4614232E+02  0.7816164E-02  0.1320468E+00
        -11   -1    0    0    0    0  0.00000000000E+00  0.00000000000E+00  0.45593999997E+02  0.45594000000E+02  0.51100000000E-03 0.  1.
         11   -1    0    0    0    0 -0.00000000000E+00 -0.00000000000E+00 -0.45593999997E+02  0.45594000000E+02  0.51100000000E-03 0. -1.
    9900012    2    1    2    0    0  0.11147494810E+02  0.25915618299E+02  0.35117339469E+02  0.46142318256E+02  0.10000004514E+02 0.  0.
         12    1    1    2    0    0 -0.11147494810E+02 -0.25915618299E+02 -0.35117339469E+02  0.45045681744E+02  0.00000000000E+00 0. -1.
         11    1    3    3    0    0  0.56356598491E+01  0.15748805442E+02  0.13113170939E+02  0.21254194577E+02  0.51100000000E-03 0. -1.
        -11    1    3    3    0    0  0.50494491690E+01  0.83829531989E+01  0.18518906279E+02  0.20945661395E+02  0.51100000000E-03 0.  1.
         12    1    3    3    0    0  0.46238579217E+00  0.17838596584E+01  0.34852622514E+01  0.39424622842E+01  0.00000000000E+00 0. -1.
</event>
<event>
 7    1  0.1503436E-008  0.4614232E+02  0.7816164E-02  0.1320468E+00
        -11   -1    0    0    0    0  0.00000000000E+00  0.00000000000E+00  0.45593999997E+02  0.45594000000E+02  0.51100000000E-03 0.  1.
         11   -1    0    0    0    0 -0.00000000000E+00 -0.00000000000E+00 -0.45593999997E+02  0.45594000000E+02  0.51100000000E-03 0. -1.
    9900012    2    1    2    0    0 -0.21539181027E+02  0.26784008627E+02  0.29116905064E+02  0.46142316545E+02  0.99999889079E+01 0.  0.
         12    1    1    2    0    0  0.21539181027E+02 -0.26784008627E+02 -0.29116905064E+02  0.45045683455E+02  0.00000000000E+00 0. -1.
         11    1    3    3    0    0 -0.99776189274E+01  0.83922766657E+01  0.74773920066E+01  0.15029789705E+02  0.51100000000E-03 0. -1.
        -11    1    3    3    0    0 -0.76366742920E+01  0.13890333431E+02  0.12464096818E+02  0.20164668775E+02  0.51100000000E-03 0.  1.
         12    1    3    3    0    0 -0.39248878080E+01  0.45013985300E+01  0.91754162399E+01  0.10947858065E+02  0.00000000000E+00 0. -1.
</event>
<event>
 7    1  0.1503436E-008  0.4614231E+02  0.7816164E-02  0.1320468E+00
        -11   -1    0    0    0    0  0.00000000000E+00  0.00000000000E+00  0.45593999997E+02  0.45594000000E+02  0.51100000000E-03 0.  1.
         11   -1    0    0    0    0 -0.00000000000E+00 -0.00000000000E+00 -0.45593999997E+02  0.45594000000E+02  0.51100000000E-03 0. -1.
    9900012    2    1    2    0    0 -0.23963560211E+02  0.35906006063E+02  0.12869373129E+02  0.46142309262E+02  0.99999224950E+01 0.  0.
         12    1    1    2    0    0  0.23963560211E+02 -0.35906006063E+02 -0.12869373129E+02  0.45045690738E+02  0.00000000000E+00 0. -1.
         11    1    3    3    0    0 -0.98646488479E+01  0.87228600139E+01  0.13770208539E+01  0.13239930906E+02  0.51100000000E-03 0. -1.
        -11    1    3    3    0    0 -0.13107057848E+02  0.22709850297E+02  0.10268582097E+02  0.28159830335E+02  0.51100000000E-03 0.  1.
         12    1    3    3    0    0 -0.99185351538E+00  0.44732957513E+01  0.12237701782E+01  0.47425480202E+01  0.00000000000E+00 0. -1.
</event>
<event>
 7    1  0.1503436E-008  0.4614232E+02  0.7816164E-02  0.1320468E+00
        -11   -1    0    0    0    0  0.00000000000E+00  0.00000000000E+00  0.45593999997E+02  0.45594000000E+02  0.51100000000E-03 0.  1.
         11   -1    0    0    0    0 -0.00000000000E+00 -0.00000000000E+00 -0.45593999997E+02  0.45594000000E+02  0.51100000000E-03 0. -1.
    9900012    2    1    2    0    0  0.39586213696E+02  0.10751375192E+02  0.18613251605E+02  0.46142317426E+02  0.99999969401E+01 0.  0.
         12    1    1    2    0    0 -0.39586213696E+02 -0.10751375192E+02 -0.18613251605E+02  0.45045682574E+02  0.00000000000E+00 0. -1.
         11    1    3    3    0    0  0.11398386674E+01  0.22980673770E+01  0.74850094433E+00  0.26721900722E+01  0.51100000000E-03 0. -1.
        -11    1    3    3    0    0  0.32857275402E+02  0.86180101928E+01  0.14419983725E+02  0.36902663555E+02  0.51100000000E-03 0.  1.
         12    1    3    3    0    0  0.55890996261E+01 -0.16470237825E+00  0.34447669359E+01  0.65674637987E+01  0.00000000000E+00 0. -1.
</event>
<event>
 7    1  0.1503436E-008  0.4614232E+02  0.7816164E-02  0.1320468E+00
        -11   -1    0    0    0    0  0.00000000000E+00  0.00000000000E+00  0.45593999997E+02  0.45594000000E+02  0.51100000000E-03 0.  1.
         11   -1    0    0    0    0 -0.00000000000E+00 -0.00000000000E+00 -0.45593999997E+02  0.45594000000E+02  0.51100000000E-03 0. -1.
    9900012    2    1    2    0    0 -0.17376004312E+02 -0.39900354057E+00  0.41557534603E+02  0.46142318609E+02  0.10000007731E+02 0.  0.
         12    1    1    2    0    0  0.17376004312E+02  0.39900354057E+00 -0.41557534603E+02  0.45045681391E+02  0.00000000000E+00 0. -1.
         11    1    3    3    0    0 -0.88781898729E+01 -0.25594831252E+00  0.10391344549E+02  0.13669960013E+02  0.51100000000E-03 0. -1.
        -11    1    3    3    0    0 -0.51842775742E+01 -0.28672138720E+00  0.24281474535E+02  0.24830403722E+02  0.51100000000E-03 0.  1.
         12    1    3    3    0    0 -0.33135368651E+01  0.14366615914E+00  0.68847155193E+01  0.76419548744E+01  0.00000000000E+00 0. -1.
</event>
<event>
 7    1  0.1503436E-008  0.4614232E+02  0.7816164E-02  0.1320468E+00
        -11   -1    0    0    0    0  0.00000000000E+00  0.00000000000E+00  0.45593999997E+02  0.45594000000E+02  0.51100000000E-03 0.  1.
         11   -1    0    0    0    0 -0.00000000000E+00 -0.00000000000E+00 -0.45593999997E+02  0.45594000000E+02  0.51100000000E-03 0. -1.
    9900012    2    1    2    0    0  0.25090412346E+01  0.17987675550E+02  0.41222102875E+02  0.46142317354E+02  0.99999962858E+01 0.  0.
         12    1    1    2    0    0 -0.25090412346E+01 -0.17987675550E+02 -0.41222102875E+02  0.45045682646E+02  0.00000000000E+00 0. -1.
         11    1    3    3    0    0  0.36473565927E+01  0.10080397954E+02  0.18678993475E+02  0.21536537106E+02  0.51100000000E-03 0. -1.
        -11    1    3    3    0    0 -0.60343676530E+00  0.86009163862E+01  0.17749858146E+02  0.19733153906E+02  0.51100000000E-03 0.  1.
        -12    1    3    3    0    0 -0.53487859272E+00 -0.69363879007E+00  0.47932512540E+01  0.48726263415E+01  0.00000000000E+00 0.  1.
</event>
<event>
 7    1  0.1503436E-008  0.4614232E+02  0.7816164E-02  0.1320468E+00
        -11   -1    0    0    0    0  0.00000000000E+00  0.00000000000E+00  0.45593999997E+02  0.45594000000E+02  0.51100000000E-03 0.  1.
         11   -1    0    0    0    0 -0.00000000000E+00 -0.00000000000E+00 -0.45593999997E+02  0.45594000000E+02  0.51100000000E-03 0. -1.
    9900012    2    1    2    0    0 -0.39956724778E+02 -0.20571904033E+02  0.30611106013E+01  0.46142317758E+02  0.99999999726E+01 0.  0.
         12    1    1    2    0    0  0.39956724778E+02  0.20571904033E+02 -0.30611106013E+01  0.45045682242E+02  0.00000000000E+00 0. -1.
         11    1    3    3    0    0 -0.11647812752E+01 -0.26591629843E+00 -0.20077411367E+00  0.12115021266E+01  0.51100000000E-03 0. -1.
        -11    1    3    3    0    0 -0.24182981876E+01 -0.19987547875E+01  0.28031992424E+01  0.42072690761E+01  0.51100000000E-03 0.  1.
        -12    1    3    3    0    0 -0.36373645315E+02 -0.18307232947E+02  0.45868547254E+00  0.40723546555E+02  0.00000000000E+00 0.  1.
</event>
<event>
 7    1  0.1503436E-008  0.4614232E+02  0.7816164E-02  0.1320468E+00
        -11   -1    0    0    0    0  0.00000000000E+00  0.00000000000E+00  0.45593999997E+02  0.45594000000E+02  0.51100000000E-03 0. -1.
         11   -1    0    0    0    0 -0.00000000000E+00 -0.00000000000E+00 -0.45593999997E+02  0.45594000000E+02  0.51100000000E-03 0.  1.
    9900012    2    1    2    0    0  0.33561347807E+02  0.18251875072E+02 -0.23866681304E+02  0.46142317779E+02  0.10000000167E+02 0.  0.
         12    1    1    2    0    0 -0.33561347807E+02 -0.18251875072E+02  0.23866681304E+02  0.45045682221E+02  0.00000000000E+00 0. -1.
         11    1    3    3    0    0  0.18199854188E+02  0.11659292103E+02 -0.13857838694E+02  0.25675152937E+02  0.51100000000E-03 0. -1.
        -11    1    3    3    0    0  0.95030031860E+00 -0.82765067808E+00 -0.20572000738E+01  0.24124984446E+01  0.51100000000E-03 0.  1.
         12    1    3    3    0    0  0.14411193301E+02  0.74202336463E+01 -0.79516425360E+01  0.18054666398E+02  0.00000000000E+00 0. -1.
</event>
<event>
 7    1  0.1503436E-008  0.4614232E+02  0.7816164E-02  0.1320468E+00
        -11   -1    0    0    0    0  0.00000000000E+00  0.00000000000E+00  0.45593999997E+02  0.45594000000E+02  0.51100000000E-03 0.  1.
         11   -1    0    0    0    0 -0.00000000000E+00 -0.00000000000E+00 -0.45593999997E+02  0.45594000000E+02  0.51100000000E-03 0. -1.
    9900012    2    1    2    0    0  0.38669363327E+02 -0.23090042331E+02 -0.80240370214E+00  0.46142316892E+02  0.99999920745E+01 0.  0.
         12    1    1    2    0    0 -0.38669363327E+02  0.23090042331E+02  0.80240370214E+00  0.45045683108E+02  0.00000000000E+00 0. -1.
         11    1    3    3    0    0  0.13694565417E+02 -0.96723477524E+01  0.14293198441E+01  0.16826716509E+02  0.51100000000E-03 0. -1.
        -11    1    3    3    0    0  0.21661867875E+02 -0.13940927368E+02 -0.11286679579E+01  0.25784876717E+02  0.51100000000E-03 0.  1.
         12    1    3    3    0    0  0.33129300358E+01  0.52323278940E+00 -0.11030555884E+01  0.35307236659E+01  0.00000000000E+00 0. -1.
</event>
<event>
 7    1  0.1503436E-008  0.4614232E+02  0.7816164E-02  0.1320468E+00
        -11   -1    0    0    0    0  0.00000000000E+00  0.00000000000E+00  0.45593999997E+02  0.45594000000E+02  0.51100000000E-03 0.  1.
         11   -1    0    0    0    0 -0.00000000000E+00 -0.00000000000E+00 -0.45593999997E+02  0.45594000000E+02  0.51100000000E-03 0. -1.
    9900012    2    1    2    0    0 -0.10593078776E+02  0.39755042705E+02  0.18342212215E+02  0.46142317772E+02  0.10000000104E+02 0.  0.
         12    1    1    2    0    0  0.10593078776E+02 -0.39755042705E+02 -0.18342212215E+02  0.45045682228E+02  0.00000000000E+00 0. -1.
         11    1    3    3    0    0 -0.11389369648E+02  0.30617913997E+02  0.15398394050E+02  0.36114885270E+02  0.51100000000E-03 0.  1.
        -11    1    3    3    0    0  0.15961986624E+01  0.67767763503E+01  0.28800564615E+01  0.75344059723E+01  0.51100000000E-03 0. -1.
        -12    1    3    3    0    0 -0.79990779069E+00  0.23603523577E+01  0.63761703410E-01  0.24930265303E+01  0.00000000000E+00 0.  1.
</event>
<event>
 7    1  0.1503436E-008  0.4614232E+02  0.7816164E-02  0.1320468E+00
        -11   -1    0    0    0    0  0.00000000000E+00  0.00000000000E+00  0.45593999997E+02  0.45594000000E+02  0.51100000000E-03 0. -1.
         11   -1    0    0    0    0 -0.00000000000E+00 -0.00000000000E+00 -0.45593999997E+02  0.45594000000E+02  0.51100000000E-03 0.  1.
    9900012    2    1    2    0    0  0.39694261697E+02 -0.20453280564E+02 -0.59280503434E+01  0.46142324532E+02  0.10000061739E+02 0.  0.
         12    1    1    2    0    0 -0.39694261697E+02  0.20453280564E+02  0.59280503434E+01  0.45045675468E+02  0.00000000000E+00 0. -1.
         11    1    3    3    0    0  0.12435775687E+02 -0.81413290423E+01 -0.44494470903E+01  0.15515390268E+02  0.51100000000E-03 0. -1.
        -11    1    3    3    0    0  0.25838014966E+02 -0.13078328342E+02 -0.11655123814E+01  0.28982824379E+02  0.51100000000E-03 0.  1.
         12    1    3    3    0    0  0.14204710445E+01  0.76637682014E+00 -0.31309087171E+00  0.16441098846E+01  0.00000000000E+00 0. -1.
</event>
<event>
 7    1  0.1503436E-008  0.4614231E+02  0.7816164E-02  0.1320468E+00
        -11   -1    0    0    0    0  0.00000000000E+00  0.00000000000E+00  0.45593999997E+02  0.45594000000E+02  0.51100000000E-03 0.  1.
         11   -1    0    0    0    0 -0.00000000000E+00 -0.00000000000E+00 -0.45593999997E+02  0.45594000000E+02  0.51100000000E-03 0. -1.
    9900012    2    1    2    0    0 -0.21495748342E+02  0.97181296738E+01  0.38374533114E+02  0.46142311717E+02  0.99999448888E+01 0.  0.
         12    1    1    2    0    0  0.21495748342E+02 -0.97181296738E+01 -0.38374533114E+02  0.45045688283E+02  0.00000000000E+00 0. -1.
         11    1    3    3    0    0 -0.80113772217E-01  0.42055434424E+00  0.45485503181E+01  0.45686534592E+01  0.51100000000E-03 0. -1.
        -11    1    3    3    0    0 -0.37006806396E+01 -0.66967225699E+00  0.66092011720E+01  0.76042776462E+01  0.51100000000E-03 0.  1.
        -12    1    3    3    0    0 -0.17714953931E+02  0.99672475865E+01  0.27216781624E+02  0.33969380612E+02  0.00000000000E+00 0.  1.
</event>
<event>
 7    1  0.1503436E-008  0.4614232E+02  0.7816164E-02  0.1320468E+00
        -11   -1    0    0    0    0  0.00000000000E+00  0.00000000000E+00  0.45593999997E+02  0.45594000000E+02  0.51100000000E-03 0.  1.
         11   -1    0    0    0    0 -0.00000000000E+00 -0.00000000000E+00 -0.45593999997E+02  0.45594000000E+02  0.51100000000E-03 0. -1.
    9900012    2    1    2    0    0  0.18428368040E+02  0.18196896879E+02  0.36856231328E+02  0.46142316607E+02  0.99999894750E+01 0.  0.
         12    1    1    2    0    0 -0.18428368040E+02 -0.18196896879E+02 -0.36856231328E+02  0.45045683393E+02  0.00000000000E+00 0. -1.
         11    1    3    3    0    0  0.98206824384E+00 -0.11297215628E+01  0.25052111611E+01  0.29183577690E+01  0.51100000000E-03 0. -1.
        -11    1    3    3    0    0  0.16385038838E+02  0.17075673441E+02  0.29988497271E+02  0.38201545650E+02  0.51100000000E-03 0.  1.
         12    1    3    3    0    0  0.10612609590E+01  0.22509450012E+01  0.43625228954E+01  0.50224131883E+01  0.00000000000E+00 0. -1.
</event>
<event>
 7    1  0.1503436E-008  0.4614232E+02  0.7816164E-02  0.1320468E+00
        -11   -1    0    0    0    0  0.00000000000E+00  0.00000000000E+00  0.45593999997E+02  0.45594000000E+02  0.51100000000E-03 0. -1.
         11   -1    0    0    0    0 -0.00000000000E+00 -0.00000000000E+00 -0.45593999997E+02  0.45594000000E+02  0.51100000000E-03 0.  1.
    9900012    2    1    2    0    0  0.19781818851E+01 -0.40179234161E+02 -0.20268929342E+02  0.46142316988E+02  0.99999929487E+01 0.  0.
         12    1    1    2    0    0 -0.19781818851E+01  0.40179234161E+02  0.20268929342E+02  0.45045683012E+02  0.00000000000E+00 0. -1.
         11    1    3    3    0    0 -0.41623430146E+00 -0.46906514507E+00 -0.17855785802E+00  0.65204008605E+00  0.51100000000E-03 0. -1.
        -11    1    3    3    0    0 -0.26605261392E+01 -0.24342373831E+02 -0.13979946056E+02  0.28196958259E+02  0.51100000000E-03 0.  1.
        -12    1    3    3    0    0  0.50549423258E+01 -0.15367795185E+02 -0.61104254281E+01  0.17293318643E+02  0.00000000000E+00 0.  1.
</event>
<event>
 7    1  0.1503436E-008  0.4614232E+02  0.7816164E-02  0.1320468E+00
        -11   -1    0    0    0    0  0.00000000000E+00  0.00000000000E+00  0.45593999997E+02  0.45594000000E+02  0.51100000000E-03 0.  1.
         11   -1    0    0    0    0 -0.00000000000E+00 -0.00000000000E+00 -0.45593999997E+02  0.45594000000E+02  0.51100000000E-03 0. -1.
    9900012    2    1    2    0    0  0.31727019607E+02  0.24664702514E+02  0.20350973528E+02  0.46142318223E+02  0.10000004212E+02 0.  0.
         12    1    1    2    0    0 -0.31727019607E+02 -0.24664702514E+02 -0.20350973528E+02  0.45045681777E+02  0.00000000000E+00 0. -1.
         11    1    3    3    0    0  0.23158746081E+01  0.52089301587E+01  0.11594835943E+01  0.58172700698E+01  0.51100000000E-03 0. -1.
        -11    1    3    3    0    0  0.24988763758E+02  0.16258178761E+02  0.17687469914E+02  0.34664294065E+02  0.51100000000E-03 0.  1.
        -12    1    3    3    0    0  0.44223812400E+01  0.31975935942E+01  0.15040200191E+01  0.56607540879E+01  0.00000000000E+00 0.  1.
</event>
<event>
 7    1  0.1503436E-008  0.4614232E+02  0.7816164E-02  0.1320468E+00
        -11   -1    0    0    0    0  0.00000000000E+00  0.00000000000E+00  0.45593999997E+02  0.45594000000E+02  0.51100000000E-03 0.  1.
         11   -1    0    0    0    0 -0.00000000000E+00 -0.00000000000E+00 -0.45593999997E+02  0.45594000000E+02  0.51100000000E-03 0. -1.
    9900012    2    1    2    0    0 -0.30769349018E+02 -0.15794349719E+02  0.28859992997E+02  0.46142317434E+02  0.99999970157E+01 0.  0.
         12    1    1    2    0    0  0.30769349018E+02  0.15794349719E+02 -0.28859992997E+02  0.45045682566E+02  0.00000000000E+00 0. -1.
         11    1    3    3    0    0 -0.10286891920E+02 -0.10395468465E+02  0.13873340479E+02  0.20158260993E+02  0.51100000000E-03 0. -1.
        -11    1    3    3    0    0 -0.31740348560E+01 -0.46677215125E+00  0.18625098309E+01  0.37096248651E+01  0.51100000000E-03 0.  1.
         12    1    3    3    0    0 -0.17308422243E+02 -0.49321091028E+01  0.13124142687E+02  0.22274431575E+02  0.00000000000E+00 0. -1.
</event>
<event>
 7    1  0.1503436E-008  0.4614232E+02  0.7816164E-02  0.1320468E+00
        -11   -1    0    0    0    0  0.00000000000E+00  0.00000000000E+00  0.45593999997E+02  0.45594000000E+02  0.51100000000E-03 0.  1.
         11   -1    0    0    0    0 -0.00000000000E+00 -0.00000000000E+00 -0.45593999997E+02  0.45594000000E+02  0.51100000000E-03 0. -1.
    9900012    2    1    2    0    0 -0.19011651931E+02  0.24351005445E+02  0.32782602843E+02  0.46142318470E+02  0.10000006465E+02 0.  0.
         12    1    1    2    0    0  0.19011651931E+02 -0.24351005445E+02 -0.32782602843E+02  0.45045681530E+02  0.00000000000E+00 0. -1.
         11    1    3    3    0    0 -0.10560475243E+02  0.13264986824E+02  0.15296682595E+02  0.22835761679E+02  0.51100000000E-03 0. -1.
        -11    1    3    3    0    0 -0.75217791740E+01  0.10782768640E+02  0.12215170231E+02  0.17945908880E+02  0.51100000000E-03 0.  1.
         12    1    3    3    0    0 -0.92939751361E+00  0.30324998188E+00  0.52707500166E+01  0.53606479112E+01  0.00000000000E+00 0. -1.
</event>
<event>
 7    1  0.1503436E-008  0.4614232E+02  0.7816164E-02  0.1320468E+00
        -11   -1    0    0    0    0  0.00000000000E+00  0.00000000000E+00  0.45593999997E+02  0.45594000000E+02  0.51100000000E-03 0.  1.
         11   -1    0    0    0    0 -0.00000000000E+00 -0.00000000000E+00 -0.45593999997E+02  0.45594000000E+02  0.51100000000E-03 0. -1.
    9900012    2    1    2    0    0 -0.29374927207E+02  0.18662781805E+02  0.28599433477E+02  0.46142319093E+02  0.10000012147E+02 0.  0.
         12    1    1    2    0    0  0.29374927207E+02 -0.18662781805E+02 -0.28599433477E+02  0.45045680907E+02  0.00000000000E+00 0. -1.
         11    1    3    3    0    0 -0.13796181906E+01  0.34437897574E+01  0.98822282967E+00  0.38392211277E+01  0.51100000000E-03 0. -1.
        -11    1    3    3    0    0 -0.10143141517E+02  0.43012638050E+01  0.11187064157E+02  0.15701420154E+02  0.51100000000E-03 0.  1.
         12    1    3    3    0    0 -0.17852167500E+02  0.10917728243E+02  0.16424146490E+02  0.26601677811E+02  0.00000000000E+00 0. -1.
</event>
<event>
 7    1  0.1503436E-008  0.4614232E+02  0.7816164E-02  0.1320468E+00
        -11   -1    0    0    0    0  0.00000000000E+00  0.00000000000E+00  0.45593999997E+02  0.45594000000E+02  0.51100000000E-03 0.  1.
         11   -1    0    0    0    0 -0.00000000000E+00 -0.00000000000E+00 -0.45593999997E+02  0.45594000000E+02  0.51100000000E-03 0. -1.
    9900012    2    1    2    0    0 -0.16551698484E+02  0.17858538835E+02  0.37897592465E+02  0.46142316004E+02  0.99999839782E+01 0.  0.
         12    1    1    2    0    0  0.16551698484E+02 -0.17858538835E+02 -0.37897592465E+02  0.45045683996E+02  0.00000000000E+00 0. -1.
         11    1    3    3    0    0 -0.31332786672E+01  0.76784575912E+01  0.11707408131E+02  0.14347109520E+02  0.51100000000E-03 0. -1.
        -11    1    3    3    0    0 -0.10336194705E+01 -0.74497570770E+00  0.35497054445E+01  0.37714409738E+01  0.51100000000E-03 0.  1.
        -12    1    3    3    0    0 -0.12384800346E+02  0.10925056951E+02  0.22640478890E+02  0.28023765510E+02  0.00000000000E+00 0.  1.
</event>
<event>
 7    1  0.1503436E-008  0.4614232E+02  0.7816164E-02  0.1320468E+00
        -11   -1    0    0    0    0  0.00000000000E+00  0.00000000000E+00  0.45593999997E+02  0.45594000000E+02  0.51100000000E-03 0.  1.
         11   -1    0    0    0    0 -0.00000000000E+00 -0.00000000000E+00 -0.45593999997E+02  0.45594000000E+02  0.51100000000E-03 0. -1.
    9900012    2    1    2    0    0  0.32199534544E+02 -0.30622441179E+02  0.73871029284E+01  0.46142320759E+02  0.10000027338E+02 0.  0.
         12    1    1    2    0    0 -0.32199534544E+02  0.30622441179E+02 -0.73871029284E+01  0.45045679241E+02  0.00000000000E+00 0. -1.
         11    1    3    3    0    0  0.18545812204E+02 -0.14459659395E+02  0.17029750641E+01  0.23578147180E+02  0.51100000000E-03 0. -1.
        -11    1    3    3    0    0  0.66385751345E+01 -0.64348062543E+01 -0.10618332409E+00  0.92460092205E+01  0.51100000000E-03 0.  1.
         12    1    3    3    0    0  0.70151472059E+01 -0.97279755292E+01  0.57903111884E+01  0.13318164358E+02  0.00000000000E+00 0. -1.
</event>
<event>
 7    1  0.1503436E-008  0.4614232E+02  0.7816164E-02  0.1320468E+00
        -11   -1    0    0    0    0  0.00000000000E+00  0.00000000000E+00  0.45593999997E+02  0.45594000000E+02  0.51100000000E-03 0. -1.
         11   -1    0    0    0    0 -0.00000000000E+00 -0.00000000000E+00 -0.45593999997E+02  0.45594000000E+02  0.51100000000E-03 0.  1.
    9900012    2    1    2    0    0 -0.20771686751E+01 -0.44989603760E+02  0.85700533464E+00  0.46142317251E+02  0.99999953486E+01 0.  0.
         12    1    1    2    0    0  0.20771686751E+01  0.44989603760E+02 -0.85700533464E+00  0.45045682749E+02  0.00000000000E+00 0. -1.
         11    1    3    3    0    0 -0.15751254084E+01 -0.15102117993E+02  0.28338426987E+01  0.15446218069E+02  0.51100000000E-03 0. -1.
        -11    1    3    3    0    0  0.22868696412E+01 -0.74298684615E+01 -0.21486465021E+01  0.80653208345E+01  0.51100000000E-03 0.  1.
        -12    1    3    3    0    0 -0.27889129079E+01 -0.22457617306E+02  0.17180913807E+00  0.22630778348E+02  0.00000000000E+00 0.  1.
</event>
<event>
 7    1  0.1503436E-008  0.4614232E+02  0.7816164E-02  0.1320468E+00
        -11   -1    0    0    0    0  0.00000000000E+00  0.00000000000E+00  0.45593999997E+02  0.45594000000E+02  0.51100000000E-03 0.  1.
         11   -1    0    0    0    0 -0.00000000000E+00 -0.00000000000E+00 -0.45593999997E+02  0.45594000000E+02  0.51100000000E-03 0. -1.
    9900012    2    1    2    0    0  0.20450705151E+02  0.39907456684E+02 -0.42751581718E+01  0.46142318547E+02  0.10000007168E+02 0.  0.
         12    1    1    2    0    0 -0.20450705151E+02 -0.39907456684E+02  0.42751581718E+01  0.45045681453E+02  0.00000000000E+00 0. -1.
         11    1    3    3    0    0  0.11037830173E+02  0.16609943149E+02 -0.42981037633E+01  0.20400921611E+02  0.51100000000E-03 0. -1.
        -11    1    3    3    0    0  0.94689001182E+01  0.17872735133E+02 -0.86286294604E+00  0.20244487233E+02  0.51100000000E-03 0.  1.
         12    1    3    3    0    0 -0.56025140350E-01  0.54247784019E+01  0.88580853762E+00  0.54969097038E+01  0.00000000000E+00 0. -1.
</event>
<event>
 7    1  0.1503436E-008  0.4614232E+02  0.7816164E-02  0.1320468E+00
        -11   -1    0    0    0    0  0.00000000000E+00  0.00000000000E+00  0.45593999997E+02  0.45594000000E+02  0.51100000000E-03 0.  1.
         11   -1    0    0    0    0 -0.00000000000E+00 -0.00000000000E+00 -0.45593999997E+02  0.45594000000E+02  0.51100000000E-03 0. -1.
    9900012    2    1    2    0    0  0.98105638626E+01  0.75808236076E+01  0.43305861487E+02  0.46142315534E+02  0.99999796907E+01 0.  0.
         12    1    1    2    0    0 -0.98105638626E+01 -0.75808236076E+01 -0.43305861487E+02  0.45045684466E+02  0.00000000000E+00 0. -1.
         11    1    3    3    0    0  0.27704521421E+01  0.14286520854E+01  0.78023073253E+01  0.84019314275E+01  0.51100000000E-03 0.  1.
        -11    1    3    3    0    0  0.50822641351E+00  0.47625551877E+01  0.71148295392E+01  0.85767724487E+01  0.51100000000E-03 0. -1.
        -12    1    3    3    0    0  0.65318853070E+01  0.13896163344E+01  0.28388724623E+02  0.29163611658E+02  0.00000000000E+00 0.  1.
</event>
<event>
 7    1  0.1503436E-008  0.4614232E+02  0.7816164E-02  0.1320468E+00
        -11   -1    0    0    0    0  0.00000000000E+00  0.00000000000E+00  0.45593999997E+02  0.45594000000E+02  0.51100000000E-03 0.  1.
         11   -1    0    0    0    0 -0.00000000000E+00 -0.00000000000E+00 -0.45593999997E+02  0.45594000000E+02  0.51100000000E-03 0. -1.
    9900012    2    1    2    0    0  0.10795363009E+02  0.32683554736E+02  0.29057851971E+02  0.46142319032E+02  0.10000011589E+02 0.  0.
         12    1    1    2    0    0 -0.10795363009E+02 -0.32683554736E+02 -0.29057851971E+02  0.45045680968E+02  0.00000000000E+00 0. -1.
         11    1    3    3    0    0  0.37648521827E+01  0.19829303723E+02  0.18277026142E+02  0.27229121964E+02  0.51100000000E-03 0. -1.
        -11    1    3    3    0    0  0.66501485007E+01  0.69648326679E+01  0.63845156470E+01  0.11554021355E+02  0.51100000000E-03 0.  1.
        -12    1    3    3    0    0  0.38036232568E+00  0.58894183459E+01  0.43963101823E+01  0.73591757127E+01  0.00000000000E+00 0.  1.
</event>
<event>
 7    1  0.1503436E-008  0.4614232E+02  0.7816164E-02  0.1320468E+00
        -11   -1    0    0    0    0  0.00000000000E+00  0.00000000000E+00  0.45593999997E+02  0.45594000000E+02  0.51100000000E-03 0. -1.
         11   -1    0    0    0    0 -0.00000000000E+00 -0.00000000000E+00 -0.45593999997E+02  0.45594000000E+02  0.51100000000E-03 0.  1.
    9900012    2    1    2    0    0 -0.27473823256E+02 -0.35385649472E+02 -0.47072651887E+01  0.46142317649E+02  0.99999989812E+01 0.  0.
         12    1    1    2    0    0  0.27473823256E+02  0.35385649472E+02  0.47072651887E+01  0.45045682351E+02  0.00000000000E+00 0. -1.
         11    1    3    3    0    0 -0.12235172855E+02 -0.21859861916E+02 -0.10201044621E+01  0.25071769606E+02  0.51100000000E-03 0. -1.
        -11    1    3    3    0    0 -0.31860896643E+01 -0.12907904185E+01  0.26323037157E+00  0.34476945548E+01  0.51100000000E-03 0.  1.
         12    1    3    3    0    0 -0.12052560737E+02 -0.12234997138E+02 -0.39503910982E+01  0.17622853489E+02  0.00000000000E+00 0. -1.
</event>
<event>
 7    1  0.1503436E-008  0.4614232E+02  0.7816164E-02  0.1320468E+00
        -11   -1    0    0    0    0  0.00000000000E+00  0.00000000000E+00  0.45593999997E+02  0.45594000000E+02  0.51100000000E-03 0. -1.
         11   -1    0    0    0    0 -0.00000000000E+00 -0.00000000000E+00 -0.45593999997E+02  0.45594000000E+02  0.51100000000E-03 0.  1.
    9900012    2    1    2    0    0 -0.23127473876E+02 -0.25483496651E+01 -0.38571223135E+02  0.46142318875E+02  0.10000010154E+02 0.  0.
         12    1    1    2    0    0  0.23127473876E+02  0.25483496651E+01  0.38571223135E+02  0.45045681125E+02  0.00000000000E+00 0. -1.
         11    1    3    3    0    0 -0.70126198261E+01 -0.52697117321E+00 -0.81716000080E+01  0.10780982441E+02  0.51100000000E-03 0. -1.
        -11    1    3    3    0    0 -0.17006467754E+01  0.81652966434E+00 -0.35823423309E+00  0.19202219075E+01  0.51100000000E-03 0.  1.
        -12    1    3    3    0    0 -0.14414207275E+02 -0.28379081562E+01 -0.30041388894E+02  0.33441114526E+02  0.00000000000E+00 0.  1.
</event>
<event>
 7    1  0.1503436E-008  0.4614232E+02  0.7816164E-02  0.1320468E+00
        -11   -1    0    0    0    0  0.00000000000E+00  0.00000000000E+00  0.45593999997E+02  0.45594000000E+02  0.51100000000E-03 0. -1.
         11   -1    0    0    0    0 -0.00000000000E+00 -0.00000000000E+00 -0.45593999997E+02  0.45594000000E+02  0.51100000000E-03 0.  1.
    9900012    2    1    2    0    0  0.24244934627E+02 -0.24212709928E+02 -0.29241088174E+02  0.46142318579E+02  0.10000007455E+02 0.  0.
         12    1    1    2    0    0 -0.24244934627E+02  0.24212709928E+02  0.29241088174E+02  0.45045681421E+02  0.00000000000E+00 0. -1.
         11    1    3    3    0    0  0.83867670281E+01 -0.11765687195E+02 -0.14699564497E+02  0.20611803730E+02  0.51100000000E-03 0. -1.
        -11    1    3    3    0    0  0.12426857993E+02 -0.62774101082E+01 -0.98368810605E+01  0.17046903135E+02  0.51100000000E-03 0.  1.
        -12    1    3    3    0    0  0.34313096058E+01 -0.61696126243E+01 -0.47046426169E+01  0.84836117131E+01  0.00000000000E+00 0.  1.
</event>
<event>
 7    1  0.1503436E-008  0.4614232E+02  0.7816164E-02  0.1320468E+00
        -11   -1    0    0    0    0  0.00000000000E+00  0.00000000000E+00  0.45593999997E+02  0.45594000000E+02  0.51100000000E-03 0. -1.
         11   -1    0    0    0    0 -0.00000000000E+00 -0.00000000000E+00 -0.45593999997E+02  0.45594000000E+02  0.51100000000E-03 0.  1.
    9900012    2    1    2    0    0 -0.29010007000E+02 -0.26439067008E+02 -0.22102234109E+02  0.46142317377E+02  0.99999964957E+01 0.  0.
         12    1    1    2    0    0  0.29010007000E+02  0.26439067008E+02  0.22102234109E+02  0.45045682623E+02  0.00000000000E+00 0. -1.
         11    1    3    3    0    0 -0.62006853077E+01 -0.78540067647E+01 -0.15102422941E+01  0.10120017421E+02  0.51100000000E-03 0. -1.
        -11    1    3    3    0    0 -0.18159700482E+02 -0.16095577745E+02 -0.17363853797E+02  0.29838662227E+02  0.51100000000E-03 0.  1.
        -12    1    3    3    0    0 -0.46496212100E+01 -0.24894824986E+01 -0.32281380181E+01  0.61836377297E+01  0.00000000000E+00 0.  1.
</event>
<event>
 7    1  0.1503436E-008  0.4614232E+02  0.7816164E-02  0.1320468E+00
        -11   -1    0    0    0    0  0.00000000000E+00  0.00000000000E+00  0.45593999997E+02  0.45594000000E+02  0.51100000000E-03 0. -1.
         11   -1    0    0    0    0 -0.00000000000E+00 -0.00000000000E+00 -0.45593999997E+02  0.45594000000E+02  0.51100000000E-03 0.  1.
    9900012    2    1    2    0    0 -0.41423122805E+02  0.86205887571E+01  0.15457161826E+02  0.46142317575E+02  0.99999983003E+01 0.  0.
         12    1    1    2    0    0  0.41423122805E+02 -0.86205887571E+01 -0.15457161826E+02  0.45045682425E+02  0.00000000000E+00 0. -1.
         11    1    3    3    0    0 -0.24078524991E+02  0.16660067382E+01  0.57360880109E+01  0.24808338318E+02  0.51100000000E-03 0. -1.
        -11    1    3    3    0    0 -0.65887390722E+01  0.10997007100E+01  0.42804055298E+01  0.79336432976E+01  0.51100000000E-03 0.  1.
         12    1    3    3    0    0 -0.10755858742E+02  0.58548813088E+01  0.54406682848E+01  0.13400335959E+02  0.00000000000E+00 0. -1.
</event>
<event>
 7    1  0.1503436E-008  0.4614232E+02  0.7816164E-02  0.1320468E+00
        -11   -1    0    0    0    0  0.00000000000E+00  0.00000000000E+00  0.45593999997E+02  0.45594000000E+02  0.51100000000E-03 0.  1.
         11   -1    0    0    0    0 -0.00000000000E+00 -0.00000000000E+00 -0.45593999997E+02  0.45594000000E+02  0.51100000000E-03 0. -1.
    9900012    2    1    2    0    0  0.19039269703E+02 -0.40007567465E+02 -0.81249101941E+01  0.46142318621E+02  0.10000007841E+02 0.  0.
         12    1    1    2    0    0 -0.19039269703E+02  0.40007567465E+02  0.81249101941E+01  0.45045681379E+02  0.00000000000E+00 0. -1.
         11    1    3    3    0    0  0.75306995629E+00  0.41838835826E-01 -0.93598494868E-01  0.76001696469E+00  0.51100000000E-03 0. -1.
        -11    1    3    3    0    0  0.12207167715E+01 -0.63487992321E+01  0.10015016089E+01  0.65422019886E+01  0.51100000000E-03 0.  1.
        -12    1    3    3    0    0  0.17065482975E+02 -0.33700607068E+02 -0.90328133082E+01  0.38840099668E+02  0.00000000000E+00 0.  1.
</event>
<event>
 7    1  0.1503436E-008  0.4614232E+02  0.7816164E-02  0.1320468E+00
        -11   -1    0    0    0    0  0.00000000000E+00  0.00000000000E+00  0.45593999997E+02  0.45594000000E+02  0.51100000000E-03 0.  1.
         11   -1    0    0    0    0 -0.00000000000E+00 -0.00000000000E+00 -0.45593999997E+02  0.45594000000E+02  0.51100000000E-03 0. -1.
    9900012    2    1    2    0    0 -0.22740682930E+02  0.98026148706E+01  0.37628228089E+02  0.46142317992E+02  0.10000002108E+02 0.  0.
         12    1    1    2    0    0  0.22740682930E+02 -0.98026148706E+01 -0.37628228089E+02  0.45045682008E+02  0.00000000000E+00 0. -1.
         11    1    3    3    0    0 -0.30296121932E+01 -0.88933850898E+00  0.32910466714E+01  0.45607522931E+01  0.51100000000E-03 0. -1.
        -11    1    3    3    0    0 -0.43072827473E+01  0.79218899538E-01  0.99818504798E+01  0.10871812156E+02  0.51100000000E-03 0.  1.
        -12    1    3    3    0    0 -0.15403787989E+02  0.10612734480E+02  0.24355330938E+02  0.30709753543E+02  0.00000000000E+00 0.  1.
</event>
<event>
 7    1  0.1503436E-008  0.4614232E+02  0.7816164E-02  0.1320468E+00
        -11   -1    0    0    0    0  0.00000000000E+00  0.00000000000E+00  0.45593999997E+02  0.45594000000E+02  0.51100000000E-03 0. -1.
         11   -1    0    0    0    0 -0.00000000000E+00 -0.00000000000E+00 -0.45593999997E+02  0.45594000000E+02  0.51100000000E-03 0.  1.
    9900012    2    1    2    0    0  0.69724862243E+01  0.18191729466E+02 -0.40614762659E+02  0.46142317288E+02  0.99999956857E+01 0.  0.
         12    1    1    2    0    0 -0.69724862243E+01 -0.18191729466E+02  0.40614762659E+02  0.45045682712E+02  0.00000000000E+00 0. -1.
         11    1    3    3    0    0  0.33492535181E+01  0.19309720828E+01 -0.41053839897E+01  0.56391781561E+01  0.51100000000E-03 0. -1.
        -11    1    3    3    0    0  0.33181970912E+01  0.11118363501E+02 -0.19105017520E+02  0.22352407781E+02  0.51100000000E-03 0.  1.
        -12    1    3    3    0    0  0.30503561500E+00  0.51423938821E+01 -0.17404361149E+02  0.18150731351E+02  0.00000000000E+00 0.  1.
</event>
<event>
 7    1  0.1503436E-008  0.4614232E+02  0.7816164E-02  0.1320468E+00
        -11   -1    0    0    0    0  0.00000000000E+00  0.00000000000E+00  0.45593999997E+02  0.45594000000E+02  0.51100000000E-03 0.  1.
         11   -1    0    0    0    0 -0.00000000000E+00 -0.00000000000E+00 -0.45593999997E+02  0.45594000000E+02  0.51100000000E-03 0. -1.
    9900012    2    1    2    0    0 -0.39859758306E+01 -0.11604628266E+01  0.44853973749E+02  0.46142316096E+02  0.99999848193E+01 0.  0.
         12    1    1    2    0    0  0.39859758306E+01  0.11604628266E+01 -0.44853973749E+02  0.45045683904E+02  0.00000000000E+00 0. -1.
         11    1    3    3    0    0 -0.70775745841E+00 -0.13527787850E+01  0.20269001286E+02  0.20326419863E+02  0.51100000000E-03 0. -1.
        -11    1    3    3    0    0 -0.20186755330E+01  0.13910670134E+01  0.23769100910E+02  0.23895193589E+02  0.51100000000E-03 0.  1.
         12    1    3    3    0    0 -0.12595428393E+01 -0.11987510550E+01  0.81587155303E+00  0.19207026441E+01  0.00000000000E+00 0. -1.
</event>
<event>
 7    1  0.1503436E-008  0.4614232E+02  0.7816164E-02  0.1320468E+00
        -11   -1    0    0    0    0  0.00000000000E+00  0.00000000000E+00  0.45593999997E+02  0.45594000000E+02  0.51100000000E-03 0.  1.
         11   -1    0    0    0    0 -0.00000000000E+00 -0.00000000000E+00 -0.45593999997E+02  0.45594000000E+02  0.51100000000E-03 0. -1.
    9900012    2    1    2    0    0  0.13120656400E+02  0.14421510512E+02  0.40607658456E+02  0.46142317465E+02  0.99999973005E+01 0.  0.
         12    1    1    2    0    0 -0.13120656400E+02 -0.14421510512E+02 -0.40607658456E+02  0.45045682535E+02  0.00000000000E+00 0. -1.
         11    1    3    3    0    0  0.34895417908E+01  0.57198986954E+01  0.21275555313E+02  0.22305680827E+02  0.51100000000E-03 0. -1.
        -11    1    3    3    0    0 -0.12603306448E+00 -0.14165796139E+00  0.22991883158E+01  0.23069933862E+01  0.51100000000E-03 0.  1.
         12    1    3    3    0    0  0.97571476733E+01  0.88432697776E+01  0.17032914827E+02  0.21529643252E+02  0.00000000000E+00 0. -1.
</event>
<event>
 7    1  0.1503436E-008  0.4614232E+02  0.7816164E-02  0.1320468E+00
        -11   -1    0    0    0    0  0.00000000000E+00  0.00000000000E+00  0.45593999997E+02  0.45594000000E+02  0.51100000000E-03 0.  1.
         11   -1    0    0    0    0 -0.00000000000E+00 -0.00000000000E+00 -0.45593999997E+02  0.45594000000E+02  0.51100000000E-03 0. -1.
    9900012    2    1    2    0    0 -0.24984023256E+02 -0.11341174355E+01  0.37464995486E+02  0.46142317330E+02  0.99999960676E+01 0.  0.
         12    1    1    2    0    0  0.24984023256E+02  0.11341174355E+01 -0.37464995486E+02  0.45045682670E+02  0.00000000000E+00 0. -1.
         11    1    3    3    0    0 -0.12157799395E+02 -0.41862788760E+01  0.15430786910E+02  0.20085970275E+02  0.51100000000E-03 0.  1.
        -11    1    3    3    0    0 -0.96025672981E+00  0.16510010540E+01  0.23337119382E+01  0.30156440670E+01  0.51100000000E-03 0. -1.
        -12    1    3    3    0    0 -0.11865967132E+02  0.14011603865E+01  0.19700496638E+02  0.23040702988E+02  0.00000000000E+00 0.  1.
</event>
<event>
 7    1  0.1503436E-008  0.4614232E+02  0.7816164E-02  0.1320468E+00
        -11   -1    0    0    0    0  0.00000000000E+00  0.00000000000E+00  0.45593999997E+02  0.45594000000E+02  0.51100000000E-03 0.  1.
         11   -1    0    0    0    0 -0.00000000000E+00 -0.00000000000E+00 -0.45593999997E+02  0.45594000000E+02  0.51100000000E-03 0. -1.
    9900012    2    1    2    0    0  0.42005143771E+02  0.15036557017E+02 -0.62115512869E+01  0.46142317415E+02  0.99999968482E+01 0.  0.
         12    1    1    2    0    0 -0.42005143771E+02 -0.15036557017E+02  0.62115512869E+01  0.45045682585E+02  0.00000000000E+00 0. -1.
         11    1    3    3    0    0  0.85507348895E-01 -0.36275003570E+00  0.28949876218E+00  0.47192042713E+00  0.51100000000E-03 0.  1.
        -11    1    3    3    0    0  0.47553692263E+00  0.42150781042E+00  0.77927612158E+00  0.10055226173E+01  0.51100000000E-03 0. -1.
        -12    1    3    3    0    0  0.41444099499E+02  0.14977799242E+02 -0.72803261706E+01  0.44664874371E+02  0.00000000000E+00 0.  1.
</event>
<event>
 7    1  0.1503436E-008  0.4614232E+02  0.7816164E-02  0.1320468E+00
        -11   -1    0    0    0    0  0.00000000000E+00  0.00000000000E+00  0.45593999997E+02  0.45594000000E+02  0.51100000000E-03 0. -1.
         11   -1    0    0    0    0 -0.00000000000E+00 -0.00000000000E+00 -0.45593999997E+02  0.45594000000E+02  0.51100000000E-03 0.  1.
    9900012    2    1    2    0    0  0.54086208402E+01  0.37826611738E+01 -0.44559531492E+02  0.46142317058E+02  0.99999935847E+01 0.  0.
         12    1    1    2    0    0 -0.54086208402E+01 -0.37826611738E+01  0.44559531492E+02  0.45045682942E+02  0.00000000000E+00 0. -1.
         11    1    3    3    0    0  0.12619133186E+01 -0.30395690198E+01 -0.17321468953E+02  0.17631355365E+02  0.51100000000E-03 0. -1.
        -11    1    3    3    0    0  0.27968172675E+01  0.54752670981E+01 -0.16571465814E+02  0.17675243028E+02  0.51100000000E-03 0.  1.
         12    1    3    3    0    0  0.13498902542E+01  0.13469630955E+01 -0.10666596725E+02  0.10835718664E+02  0.00000000000E+00 0. -1.
</event>
<event>
 7    1  0.1503436E-008  0.4614232E+02  0.7816164E-02  0.1320468E+00
        -11   -1    0    0    0    0  0.00000000000E+00  0.00000000000E+00  0.45593999997E+02  0.45594000000E+02  0.51100000000E-03 0. -1.
         11   -1    0    0    0    0 -0.00000000000E+00 -0.00000000000E+00 -0.45593999997E+02  0.45594000000E+02  0.51100000000E-03 0.  1.
    9900012    2    1    2    0    0  0.24710324661E+02 -0.37791630354E+01 -0.37473073479E+02  0.46142318142E+02  0.10000003476E+02 0.  0.
         12    1    1    2    0    0 -0.24710324661E+02  0.37791630354E+01  0.37473073479E+02  0.45045681858E+02  0.00000000000E+00 0. -1.
         11    1    3    3    0    0  0.18509701853E+02 -0.47958306375E+01 -0.22757005733E+02  0.29723565809E+02  0.51100000000E-03 0. -1.
        -11    1    3    3    0    0  0.40563885762E+01 -0.19670276350E+00 -0.12358798023E+02  0.13008953420E+02  0.51100000000E-03 0.  1.
         12    1    3    3    0    0  0.21442342318E+01  0.12133703656E+01 -0.23572697227E+01  0.34097989135E+01  0.00000000000E+00 0. -1.
</event>
<event>
 7    1  0.1503436E-008  0.4614232E+02  0.7816164E-02  0.1320468E+00
        -11   -1    0    0    0    0  0.00000000000E+00  0.00000000000E+00  0.45593999997E+02  0.45594000000E+02  0.51100000000E-03 0.  1.
         11   -1    0    0    0    0 -0.00000000000E+00 -0.00000000000E+00 -0.45593999997E+02  0.45594000000E+02  0.51100000000E-03 0. -1.
    9900012    2    1    2    0    0 -0.12891791404E+02 -0.27823252980E+02  0.32996689932E+02  0.46142320535E+02  0.10000025298E+02 0.  0.
         12    1    1    2    0    0  0.12891791404E+02  0.27823252980E+02 -0.32996689932E+02  0.45045679465E+02  0.00000000000E+00 0. -1.
         11    1    3    3    0    0 -0.55971944938E+00 -0.71605709924E+01  0.47191736436E+01  0.85940481113E+01  0.51100000000E-03 0. -1.
        -11    1    3    3    0    0 -0.16101654005E+01 -0.70297710644E+01  0.65060885281E+01  0.97128524148E+01  0.51100000000E-03 0.  1.
         12    1    3    3    0    0 -0.10721906554E+02 -0.13632910923E+02  0.21771427760E+02  0.27835420009E+02  0.00000000000E+00 0. -1.
</event>
<event>
 7    1  0.1503436E-008  0.4614232E+02  0.7816164E-02  0.1320468E+00
        -11   -1    0    0    0    0  0.00000000000E+00  0.00000000000E+00  0.45593999997E+02  0.45594000000E+02  0.51100000000E-03 0.  1.
         11   -1    0    0    0    0 -0.00000000000E+00 -0.00000000000E+00 -0.45593999997E+02  0.45594000000E+02  0.51100000000E-03 0. -1.
    9900012    2    1    2    0    0  0.19305417533E+02 -0.31761109293E+02  0.25448895769E+02  0.46142317571E+02  0.99999982675E+01 0.  0.
         12    1    1    2    0    0 -0.19305417533E+02  0.31761109293E+02 -0.25448895769E+02  0.45045682429E+02  0.00000000000E+00 0. -1.
         11    1    3    3    0    0 -0.68198531786E+00 -0.40023365608E+00  0.89003860823E+00  0.11905712656E+01  0.51100000000E-03 0. -1.
        -11    1    3    3    0    0  0.14050615364E+02 -0.24151653127E+02  0.21017975770E+02  0.34963944951E+02  0.51100000000E-03 0.  1.
         12    1    3    3    0    0  0.59367874870E+01 -0.72092225098E+01  0.35408813914E+01  0.99878013541E+01  0.00000000000E+00 0. -1.
</event>
<event>
 7    1  0.1503436E-008  0.4614232E+02  0.7816164E-02  0.1320468E+00
        -11   -1    0    0    0    0  0.00000000000E+00  0.00000000000E+00  0.45593999997E+02  0.45594000000E+02  0.51100000000E-03 0.  1.
         11   -1    0    0    0    0 -0.00000000000E+00 -0.00000000000E+00 -0.45593999997E+02  0.45594000000E+02  0.51100000000E-03 0. -1.
    9900012    2    1    2    0    0 -0.24869176377E+01  0.80025124964E+00  0.44969860853E+02  0.46142317115E+02  0.99999941103E+01 0.  0.
         12    1    1    2    0    0  0.24869176377E+01 -0.80025124964E+00 -0.44969860853E+02  0.45045682885E+02  0.00000000000E+00 0. -1.
         11    1    3    3    0    0 -0.44140716972E+01 -0.33181879790E+01  0.21341363133E+02  0.22044232376E+02  0.51100000000E-03 0. -1.
        -11    1    3    3    0    0  0.16577701761E+01  0.35291219953E+01  0.17169411457E+02  0.17606578147E+02  0.51100000000E-03 0.  1.
         12    1    3    3    0    0  0.26938388341E+00  0.58931723335E+00  0.64590862629E+01  0.64915065917E+01  0.00000000000E+00 0. -1.
</event>
<event>
 7    1  0.1503436E-008  0.4614232E+02  0.7816164E-02  0.1320468E+00
        -11   -1    0    0    0    0  0.00000000000E+00  0.00000000000E+00  0.45593999997E+02  0.45594000000E+02  0.51100000000E-03 0. -1.
         11   -1    0    0    0    0 -0.00000000000E+00 -0.00000000000E+00 -0.45593999997E+02  0.45594000000E+02  0.51100000000E-03 0.  1.
    9900012    2    1    2    0    0  0.22631185733E+02 -0.15795560603E+02 -0.35601167998E+02  0.46142318018E+02  0.10000002339E+02 0.  0.
         12    1    1    2    0    0 -0.22631185733E+02  0.15795560603E+02  0.35601167998E+02  0.45045681982E+02  0.00000000000E+00 0. -1.
         11    1    3    3    0    0  0.71972799371E+01 -0.14618370985E+01 -0.75374991376E+01  0.10523863345E+02  0.51100000000E-03 0. -1.
        -11    1    3    3    0    0  0.14077428743E+02 -0.12542601906E+02 -0.27428064198E+02  0.33283472903E+02  0.51100000000E-03 0.  1.
         12    1    3    3    0    0  0.13564770527E+01 -0.17911215987E+01 -0.63560466221E+00  0.23349817691E+01  0.00000000000E+00 0. -1.
</event>
<event>
 7    1  0.1503436E-008  0.4614232E+02  0.7816164E-02  0.1320468E+00
        -11   -1    0    0    0    0  0.00000000000E+00  0.00000000000E+00  0.45593999997E+02  0.45594000000E+02  0.51100000000E-03 0.  1.
         11   -1    0    0    0    0 -0.00000000000E+00 -0.00000000000E+00 -0.45593999997E+02  0.45594000000E+02  0.51100000000E-03 0. -1.
    9900012    2    1    2    0    0 -0.18172198082E+02 -0.22486766603E+02  0.34543160892E+02  0.46142318523E+02  0.10000006943E+02 0.  0.
         12    1    1    2    0    0  0.18172198082E+02  0.22486766603E+02 -0.34543160892E+02  0.45045681477E+02  0.00000000000E+00 0. -1.
         11    1    3    3    0    0 -0.92591574573E+01 -0.10346191204E+02  0.11228203796E+02  0.17856321849E+02  0.51100000000E-03 0. -1.
        -11    1    3    3    0    0 -0.65727535905E+01 -0.10459621106E+02  0.14697174448E+02  0.19199263019E+02  0.51100000000E-03 0.  1.
         12    1    3    3    0    0 -0.23402870342E+01 -0.16809542925E+01  0.86177826488E+01  0.90867336550E+01  0.00000000000E+00 0. -1.
</event>
<event>
 7    1  0.1503436E-008  0.4614232E+02  0.7816164E-02  0.1320468E+00
        -11   -1    0    0    0    0  0.00000000000E+00  0.00000000000E+00  0.45593999997E+02  0.45594000000E+02  0.51100000000E-03 0. -1.
         11   -1    0    0    0    0 -0.00000000000E+00 -0.00000000000E+00 -0.45593999997E+02  0.45594000000E+02  0.51100000000E-03 0.  1.
    9900012    2    1    2    0    0  0.28683360972E+02  0.88510066917E+01 -0.33586278227E+02  0.46142316508E+02  0.99999885767E+01 0.  0.
         12    1    1    2    0    0 -0.28683360972E+02 -0.88510066917E+01  0.33586278227E+02  0.45045683492E+02  0.00000000000E+00 0. -1.
         11    1    3    3    0    0  0.11127084975E+02  0.66911112592E+01 -0.18614809794E+02  0.22695685357E+02  0.51100000000E-03 0. -1.
        -11    1    3    3    0    0  0.53444578088E+01  0.14375297701E+01 -0.66487388505E+01  0.86507485037E+01  0.51100000000E-03 0.  1.
         12    1    3    3    0    0  0.12211818188E+02  0.72236566243E+00 -0.83227295824E+01  0.14795882647E+02  0.00000000000E+00 0. -1.
</event>
<event>
 7    1  0.1503436E-008  0.4614231E+02  0.7816164E-02  0.1320468E+00
        -11   -1    0    0    0    0  0.00000000000E+00  0.00000000000E+00  0.45593999997E+02  0.45594000000E+02  0.51100000000E-03 0.  1.
         11   -1    0    0    0    0 -0.00000000000E+00 -0.00000000000E+00 -0.45593999997E+02  0.45594000000E+02  0.51100000000E-03 0. -1.
    9900012    2    1    2    0    0  0.51990165979E+00 -0.10790083038E+01  0.45029759100E+02  0.46142314732E+02  0.99999723806E+01 0.  0.
         12    1    1    2    0    0 -0.51990165979E+00  0.10790083038E+01 -0.45029759100E+02  0.45045685268E+02  0.00000000000E+00 0. -1.
         11    1    3    3    0    0 -0.31124627020E+01 -0.26171337112E+01  0.13534552213E+02  0.14132265098E+02  0.51100000000E-03 0. -1.
        -11    1    3    3    0    0  0.36500763782E+01 -0.47841425763E+00  0.19034668190E+02  0.19387380719E+02  0.51100000000E-03 0.  1.
         12    1    3    3    0    0 -0.17712016375E-01  0.20165396650E+01  0.12460538697E+02  0.12622668916E+02  0.00000000000E+00 0. -1.
</event>
<event>
 7    1  0.1503436E-008  0.4614232E+02  0.7816164E-02  0.1320468E+00
        -11   -1    0    0    0    0  0.00000000000E+00  0.00000000000E+00  0.45593999997E+02  0.45594000000E+02  0.51100000000E-03 0. -1.
         11   -1    0    0    0    0 -0.00000000000E+00 -0.00000000000E+00 -0.45593999997E+02  0.45594000000E+02  0.51100000000E-03 0.  1.
    9900012    2    1    2    0    0 -0.21786757152E+02 -0.35674317708E+02 -0.16786714992E+02  0.46142317284E+02  0.99999956482E+01 0.  0.
         12    1    1    2    0    0  0.21786757152E+02  0.35674317708E+02  0.16786714992E+02  0.45045682716E+02  0.00000000000E+00 0. -1.
         11    1    3    3    0    0 -0.77262150234E+01 -0.99117207394E+01 -0.23350287478E+01  0.12782369347E+02  0.51100000000E-03 0. -1.
        -11    1    3    3    0    0 -0.97882267815E+00 -0.11983117948E+01 -0.27789861057E+01  0.31806931682E+01  0.51100000000E-03 0.  1.
        -12    1    3    3    0    0 -0.13081719450E+02 -0.24564285174E+02 -0.11672700139E+02  0.30179254769E+02  0.00000000000E+00 0.  1.
</event>
<event>
 7    1  0.1503436E-008  0.4614232E+02  0.7816164E-02  0.1320468E+00
        -11   -1    0    0    0    0  0.00000000000E+00  0.00000000000E+00  0.45593999997E+02  0.45594000000E+02  0.51100000000E-03 0. -1.
         11   -1    0    0    0    0 -0.00000000000E+00 -0.00000000000E+00 -0.45593999997E+02  0.45594000000E+02  0.51100000000E-03 0.  1.
    9900012    2    1    2    0    0 -0.62394164433E+01 -0.34544760816E+02 -0.28228401646E+02  0.46142317889E+02  0.10000001165E+02 0.  0.
         12    1    1    2    0    0  0.62394164433E+01  0.34544760816E+02  0.28228401646E+02  0.45045682111E+02  0.00000000000E+00 0. -1.
         11    1    3    3    0    0 -0.39345805695E+00 -0.34917123030E+01 -0.60163054367E+01  0.69672659930E+01  0.51100000000E-03 0. -1.
        -11    1    3    3    0    0 -0.23404678027E+01 -0.23426545429E+02 -0.18742856569E+02  0.30092781409E+02  0.51100000000E-03 0.  1.
        -12    1    3    3    0    0 -0.35054905836E+01 -0.76265030839E+01 -0.34692396397E+01  0.90822704869E+01  0.00000000000E+00 0.  1.
</event>
<event>
 7    1  0.1503436E-008  0.4614232E+02  0.7816164E-02  0.1320468E+00
        -11   -1    0    0    0    0  0.00000000000E+00  0.00000000000E+00  0.45593999997E+02  0.45594000000E+02  0.51100000000E-03 0. -1.
         11   -1    0    0    0    0 -0.00000000000E+00 -0.00000000000E+00 -0.45593999997E+02  0.45594000000E+02  0.51100000000E-03 0.  1.
    9900012    2    1    2    0    0  0.29910759892E+02 -0.27527739896E+02 -0.19408335236E+02  0.46142317658E+02  0.99999990583E+01 0.  0.
         12    1    1    2    0    0 -0.29910759892E+02  0.27527739896E+02  0.19408335236E+02  0.45045682342E+02  0.00000000000E+00 0. -1.
         11    1    3    3    0    0  0.43341912083E+01 -0.70963099095E+01 -0.67078529627E+01  0.10683544327E+02  0.51100000000E-03 0. -1.
        -11    1    3    3    0    0  0.13128296618E+02 -0.11971421014E+02 -0.45400644888E+01  0.18337919157E+02  0.51100000000E-03 0.  1.
         12    1    3    3    0    0  0.12448272066E+02 -0.84600089716E+01 -0.81604177841E+01  0.17120854174E+02  0.00000000000E+00 0. -1.
</event>
<event>
 7    1  0.1503436E-008  0.4614232E+02  0.7816164E-02  0.1320468E+00
        -11   -1    0    0    0    0  0.00000000000E+00  0.00000000000E+00  0.45593999997E+02  0.45594000000E+02  0.51100000000E-03 0. -1.
         11   -1    0    0    0    0 -0.00000000000E+00 -0.00000000000E+00 -0.45593999997E+02  0.45594000000E+02  0.51100000000E-03 0.  1.
    9900012    2    1    2    0    0 -0.35383652816E+02  0.80365209149E+01 -0.26693162936E+02  0.46142317604E+02  0.99999985659E+01 0.  0.
         12    1    1    2    0    0  0.35383652816E+02 -0.80365209149E+01  0.26693162936E+02  0.45045682396E+02  0.00000000000E+00 0. -1.
         11    1    3    3    0    0 -0.72147662551E+01  0.37726899300E+01 -0.44466072579E+01  0.92767644031E+01  0.51100000000E-03 0. -1.
        -11    1    3    3    0    0 -0.28296156708E+02  0.44136981954E+01 -0.20773051711E+02  0.35378989441E+02  0.51100000000E-03 0.  1.
        -12    1    3    3    0    0  0.12727014711E+00 -0.14986721052E+00 -0.14735039675E+01  0.14865637602E+01  0.00000000000E+00 0.  1.
</event>
<event>
 7    1  0.1503436E-008  0.4614232E+02  0.7816164E-02  0.1320468E+00
        -11   -1    0    0    0    0  0.00000000000E+00  0.00000000000E+00  0.45593999997E+02  0.45594000000E+02  0.51100000000E-03 0. -1.
         11   -1    0    0    0    0 -0.00000000000E+00 -0.00000000000E+00 -0.45593999997E+02  0.45594000000E+02  0.51100000000E-03 0.  1.
    9900012    2    1    2    0    0 -0.31249679782E+02  0.17945877329E+02 -0.27028062811E+02  0.46142321196E+02  0.10000031321E+02 0.  0.
         12    1    1    2    0    0  0.31249679782E+02 -0.17945877329E+02  0.27028062811E+02  0.45045678804E+02  0.00000000000E+00 0. -1.
         11    1    3    3    0    0 -0.15822227653E+02  0.11547914498E+02 -0.10412880154E+02  0.22183897100E+02  0.51100000000E-03 0. -1.
        -11    1    3    3    0    0 -0.12480756049E+02  0.54514887011E+01 -0.10841955447E+02  0.17407929193E+02  0.51100000000E-03 0.  1.
         12    1    3    3    0    0 -0.29466960807E+01  0.94647412998E+00 -0.57732272089E+01  0.65504949032E+01  0.00000000000E+00 0. -1.
</event>
<event>
 7    1  0.1503436E-008  0.4614232E+02  0.7816164E-02  0.1320468E+00
        -11   -1    0    0    0    0  0.00000000000E+00  0.00000000000E+00  0.45593999997E+02  0.45594000000E+02  0.51100000000E-03 0.  1.
         11   -1    0    0    0    0 -0.00000000000E+00 -0.00000000000E+00 -0.45593999997E+02  0.45594000000E+02  0.51100000000E-03 0. -1.
    9900012    2    1    2    0    0 -0.33326300531E+02 -0.28310681895E+02  0.10815566607E+02  0.46142317660E+02  0.99999990760E+01 0.  0.
         12    1    1    2    0    0  0.33326300531E+02  0.28310681895E+02 -0.10815566607E+02  0.45045682340E+02  0.00000000000E+00 0. -1.
         11    1    3    3    0    0 -0.57685387342E+01 -0.76794643891E+01  0.15399452166E+01  0.97273657257E+01  0.51100000000E-03 0. -1.
        -11    1    3    3    0    0 -0.20723122256E+02 -0.16323173091E+02  0.10200127942E+02  0.28283146679E+02  0.51100000000E-03 0.  1.
         12    1    3    3    0    0 -0.68346395409E+01 -0.43080444153E+01 -0.92450655132E+00  0.81318052548E+01  0.00000000000E+00 0. -1.
</event>
<event>
 7    1  0.1503436E-008  0.4614232E+02  0.7816164E-02  0.1320468E+00
        -11   -1    0    0    0    0  0.00000000000E+00  0.00000000000E+00  0.45593999997E+02  0.45594000000E+02  0.51100000000E-03 0.  1.
         11   -1    0    0    0    0 -0.00000000000E+00 -0.00000000000E+00 -0.45593999997E+02  0.45594000000E+02  0.51100000000E-03 0. -1.
    9900012    2    1    2    0    0 -0.11187991273E+02  0.28559928503E+01  0.43540621095E+02  0.46142317307E+02  0.99999958626E+01 0.  0.
         12    1    1    2    0    0  0.11187991273E+02 -0.28559928503E+01 -0.43540621095E+02  0.45045682693E+02  0.00000000000E+00 0. -1.
         11    1    3    3    0    0  0.89760383693E+00  0.15786653023E+01  0.35215432602E+01  0.39622145297E+01  0.51100000000E-03 0. -1.
        -11    1    3    3    0    0 -0.10218541164E+02  0.17100372479E+00  0.37438052379E+02  0.38807932076E+02  0.51100000000E-03 0.  1.
         12    1    3    3    0    0 -0.18670539459E+01  0.11063238232E+01  0.25810254558E+01  0.33721707018E+01  0.00000000000E+00 0. -1.
</event>
<event>
 7    1  0.1503436E-008  0.4614232E+02  0.7816164E-02  0.1320468E+00
        -11   -1    0    0    0    0  0.00000000000E+00  0.00000000000E+00  0.45593999997E+02  0.45594000000E+02  0.51100000000E-03 0.  1.
         11   -1    0    0    0    0 -0.00000000000E+00 -0.00000000000E+00 -0.45593999997E+02  0.45594000000E+02  0.51100000000E-03 0. -1.
    9900012    2    1    2    0    0 -0.19304438349E+01 -0.86439548721E+01  0.44166377869E+02  0.46142317595E+02  0.99999984893E+01 0.  0.
         12    1    1    2    0    0  0.19304438349E+01  0.86439548721E+01 -0.44166377869E+02  0.45045682405E+02  0.00000000000E+00 0. -1.
         11    1    3    3    0    0  0.39677399845E+01 -0.24865286434E+01  0.14614473034E+02  0.15346289702E+02  0.51100000000E-03 0. -1.
        -11    1    3    3    0    0 -0.24723438068E+01 -0.15950868675E+01  0.91525461051E+01  0.96138382804E+01  0.51100000000E-03 0.  1.
         12    1    3    3    0    0 -0.34258400125E+01 -0.45623393612E+01  0.20399358730E+02  0.21182189613E+02  0.00000000000E+00 0. -1.
</event>
<event>
 7    1  0.1503436E-008  0.4614232E+02  0.7816164E-02  0.1320468E+00
        -11   -1    0    0    0    0  0.00000000000E+00  0.00000000000E+00  0.45593999997E+02  0.45594000000E+02  0.51100000000E-03 0. -1.
         11   -1    0    0    0    0 -0.00000000000E+00 -0.00000000000E+00 -0.45593999997E+02  0.45594000000E+02  0.51100000000E-03 0.  1.
    9900012    2    1    2    0    0  0.12416507041E+02  0.43298561303E+02 -0.42233840484E+00  0.46142318434E+02  0.10000006134E+02 0.  0.
         12    1    1    2    0    0 -0.12416507041E+02 -0.43298561303E+02  0.42233840484E+00  0.45045681566E+02  0.00000000000E+00 0. -1.
         11    1    3    3    0    0  0.19326864972E+01  0.72649056708E+01 -0.16183349983E+01  0.76898075353E+01  0.51100000000E-03 0. -1.
        -11    1    3    3    0    0  0.35552478460E+01  0.39775838446E+01 -0.15108737600E+01  0.55447001963E+01  0.51100000000E-03 0.  1.
        -12    1    3    3    0    0  0.69285726980E+01  0.32056071788E+02  0.27068703534E+01  0.32907810702E+02  0.00000000000E+00 0.  1.
</event>
<event>
 7    1  0.1503436E-008  0.4614232E+02  0.7816164E-02  0.1320468E+00
        -11   -1    0    0    0    0  0.00000000000E+00  0.00000000000E+00  0.45593999997E+02  0.45594000000E+02  0.51100000000E-03 0. -1.
         11   -1    0    0    0    0 -0.00000000000E+00 -0.00000000000E+00 -0.45593999997E+02  0.45594000000E+02  0.51100000000E-03 0.  1.
    9900012    2    1    2    0    0 -0.26852895934E+02  0.31292522517E+02 -0.18133215247E+02  0.46142317846E+02  0.10000000776E+02 0.  0.
         12    1    1    2    0    0  0.26852895934E+02 -0.31292522517E+02  0.18133215247E+02  0.45045682154E+02  0.00000000000E+00 0. -1.
         11    1    3    3    0    0 -0.28494816997E+01  0.12285535058E+01  0.50095097618E+00  0.31432215663E+01  0.51100000000E-03 0. -1.
        -11    1    3    3    0    0 -0.86843666699E+01  0.87421914972E+01 -0.78858279805E+01  0.14629778530E+02  0.51100000000E-03 0.  1.
         12    1    3    3    0    0 -0.15319047564E+02  0.21321777514E+02 -0.10748338243E+02  0.28369317750E+02  0.00000000000E+00 0. -1.
</event>
<event>
 7    1  0.1503436E-008  0.4614232E+02  0.7816164E-02  0.1320468E+00
        -11   -1    0    0    0    0  0.00000000000E+00  0.00000000000E+00  0.45593999997E+02  0.45594000000E+02  0.51100000000E-03 0.  1.
         11   -1    0    0    0    0 -0.00000000000E+00 -0.00000000000E+00 -0.45593999997E+02  0.45594000000E+02  0.51100000000E-03 0. -1.
    9900012    2    1    2    0    0 -0.14416494333E+01 -0.42944772178E+02  0.13519678500E+02  0.46142317440E+02  0.99999970744E+01 0.  0.
         12    1    1    2    0    0  0.14416494333E+01  0.42944772178E+02 -0.13519678500E+02  0.45045682560E+02  0.00000000000E+00 0. -1.
         11    1    3    3    0    0 -0.12190155048E+01 -0.17302499202E+02  0.25388635424E+01  0.17530211231E+02  0.51100000000E-03 0. -1.
        -11    1    3    3    0    0 -0.27911139919E+01 -0.79105812131E+01  0.47670199028E+01  0.96484242993E+01  0.51100000000E-03 0.  1.
        -12    1    3    3    0    0  0.25684800635E+01 -0.17731691763E+02  0.62137950552E+01  0.18963681910E+02  0.00000000000E+00 0.  1.
</event>
<event>
 7    1  0.1503436E-008  0.4614232E+02  0.7816164E-02  0.1320468E+00
        -11   -1    0    0    0    0  0.00000000000E+00  0.00000000000E+00  0.45593999997E+02  0.45594000000E+02  0.51100000000E-03 0. -1.
         11   -1    0    0    0    0 -0.00000000000E+00 -0.00000000000E+00 -0.45593999997E+02  0.45594000000E+02  0.51100000000E-03 0.  1.
    9900012    2    1    2    0    0  0.15527699364E+02  0.40129424185E+02 -0.13327915926E+02  0.46142317900E+02  0.10000001265E+02 0.  0.
         12    1    1    2    0    0 -0.15527699364E+02 -0.40129424185E+02  0.13327915926E+02  0.45045682100E+02  0.00000000000E+00 0. -1.
         11    1    3    3    0    0 -0.82508346611E-01  0.97547572482E+01 -0.16425375266E+01  0.98924226753E+01  0.51100000000E-03 0. -1.
        -11    1    3    3    0    0  0.90465775414E+01  0.16957149755E+02 -0.82950224827E+01  0.20933057380E+02  0.51100000000E-03 0.  1.
        -12    1    3    3    0    0  0.65636301687E+01  0.13417517182E+02 -0.33903559165E+01  0.15316837844E+02  0.00000000000E+00 0.  1.
</event>
<event>
 7    1  0.1503436E-008  0.4614232E+02  0.7816164E-02  0.1320468E+00
        -11   -1    0    0    0    0  0.00000000000E+00  0.00000000000E+00  0.45593999997E+02  0.45594000000E+02  0.51100000000E-03 0.  1.
         11   -1    0    0    0    0 -0.00000000000E+00 -0.00000000000E+00 -0.45593999997E+02  0.45594000000E+02  0.51100000000E-03 0. -1.
    9900012    2    1    2    0    0 -0.90436577588E+01  0.32674850004E+02  0.29659398899E+02  0.46142317504E+02  0.99999976576E+01 0.  0.
         12    1    1    2    0    0  0.90436577588E+01 -0.32674850004E+02 -0.29659398899E+02  0.45045682496E+02  0.00000000000E+00 0. -1.
         11    1    3    3    0    0 -0.20380656641E+01  0.17815665124E+02  0.13622803571E+02  0.22519600637E+02  0.51100000000E-03 0. -1.
        -11    1    3    3    0    0 -0.43783930075E+01  0.77258970582E+01  0.12249826529E+02  0.15130038366E+02  0.51100000000E-03 0.  1.
        -12    1    3    3    0    0 -0.26271990872E+01  0.71332878222E+01  0.37867687986E+01  0.84926785017E+01  0.00000000000E+00 0.  1.
</event>
<event>
 7    1  0.1503436E-008  0.4614232E+02  0.7816164E-02  0.1320468E+00
        -11   -1    0    0    0    0  0.00000000000E+00  0.00000000000E+00  0.45593999997E+02  0.45594000000E+02  0.51100000000E-03 0.  1.
         11   -1    0    0    0    0 -0.00000000000E+00 -0.00000000000E+00 -0.45593999997E+02  0.45594000000E+02  0.51100000000E-03 0. -1.
    9900012    2    1    2    0    0 -0.30539787870E+02  0.33113487166E+01  0.32946468959E+02  0.46142317739E+02  0.99999997958E+01 0.  0.
         12    1    1    2    0    0  0.30539787870E+02 -0.33113487166E+01 -0.32946468959E+02  0.45045682261E+02  0.00000000000E+00 0. -1.
         11    1    3    3    0    0 -0.29712868085E+01  0.71837972730E+00  0.15619075495E+01  0.34328079156E+01  0.51100000000E-03 0. -1.
        -11    1    3    3    0    0 -0.20697048201E+02 -0.17719752953E+01  0.21349282598E+02  0.29787574060E+02  0.51100000000E-03 0.  1.
        -12    1    3    3    0    0 -0.68714528607E+01  0.43649442846E+01  0.10035278812E+02  0.12921935763E+02  0.00000000000E+00 0.  1.
</event>
<event>
 7    1  0.1503436E-008  0.4614232E+02  0.7816164E-02  0.1320468E+00
        -11   -1    0    0    0    0  0.00000000000E+00  0.00000000000E+00  0.45593999997E+02  0.45594000000E+02  0.51100000000E-03 0.  1.
         11   -1    0    0    0    0 -0.00000000000E+00 -0.00000000000E+00 -0.45593999997E+02  0.45594000000E+02  0.51100000000E-03 0. -1.
    9900012    2    1    2    0    0 -0.36486918451E+02 -0.19657283022E+02  0.17646797903E+02  0.46142317964E+02  0.10000001851E+02 0.  0.
         12    1    1    2    0    0  0.36486918451E+02  0.19657283022E+02 -0.17646797903E+02  0.45045682036E+02  0.00000000000E+00 0. -1.
         11    1    3    3    0    0 -0.47108317331E+01 -0.16288353489E+00  0.53854811537E+00  0.47443124894E+01  0.51100000000E-03 0. -1.
        -11    1    3    3    0    0 -0.17465284085E+02 -0.10935224133E+02  0.63856021950E+01  0.21572927263E+02  0.51100000000E-03 0.  1.
        -12    1    3    3    0    0 -0.14310802633E+02 -0.85591753540E+01  0.10722647592E+02  0.19825078212E+02  0.00000000000E+00 0.  1.
</event>
<event>
 7    1  0.1503436E-008  0.4614232E+02  0.7816164E-02  0.1320468E+00
        -11   -1    0    0    0    0  0.00000000000E+00  0.00000000000E+00  0.45593999997E+02  0.45594000000E+02  0.51100000000E-03 0.  1.
         11   -1    0    0    0    0 -0.00000000000E+00 -0.00000000000E+00 -0.45593999997E+02  0.45594000000E+02  0.51100000000E-03 0. -1.
    9900012    2    1    2    0    0 -0.27517634276E+02 -0.12592545650E+01  0.35641375307E+02  0.46142317055E+02  0.99999935592E+01 0.  0.
         12    1    1    2    0    0  0.27517634276E+02  0.12592545650E+01 -0.35641375307E+02  0.45045682945E+02  0.00000000000E+00 0. -1.
         11    1    3    3    0    0 -0.70000869513E+01 -0.37785278693E+01  0.70027372334E+01  0.10597962974E+02  0.51100000000E-03 0. -1.
        -11    1    3    3    0    0 -0.68859355308E+01  0.13412519979E+01  0.12944947815E+02  0.14723679542E+02  0.51100000000E-03 0.  1.
         12    1    3    3    0    0 -0.13631611794E+02  0.11780213064E+01  0.15693690258E+02  0.20820674538E+02  0.00000000000E+00 0. -1.
</event>
<event>
 7    1  0.1503436E-008  0.4614231E+02  0.7816164E-02  0.1320468E+00
        -11   -1    0    0    0    0  0.00000000000E+00  0.00000000000E+00  0.45593999997E+02  0.45594000000E+02  0.51100000000E-03 0.  1.
         11   -1    0    0    0    0 -0.00000000000E+00 -0.00000000000E+00 -0.45593999997E+02  0.45594000000E+02  0.51100000000E-03 0. -1.
    9900012    2    1    2    0    0 -0.13319434332E+02  0.24406793308E+02  0.35440301403E+02  0.46142313702E+02  0.99999629842E+01 0.  0.
         12    1    1    2    0    0  0.13319434332E+02 -0.24406793308E+02 -0.35440301403E+02  0.45045686298E+02  0.00000000000E+00 0. -1.
         11    1    3    3    0    0 -0.24220348780E+01  0.46132936005E+01  0.23812920767E+01  0.57288116578E+01  0.51100000000E-03 0. -1.
        -11    1    3    3    0    0 -0.99253251769E+01  0.12864387065E+02  0.23011619721E+02  0.28169827420E+02  0.51100000000E-03 0.  1.
         12    1    3    3    0    0 -0.97207427739E+00  0.69291126422E+01  0.10047389605E+02  0.12243674624E+02  0.00000000000E+00 0. -1.
</event>
<event>
 7    1  0.1791530E-008  0.4614232E+02  0.7816164E-02  0.1320468E+00
        -11   -1    0    0    0    0  0.00000000000E+00  0.00000000000E+00  0.45593999997E+02  0.45594000000E+02  0.51100000000E-03 0.  1.
         11   -1    0    0    0    0 -0.00000000000E+00 -0.00000000000E+00 -0.45593999997E+02  0.45594000000E+02  0.51100000000E-03 0. -1.
    9900012    2    1    2    0    0  0.20022758338E+02  0.38145770263E+02  0.13156858846E+02  0.46142316798E+02  0.99999912199E+01 0.  0.
         12    1    1    2    0    0 -0.20022758338E+02 -0.38145770263E+02 -0.13156858846E+02  0.45045683202E+02  0.00000000000E+00 0. -1.
         11    1    3    3    0    0  0.34727561660E+01  0.31692384209E+01  0.29792620396E+01  0.55659779122E+01  0.51100000000E-03 0. -1.
        -11    1    3    3    0    0  0.16559672863E+02  0.34750312915E+02  0.92074210350E+01  0.39580091150E+02  0.51100000000E-03 0.  1.
        -12    1    3    3    0    0 -0.96706912240E-02  0.22621892693E+00  0.97017577120E+00  0.99624773636E+00  0.00000000000E+00 0.  1.
</event>
<event>
 7    1  0.1503436E-008  0.4614232E+02  0.7816164E-02  0.1320468E+00
        -11   -1    0    0    0    0  0.00000000000E+00  0.00000000000E+00  0.45593999997E+02  0.45594000000E+02  0.51100000000E-03 0.  1.
         11   -1    0    0    0    0 -0.00000000000E+00 -0.00000000000E+00 -0.45593999997E+02  0.45594000000E+02  0.51100000000E-03 0. -1.
    9900012    2    1    2    0    0  0.27912655448E+02 -0.34138884892E+02 -0.91942238823E+01  0.46142317092E+02  0.99999939012E+01 0.  0.
         12    1    1    2    0    0 -0.27912655448E+02  0.34138884892E+02  0.91942238823E+01  0.45045682908E+02  0.00000000000E+00 0. -1.
         11    1    3    3    0    0  0.76702568687E+01 -0.65829565300E+01 -0.46531629684E+01  0.11127447280E+02  0.51100000000E-03 0. -1.
        -11    1    3    3    0    0  0.13303159638E+02 -0.19800758501E+02 -0.52536163129E+00  0.23860429558E+02  0.51100000000E-03 0.  1.
        -12    1    3    3    0    0  0.69392389414E+01 -0.77551698609E+01 -0.40156992826E+01  0.11154440254E+02  0.00000000000E+00 0.  1.
</event>
<event>
 7    1  0.1503436E-008  0.4614232E+02  0.7816164E-02  0.1320468E+00
        -11   -1    0    0    0    0  0.00000000000E+00  0.00000000000E+00  0.45593999997E+02  0.45594000000E+02  0.51100000000E-03 0. -1.
         11   -1    0    0    0    0 -0.00000000000E+00 -0.00000000000E+00 -0.45593999997E+02  0.45594000000E+02  0.51100000000E-03 0.  1.
    9900012    2    1    2    0    0 -0.31510223902E+02 -0.23174889354E+01 -0.32106830144E+02  0.46142317552E+02  0.99999980901E+01 0.  0.
         12    1    1    2    0    0  0.31510223902E+02  0.23174889354E+01  0.32106830144E+02  0.45045682448E+02  0.00000000000E+00 0. -1.
         11    1    3    3    0    0 -0.47642438506E+01 -0.30595016695E+01 -0.47994794757E+01  0.74225045256E+01  0.51100000000E-03 0. -1.
        -11    1    3    3    0    0 -0.26246182817E+02  0.14033947238E+01 -0.27292354388E+02  0.37890688005E+02  0.51100000000E-03 0.  1.
        -12    1    3    3    0    0 -0.49979723483E+00 -0.66138198972E+00 -0.14996280769E-01  0.82912502115E+00  0.00000000000E+00 0.  1.
</event>
<event>
 7    1  0.1503436E-008  0.4614231E+02  0.7816164E-02  0.1320468E+00
        -11   -1    0    0    0    0  0.00000000000E+00  0.00000000000E+00  0.45593999997E+02  0.45594000000E+02  0.51100000000E-03 0.  1.
         11   -1    0    0    0    0 -0.00000000000E+00 -0.00000000000E+00 -0.45593999997E+02  0.45594000000E+02  0.51100000000E-03 0. -1.
    9900012    2    1    2    0    0 -0.32054505794E+02  0.30489705051E+02 -0.84853107055E+01  0.46142312597E+02  0.99999529123E+01 0.  0.
         12    1    1    2    0    0  0.32054505794E+02 -0.30489705051E+02  0.84853107055E+01  0.45045687403E+02  0.00000000000E+00 0. -1.
         11    1    3    3    0    0 -0.47379809990E+01  0.53617424126E+01  0.18094967848E+01  0.73804488021E+01  0.51100000000E-03 0. -1.
        -11    1    3    3    0    0 -0.13681491108E+02  0.11593352537E+02 -0.28504908769E+01  0.18158037352E+02  0.51100000000E-03 0.  1.
         12    1    3    3    0    0 -0.13635033688E+02  0.13534610101E+02 -0.74443166134E+01  0.20603826443E+02  0.00000000000E+00 0. -1.
</event>
<event>
 7    1  0.1503436E-008  0.4614232E+02  0.7816164E-02  0.1320468E+00
        -11   -1    0    0    0    0  0.00000000000E+00  0.00000000000E+00  0.45593999997E+02  0.45594000000E+02  0.51100000000E-03 0.  1.
         11   -1    0    0    0    0 -0.00000000000E+00 -0.00000000000E+00 -0.45593999997E+02  0.45594000000E+02  0.51100000000E-03 0. -1.
    9900012    2    1    2    0    0  0.18649119732E+02 -0.30758998186E+02  0.27114716255E+02  0.46142317923E+02  0.10000001475E+02 0.  0.
         12    1    1    2    0    0 -0.18649119732E+02  0.30758998186E+02 -0.27114716255E+02  0.45045682077E+02  0.00000000000E+00 0. -1.
         11    1    3    3    0    0  0.30786026245E+01 -0.52131687547E+01  0.91836470126E+00  0.61235869040E+01  0.51100000000E-03 0. -1.
        -11    1    3    3    0    0  0.74928520518E+01 -0.14394230293E+02  0.16740604552E+02  0.23314899499E+02  0.51100000000E-03 0.  1.
        -12    1    3    3    0    0  0.80776650560E+01 -0.11151599139E+02  0.94557470012E+01  0.16703831520E+02  0.00000000000E+00 0.  1.
</event>
<event>
 7    1  0.1503436E-008  0.4614232E+02  0.7816164E-02  0.1320468E+00
        -11   -1    0    0    0    0  0.00000000000E+00  0.00000000000E+00  0.45593999997E+02  0.45594000000E+02  0.51100000000E-03 0. -1.
         11   -1    0    0    0    0 -0.00000000000E+00 -0.00000000000E+00 -0.45593999997E+02  0.45594000000E+02  0.51100000000E-03 0.  1.
    9900012    2    1    2    0    0 -0.10674187786E+02  0.37148910266E+02 -0.23132954487E+02  0.46142318718E+02  0.10000008729E+02 0.  0.
         12    1    1    2    0    0  0.10674187786E+02 -0.37148910266E+02  0.23132954487E+02  0.45045681282E+02  0.00000000000E+00 0. -1.
         11    1    3    3    0    0 -0.48229509351E+01  0.49695770098E+01 -0.47871301325E+01  0.84186796201E+01  0.51100000000E-03 0. -1.
        -11    1    3    3    0    0 -0.32473362203E+01  0.19632103803E+02 -0.13388187965E+02  0.23983499943E+02  0.51100000000E-03 0.  1.
        -12    1    3    3    0    0 -0.26039006302E+01  0.12547229453E+02 -0.49576363893E+01  0.13740139155E+02  0.00000000000E+00 0.  1.
</event>
<event>
 7    1  0.1503436E-008  0.4614232E+02  0.7816164E-02  0.1320468E+00
        -11   -1    0    0    0    0  0.00000000000E+00  0.00000000000E+00  0.45593999997E+02  0.45594000000E+02  0.51100000000E-03 0.  1.
         11   -1    0    0    0    0 -0.00000000000E+00 -0.00000000000E+00 -0.45593999997E+02  0.45594000000E+02  0.51100000000E-03 0. -1.
    9900012    2    1    2    0    0 -0.39907809516E+01  0.40769400237E+02  0.18736143221E+02  0.46142318841E+02  0.10000009845E+02 0.  0.
         12    1    1    2    0    0  0.39907809516E+01 -0.40769400237E+02 -0.18736143221E+02  0.45045681159E+02  0.00000000000E+00 0. -1.
         11    1    3    3    0    0 -0.46176007455E+01  0.85732571969E+01  0.29957410742E+01  0.10188102888E+02  0.51100000000E-03 0. -1.
        -11    1    3    3    0    0  0.49205456119E+00  0.24211280502E+02  0.10449856555E+02  0.26374755421E+02  0.51100000000E-03 0.  1.
         12    1    3    3    0    0  0.13476523268E+00  0.79848625387E+01  0.52905455913E+01  0.95794605320E+01  0.00000000000E+00 0. -1.
</event>
