<event>
 7    1  0.3662489E-015  0.9000751E+02  0.7816164E-02  0.1186339E+00
        -11   -1    0    0    0    0  0.00000000000E+00  0.00000000000E+00  0.45593999997E+02  0.45594000000E+02  0.51100000000E-03 0. -1.
         11   -1    0    0    0    0 -0.00000000000E+00 -0.00000000000E+00 -0.45593999997E+02  0.45594000000E+02  0.51100000000E-03 0.  1.
    9900012    2    1    2    0    0 -0.10068030798E+01 -0.50464234428E+00 -0.35387654117E+00  0.90007514954E+02  0.89999773351E+02 0.  0.
        -12    1    1    2    0    0  0.10068030798E+01  0.50464234428E+00  0.35387654117E+00  0.11804850459E+01  0.00000000000E+00 0.  1.
         11    1    3    3    0    0 -0.33389296676E+02  0.37604376426E+01 -0.18201936618E+02  0.38213826303E+02  0.51100000000E-03 0. -1.
        -11    1    3    3    0    0 -0.12677503445E+00  0.11477634519E+01 -0.91301601767E+01  0.92028939994E+01  0.51100000000E-03 0.  1.
        -12    1    3    3    0    0  0.32509268631E+02 -0.54128434388E+01  0.26978220254E+02  0.42590794652E+02  0.00000000000E+00 0.  1.
</event>
<event>
 7    1  0.3662489E-015  0.9000775E+02  0.7816164E-02  0.1186339E+00
        -11   -1    0    0    0    0  0.00000000000E+00  0.00000000000E+00  0.45593999997E+02  0.45594000000E+02  0.51100000000E-03 0.  1.
         11   -1    0    0    0    0 -0.00000000000E+00 -0.00000000000E+00 -0.45593999997E+02  0.45594000000E+02  0.51100000000E-03 0. -1.
    9900012    2    1    2    0    0 -0.10765038358E+01 -0.35533936466E+00  0.32842254793E+00  0.90007750898E+02  0.90000012410E+02 0.  0.
        -12    1    1    2    0    0  0.10765038358E+01  0.35533936466E+00 -0.32842254793E+00  0.11802491019E+01  0.00000000000E+00 0.  1.
         11    1    3    3    0    0  0.55600190509E+00  0.79531622534E+01  0.60793411724E+01  0.10025982111E+02  0.51100000000E-03 0. -1.
        -11    1    3    3    0    0  0.85945062369E+01  0.30454211505E+02 -0.20001536816E+02  0.37435090638E+02  0.51100000000E-03 0.  1.
         12    1    3    3    0    0 -0.10227011978E+02 -0.38762713123E+02  0.14250618191E+02  0.42546678148E+02  0.00000000000E+00 0. -1.
</event>
<event>
 7    1  0.3662489E-015  0.9000773E+02  0.7816164E-02  0.1186339E+00
        -11   -1    0    0    0    0  0.00000000000E+00  0.00000000000E+00  0.45593999997E+02  0.45594000000E+02  0.51100000000E-03 0. -1.
         11   -1    0    0    0    0 -0.00000000000E+00 -0.00000000000E+00 -0.45593999997E+02  0.45594000000E+02  0.51100000000E-03 0.  1.
    9900012    2    1    2    0    0  0.19078117200E+00 -0.11312401658E+01  0.27738590524E+00  0.90007726850E+02  0.89999988044E+02 0.  0.
        -12    1    1    2    0    0 -0.19078117200E+00  0.11312401658E+01 -0.27738590524E+00  0.11802731500E+01  0.00000000000E+00 0.  1.
         11    1    3    3    0    0  0.17278560401E+02 -0.27479104421E+02  0.22415475847E+02  0.39447476308E+02  0.51100000000E-03 0. -1.
        -11    1    3    3    0    0 -0.91888964675E+01 -0.13388209254E+01  0.53811700588E+01  0.10732439202E+02  0.51100000000E-03 0.  1.
        -12    1    3    3    0    0 -0.78988827614E+01  0.27686685181E+02 -0.27519260001E+02  0.39827811340E+02  0.00000000000E+00 0.  1.
</event>
<event>
 7    1  0.3662489E-015  0.9000774E+02  0.7816164E-02  0.1186339E+00
        -11   -1    0    0    0    0  0.00000000000E+00  0.00000000000E+00  0.45593999997E+02  0.45594000000E+02  0.51100000000E-03 0.  1.
         11   -1    0    0    0    0 -0.00000000000E+00 -0.00000000000E+00 -0.45593999997E+02  0.45594000000E+02  0.51100000000E-03 0. -1.
    9900012    2    1    2    0    0  0.10690256956E-01 -0.70915502193E-01 -0.11780797587E+01  0.90007739347E+02  0.90000000707E+02 0.  0.
        -12    1    1    2    0    0 -0.10690256956E-01  0.70915502193E-01  0.11780797587E+01  0.11802606526E+01  0.00000000000E+00 0.  1.
         11    1    3    3    0    0  0.21581829334E+02  0.16759321877E+02 -0.30029683284E+02  0.40600887990E+02  0.51100000000E-03 0. -1.
        -11    1    3    3    0    0 -0.48870794831E+01  0.93821598247E+00 -0.54160693447E+01  0.73551072399E+01  0.51100000000E-03 0.  1.
        -12    1    3    3    0    0 -0.16684059594E+02 -0.17768453361E+02  0.34267672870E+02  0.42051744118E+02  0.00000000000E+00 0.  1.
</event>
<event>
 7    1  0.3662489E-015  0.9000771E+02  0.7816164E-02  0.1186339E+00
        -11   -1    0    0    0    0  0.00000000000E+00  0.00000000000E+00  0.45593999997E+02  0.45594000000E+02  0.51100000000E-03 0. -1.
         11   -1    0    0    0    0 -0.00000000000E+00 -0.00000000000E+00 -0.45593999997E+02  0.45594000000E+02  0.51100000000E-03 0.  1.
    9900012    2    1    2    0    0 -0.48906160436E+00  0.52262138348E+00  0.93848940315E+00  0.90007713288E+02  0.89999974303E+02 0.  0.
        -12    1    1    2    0    0  0.48906160436E+00 -0.52262138348E+00 -0.93848940315E+00  0.11802867123E+01  0.00000000000E+00 0.  1.
         11    1    3    3    0    0  0.88599403806E+01 -0.21091070828E+02  0.21576011445E+02  0.31446082146E+02  0.51100000000E-03 0. -1.
        -11    1    3    3    0    0 -0.17791968094E+01 -0.14005604971E+02  0.39051716766E+01  0.14648306317E+02  0.51100000000E-03 0.  1.
        -12    1    3    3    0    0 -0.75698051756E+01  0.35619297182E+02 -0.24542693719E+02  0.43913324824E+02  0.00000000000E+00 0.  1.
</event>
<event>
 7    1  0.3662489E-015  0.9000758E+02  0.7816164E-02  0.1186339E+00
        -11   -1    0    0    0    0  0.00000000000E+00  0.00000000000E+00  0.45593999997E+02  0.45594000000E+02  0.51100000000E-03 0.  1.
         11   -1    0    0    0    0 -0.00000000000E+00 -0.00000000000E+00 -0.45593999997E+02  0.45594000000E+02  0.51100000000E-03 0. -1.
    9900012    2    1    2    0    0  0.76631880040E+00 -0.34405127828E+00 -0.82932182229E+00  0.90007580384E+02  0.89999839644E+02 0.  0.
        -12    1    1    2    0    0 -0.76631880040E+00  0.34405127828E+00  0.82932182229E+00  0.11804196164E+01  0.00000000000E+00 0.  1.
         11    1    3    3    0    0 -0.30200754448E+02  0.18812478064E+02 -0.38396693139E+01  0.35787399471E+02  0.51100000000E-03 0. -1.
        -11    1    3    3    0    0 -0.58741776150E+01  0.67877533903E+01 -0.72500552299E+00  0.90058421044E+01  0.51100000000E-03 0.  1.
        -12    1    3    3    0    0  0.36841250864E+02 -0.25944282733E+02  0.37353530147E+01  0.45214338808E+02  0.00000000000E+00 0.  1.
</event>
<event>
 7    1  0.3662489E-015  0.9000777E+02  0.7816164E-02  0.1186339E+00
        -11   -1    0    0    0    0  0.00000000000E+00  0.00000000000E+00  0.45593999997E+02  0.45594000000E+02  0.51100000000E-03 0. -1.
         11   -1    0    0    0    0 -0.00000000000E+00 -0.00000000000E+00 -0.45593999997E+02  0.45594000000E+02  0.51100000000E-03 0.  1.
    9900012    2    1    2    0    0  0.30162232094E+00  0.10857742669E+01  0.35081158378E+00  0.90007766739E+02  0.90000028460E+02 0.  0.
        -12    1    1    2    0    0 -0.30162232094E+00 -0.10857742669E+01 -0.35081158378E+00  0.11802332610E+01  0.00000000000E+00 0.  1.
         11    1    3    3    0    0  0.30785961237E+02  0.20477727065E+02 -0.65747263827E+01  0.37554490308E+02  0.51100000000E-03 0. -1.
        -11    1    3    3    0    0  0.50217212279E+01  0.63576713815E+01  0.17515451166E+01  0.82888829188E+01  0.51100000000E-03 0.  1.
        -12    1    3    3    0    0 -0.35506060143E+02 -0.25749624180E+02  0.51739928499E+01  0.44164393512E+02  0.00000000000E+00 0.  1.
</event>
<event>
 7    1  0.3662489E-015  0.9000775E+02  0.7816164E-02  0.1186339E+00
        -11   -1    0    0    0    0  0.00000000000E+00  0.00000000000E+00  0.45593999997E+02  0.45594000000E+02  0.51100000000E-03 0. -1.
         11   -1    0    0    0    0 -0.00000000000E+00 -0.00000000000E+00 -0.45593999997E+02  0.45594000000E+02  0.51100000000E-03 0.  1.
    9900012    2    1    2    0    0 -0.13804039971E+00  0.26765105418E+00 -0.11411812569E+01  0.90007751340E+02  0.90000012858E+02 0.  0.
        -12    1    1    2    0    0  0.13804039971E+00 -0.26765105418E+00  0.11411812569E+01  0.11802486602E+01  0.00000000000E+00 0.  1.
         11    1    3    3    0    0  0.20848122211E+01  0.57144587743E+01 -0.65007800661E+00  0.61175225996E+01  0.51100000000E-03 0. -1.
        -11    1    3    3    0    0  0.14143199537E+02  0.28924660582E+02 -0.23088135715E+02  0.39619794219E+02  0.51100000000E-03 0.  1.
         12    1    3    3    0    0 -0.16366052158E+02 -0.34371468302E+02  0.22597032465E+02  0.44270434521E+02  0.00000000000E+00 0. -1.
</event>
<event>
 7    1  0.3662489E-015  0.9000776E+02  0.7816164E-02  0.1186339E+00
        -11   -1    0    0    0    0  0.00000000000E+00  0.00000000000E+00  0.45593999997E+02  0.45594000000E+02  0.51100000000E-03 0.  1.
         11   -1    0    0    0    0 -0.00000000000E+00 -0.00000000000E+00 -0.45593999997E+02  0.45594000000E+02  0.51100000000E-03 0. -1.
    9900012    2    1    2    0    0  0.39471406082E+00 -0.33212473891E+00 -0.10615352845E+01  0.90007761383E+02  0.90000023034E+02 0.  0.
        -12    1    1    2    0    0 -0.39471406082E+00  0.33212473891E+00  0.10615352845E+01  0.11802386166E+01  0.00000000000E+00 0.  1.
         11    1    3    3    0    0 -0.55071979213E+01 -0.16149428352E+01 -0.93763265437E+01  0.10993305646E+02  0.51100000000E-03 0. -1.
        -11    1    3    3    0    0 -0.18193856617E+00  0.22771537505E+01  0.43365574891E+02  0.43425702260E+02  0.51100000000E-03 0.  1.
         12    1    3    3    0    0  0.60838505483E+01 -0.99433565416E+00 -0.35050783632E+02  0.35588753478E+02  0.00000000000E+00 0. -1.
</event>
<event>
 7    1  0.3662489E-015  0.9000793E+02  0.7816164E-02  0.1186339E+00
        -11   -1    0    0    0    0  0.00000000000E+00  0.00000000000E+00  0.45593999997E+02  0.45594000000E+02  0.51100000000E-03 0.  1.
         11   -1    0    0    0    0 -0.00000000000E+00 -0.00000000000E+00 -0.45593999997E+02  0.45594000000E+02  0.51100000000E-03 0. -1.
    9900012    2    1    2    0    0  0.38145302584E+00  0.71988585269E-01 -0.11144003908E+01  0.90007925003E+02  0.90000188813E+02 0.  0.
        -12    1    1    2    0    0 -0.38145302584E+00 -0.71988585269E-01  0.11144003908E+01  0.11800749969E+01  0.00000000000E+00 0.  1.
         11    1    3    3    0    0  0.86391560513E+01 -0.56918453854E+00 -0.33731761018E+02  0.34825144507E+02  0.51100000000E-03 0. -1.
        -11    1    3    3    0    0 -0.10306762576E+01  0.10520411993E+02 -0.76808121702E+01  0.13066607743E+02  0.51100000000E-03 0.  1.
        -12    1    3    3    0    0 -0.72270267679E+01 -0.98792388690E+01  0.40298172798E+02  0.42116172753E+02  0.00000000000E+00 0.  1.
</event>
<event>
 7    1  0.3662489E-015  0.9000762E+02  0.7816164E-02  0.1186339E+00
        -11   -1    0    0    0    0  0.00000000000E+00  0.00000000000E+00  0.45593999997E+02  0.45594000000E+02  0.51100000000E-03 0. -1.
         11   -1    0    0    0    0 -0.00000000000E+00 -0.00000000000E+00 -0.45593999997E+02  0.45594000000E+02  0.51100000000E-03 0.  1.
    9900012    2    1    2    0    0 -0.11803145223E+01 -0.36608474975E-02  0.11510158635E-01  0.90007623680E+02  0.89999883512E+02 0.  0.
        -12    1    1    2    0    0  0.11803145223E+01  0.36608474975E-02 -0.11510158635E-01  0.11803763201E+01  0.00000000000E+00 0.  1.
         11    1    3    3    0    0  0.12524793992E+02 -0.11104332769E+02  0.30586590007E+02  0.34867121466E+02  0.51100000000E-03 0. -1.
        -11    1    3    3    0    0  0.49664828208E+01  0.12166159622E+00  0.88546191667E+01  0.10153080025E+02  0.51100000000E-03 0.  1.
        -12    1    3    3    0    0 -0.18671591336E+02  0.10979010325E+02 -0.39429699015E+02  0.44987422188E+02  0.00000000000E+00 0.  1.
</event>
<event>
 7    1  0.3662489E-015  0.9000781E+02  0.7816164E-02  0.1186339E+00
        -11   -1    0    0    0    0  0.00000000000E+00  0.00000000000E+00  0.45593999997E+02  0.45594000000E+02  0.51100000000E-03 0. -1.
         11   -1    0    0    0    0 -0.00000000000E+00 -0.00000000000E+00 -0.45593999997E+02  0.45594000000E+02  0.51100000000E-03 0.  1.
    9900012    2    1    2    0    0  0.13846900360E+00 -0.67990307367E+00  0.95468223179E+00  0.90007805093E+02  0.90000067320E+02 0.  0.
        -12    1    1    2    0    0 -0.13846900360E+00  0.67990307367E+00 -0.95468223179E+00  0.11801949069E+01  0.00000000000E+00 0.  1.
         11    1    3    3    0    0  0.17377318688E+01 -0.52441754449E-01 -0.95439788522E+01  0.97010306039E+01  0.51100000000E-03 0. -1.
        -11    1    3    3    0    0 -0.15078513220E+02 -0.22713395438E+02 -0.24587083772E+02  0.36712185741E+02  0.51100000000E-03 0.  1.
         12    1    3    3    0    0  0.13479250355E+02  0.22085934118E+02  0.35085744856E+02  0.43594588748E+02  0.00000000000E+00 0. -1.
</event>
<event>
 7    1  0.3662489E-015  0.9000771E+02  0.7816164E-02  0.1186339E+00
        -11   -1    0    0    0    0  0.00000000000E+00  0.00000000000E+00  0.45593999997E+02  0.45594000000E+02  0.51100000000E-03 0.  1.
         11   -1    0    0    0    0 -0.00000000000E+00 -0.00000000000E+00 -0.45593999997E+02  0.45594000000E+02  0.51100000000E-03 0. -1.
    9900012    2    1    2    0    0 -0.37196384077E-01  0.10243475821E+01  0.58515600380E+00  0.90007712286E+02  0.89999973288E+02 0.  0.
        -12    1    1    2    0    0  0.37196384077E-01 -0.10243475821E+01 -0.58515600380E+00  0.11802877144E+01  0.00000000000E+00 0.  1.
         11    1    3    3    0    0  0.38073420129E+01 -0.33054686867E+00  0.13870382397E+02  0.14387238183E+02  0.51100000000E-03 0. -1.
        -11    1    3    3    0    0  0.11190775669E+02 -0.26774424468E+02  0.15286583237E+02  0.32799129455E+02  0.51100000000E-03 0.  1.
         12    1    3    3    0    0 -0.15035314067E+02  0.28129318919E+02 -0.28571809630E+02  0.42821344648E+02  0.00000000000E+00 0. -1.
</event>
<event>
 7    1  0.3662489E-015  0.9000776E+02  0.7816164E-02  0.1186339E+00
        -11   -1    0    0    0    0  0.00000000000E+00  0.00000000000E+00  0.45593999997E+02  0.45594000000E+02  0.51100000000E-03 0.  1.
         11   -1    0    0    0    0 -0.00000000000E+00 -0.00000000000E+00 -0.45593999997E+02  0.45594000000E+02  0.51100000000E-03 0. -1.
    9900012    2    1    2    0    0  0.86221608243E+00  0.66405997873E+00 -0.45670278958E+00  0.90007758641E+02  0.90000020255E+02 0.  0.
        -12    1    1    2    0    0 -0.86221608243E+00 -0.66405997873E+00  0.45670278958E+00  0.11802413593E+01  0.00000000000E+00 0.  1.
         11    1    3    3    0    0 -0.58305885611E+01 -0.46801579371E+01  0.56280414001E+01  0.93581243606E+01  0.51100000000E-03 0. -1.
        -11    1    3    3    0    0  0.14228759818E+02 -0.33837987001E+02  0.93303645102E+01  0.37875093035E+02  0.51100000000E-03 0.  1.
         12    1    3    3    0    0 -0.75359551744E+01  0.39182204917E+02 -0.15415108700E+02  0.42774541245E+02  0.00000000000E+00 0. -1.
</event>
<event>
 7    1  0.3662489E-015  0.9000783E+02  0.7816164E-02  0.1186339E+00
        -11   -1    0    0    0    0  0.00000000000E+00  0.00000000000E+00  0.45593999997E+02  0.45594000000E+02  0.51100000000E-03 0. -1.
         11   -1    0    0    0    0 -0.00000000000E+00 -0.00000000000E+00 -0.45593999997E+02  0.45594000000E+02  0.51100000000E-03 0.  1.
    9900012    2    1    2    0    0 -0.31785932070E+00 -0.10862471249E+01  0.33442458912E+00  0.90007827483E+02  0.90000090006E+02 0.  0.
        -12    1    1    2    0    0  0.31785932070E+00  0.10862471249E+01 -0.33442458912E+00  0.11801725170E+01  0.00000000000E+00 0.  1.
         11    1    3    3    0    0  0.42086980078E+01  0.69710557989E+01  0.20500765098E+01  0.83971168761E+01  0.51100000000E-03 0. -1.
        -11    1    3    3    0    0  0.16919010706E+02  0.50113804601E+01 -0.35423975423E+02  0.39575559281E+02  0.51100000000E-03 0.  1.
         12    1    3    3    0    0 -0.21445568034E+02 -0.13068683384E+02  0.33708323502E+02  0.42035151326E+02  0.00000000000E+00 0. -1.
</event>
<event>
 7    1  0.3662489E-015  0.9000779E+02  0.7816164E-02  0.1186339E+00
        -11   -1    0    0    0    0  0.00000000000E+00  0.00000000000E+00  0.45593999997E+02  0.45594000000E+02  0.51100000000E-03 0.  1.
         11   -1    0    0    0    0 -0.00000000000E+00 -0.00000000000E+00 -0.45593999997E+02  0.45594000000E+02  0.51100000000E-03 0. -1.
    9900012    2    1    2    0    0  0.54035095347E+00  0.15258951607E+00 -0.10380854633E+01  0.90007794873E+02  0.90000056965E+02 0.  0.
        -12    1    1    2    0    0 -0.54035095347E+00 -0.15258951607E+00  0.10380854633E+01  0.11802051273E+01  0.00000000000E+00 0.  1.
         11    1    3    3    0    0  0.30203328893E+02 -0.16153140647E+02 -0.12431368952E+01  0.34274048762E+02  0.51100000000E-03 0. -1.
        -11    1    3    3    0    0  0.68387503093E+01 -0.51869828904E+01  0.90368959752E+01  0.12463498162E+02  0.51100000000E-03 0.  1.
        -12    1    3    3    0    0 -0.36501728248E+02  0.21492713053E+02 -0.88318445434E+01  0.43270247949E+02  0.00000000000E+00 0.  1.
</event>
<event>
 7    1  0.3662489E-015  0.9000779E+02  0.7816164E-02  0.1186339E+00
        -11   -1    0    0    0    0  0.00000000000E+00  0.00000000000E+00  0.45593999997E+02  0.45594000000E+02  0.51100000000E-03 0.  1.
         11   -1    0    0    0    0 -0.00000000000E+00 -0.00000000000E+00 -0.45593999997E+02  0.45594000000E+02  0.51100000000E-03 0. -1.
    9900012    2    1    2    0    0  0.79482684205E+00 -0.54356585614E+00 -0.68241448547E+00  0.90007786850E+02  0.90000048837E+02 0.  0.
        -12    1    1    2    0    0 -0.79482684205E+00  0.54356585614E+00  0.68241448547E+00  0.11802131497E+01  0.00000000000E+00 0.  1.
         11    1    3    3    0    0  0.77094596241E+01  0.15908122850E+01  0.46566920683E+01  0.91461047830E+01  0.51100000000E-03 0. -1.
        -11    1    3    3    0    0 -0.43401797585E+02  0.33060659571E+01 -0.61646884798E+01  0.43961909536E+02  0.51100000000E-03 0.  1.
         12    1    3    3    0    0  0.36487164803E+02 -0.54404440982E+01  0.82558192609E+00  0.36899772531E+02  0.00000000000E+00 0. -1.
</event>
<event>
 7    1  0.3662489E-015  0.9000783E+02  0.7816164E-02  0.1186339E+00
        -11   -1    0    0    0    0  0.00000000000E+00  0.00000000000E+00  0.45593999997E+02  0.45594000000E+02  0.51100000000E-03 0.  1.
         11   -1    0    0    0    0 -0.00000000000E+00 -0.00000000000E+00 -0.45593999997E+02  0.45594000000E+02  0.51100000000E-03 0. -1.
    9900012    2    1    2    0    0  0.71809139039E+00  0.41712968954E+00 -0.83853614346E+00  0.90007832518E+02  0.90000095107E+02 0.  0.
        -12    1    1    2    0    0 -0.71809139039E+00 -0.41712968954E+00  0.83853614346E+00  0.11801674825E+01  0.00000000000E+00 0.  1.
         11    1    3    3    0    0  0.11881269270E+01  0.59178841551E+01 -0.62252596963E+01  0.86710355215E+01  0.51100000000E-03 0. -1.
        -11    1    3    3    0    0  0.29997268804E+02  0.14796735439E+02 -0.17912066546E+02  0.37942346311E+02  0.51100000000E-03 0.  1.
         12    1    3    3    0    0 -0.30467304341E+02 -0.20297489904E+02  0.23298790099E+02  0.43394450685E+02  0.00000000000E+00 0. -1.
</event>
<event>
 7    1  0.3662489E-015  0.9000779E+02  0.7816164E-02  0.1186339E+00
        -11   -1    0    0    0    0  0.00000000000E+00  0.00000000000E+00  0.45593999997E+02  0.45594000000E+02  0.51100000000E-03 0. -1.
         11   -1    0    0    0    0 -0.00000000000E+00 -0.00000000000E+00 -0.45593999997E+02  0.45594000000E+02  0.51100000000E-03 0.  1.
    9900012    2    1    2    0    0  0.15286557065E+00 -0.84327793269E+00  0.81143169415E+00  0.90007785211E+02  0.90000047176E+02 0.  0.
        -12    1    1    2    0    0 -0.15286557065E+00  0.84327793269E+00 -0.81143169415E+00  0.11802147892E+01  0.00000000000E+00 0.  1.
         11    1    3    3    0    0  0.50524911830E+01  0.81650105986E+01  0.17869913785E+01  0.97666987093E+01  0.51100000000E-03 0. -1.
        -11    1    3    3    0    0  0.28816928416E+02  0.19111607638E+02  0.78519319804E+01  0.35458732999E+02  0.51100000000E-03 0.  1.
         12    1    3    3    0    0 -0.33716554028E+02 -0.28119896169E+02 -0.88274916647E+01  0.44782353502E+02  0.00000000000E+00 0. -1.
</event>
<event>
 7    1  0.3662489E-015  0.9000773E+02  0.7816164E-02  0.1186339E+00
        -11   -1    0    0    0    0  0.00000000000E+00  0.00000000000E+00  0.45593999997E+02  0.45594000000E+02  0.51100000000E-03 0.  1.
         11   -1    0    0    0    0 -0.00000000000E+00 -0.00000000000E+00 -0.45593999997E+02  0.45594000000E+02  0.51100000000E-03 0. -1.
    9900012    2    1    2    0    0  0.19365234179E-01  0.15890510256E+00 -0.11693680570E+01  0.90007725669E+02  0.89999986848E+02 0.  0.
        -12    1    1    2    0    0 -0.19365234179E-01 -0.15890510256E+00  0.11693680570E+01  0.11802743311E+01  0.00000000000E+00 0.  1.
         11    1    3    3    0    0 -0.18105377266E+02  0.26783212742E+02 -0.21990713410E+02  0.39099061974E+02  0.51100000000E-03 0. -1.
        -11    1    3    3    0    0  0.48864846659E+01  0.28554089990E+01 -0.64804390680E+01  0.86039051434E+01  0.51100000000E-03 0.  1.
        -12    1    3    3    0    0  0.13238257834E+02 -0.29479716638E+02  0.27301784421E+02  0.42304758552E+02  0.00000000000E+00 0.  1.
</event>
<event>
 7    1  0.3662489E-015  0.9000770E+02  0.7816164E-02  0.1186339E+00
        -11   -1    0    0    0    0  0.00000000000E+00  0.00000000000E+00  0.45593999997E+02  0.45594000000E+02  0.51100000000E-03 0. -1.
         11   -1    0    0    0    0 -0.00000000000E+00 -0.00000000000E+00 -0.45593999997E+02  0.45594000000E+02  0.51100000000E-03 0.  1.
    9900012    2    1    2    0    0  0.74746406111E+00  0.32625020062E+00  0.85320419210E+00  0.90007703804E+02  0.89999964695E+02 0.  0.
        -12    1    1    2    0    0 -0.74746406111E+00 -0.32625020062E+00 -0.85320419210E+00  0.11802961957E+01  0.00000000000E+00 0.  1.
         11    1    3    3    0    0  0.50154251542E+01  0.32180319242E+01 -0.76598875427E+01  0.97048491163E+01  0.51100000000E-03 0. -1.
        -11    1    3    3    0    0  0.25005920204E+02  0.10996167167E+00  0.33427084227E+02  0.41745396117E+02  0.51100000000E-03 0.  1.
         12    1    3    3    0    0 -0.29273881297E+02 -0.30017433952E+01 -0.24913992492E+02  0.38557458571E+02  0.00000000000E+00 0. -1.
</event>
<event>
 7    1  0.3662489E-015  0.9000772E+02  0.7816164E-02  0.1186339E+00
        -11   -1    0    0    0    0  0.00000000000E+00  0.00000000000E+00  0.45593999997E+02  0.45594000000E+02  0.51100000000E-03 0.  1.
         11   -1    0    0    0    0 -0.00000000000E+00 -0.00000000000E+00 -0.45593999997E+02  0.45594000000E+02  0.51100000000E-03 0. -1.
    9900012    2    1    2    0    0  0.94532562963E+00 -0.57443635580E+00 -0.41162063587E+00  0.90007724939E+02  0.89999986108E+02 0.  0.
        -12    1    1    2    0    0 -0.94532562963E+00  0.57443635580E+00  0.41162063587E+00  0.11802750615E+01  0.00000000000E+00 0.  1.
         11    1    3    3    0    0  0.42782104593E+01  0.87538637022E+01 -0.14614847653E+01  0.98523678591E+01  0.51100000000E-03 0. -1.
        -11    1    3    3    0    0 -0.18491372148E+02  0.23740410247E+02  0.22815541163E+02  0.37763564999E+02  0.51100000000E-03 0.  1.
         12    1    3    3    0    0  0.15158487318E+02 -0.33068710305E+02 -0.21765677034E+02  0.42391792080E+02  0.00000000000E+00 0. -1.
</event>
<event>
 7    1  0.3662489E-015  0.9000759E+02  0.7816164E-02  0.1186339E+00
        -11   -1    0    0    0    0  0.00000000000E+00  0.00000000000E+00  0.45593999997E+02  0.45594000000E+02  0.51100000000E-03 0. -1.
         11   -1    0    0    0    0 -0.00000000000E+00 -0.00000000000E+00 -0.45593999997E+02  0.45594000000E+02  0.51100000000E-03 0.  1.
    9900012    2    1    2    0    0  0.25351120460E+00 -0.10728190015E+01 -0.42209654850E+00  0.90007587345E+02  0.89999846697E+02 0.  0.
        -12    1    1    2    0    0 -0.25351120460E+00  0.10728190015E+01  0.42209654850E+00  0.11804126554E+01  0.00000000000E+00 0.  1.
         11    1    3    3    0    0 -0.32332317529E+02 -0.18801002120E+02  0.24393112912E+01  0.37480750757E+02  0.51100000000E-03 0. -1.
        -11    1    3    3    0    0 -0.16982489299E+01 -0.34327771604E+01 -0.10803903298E+02  0.11462649572E+02  0.51100000000E-03 0.  1.
        -12    1    3    3    0    0  0.34284077663E+02  0.21160960279E+02  0.79424954587E+01  0.41064187016E+02  0.00000000000E+00 0.  1.
</event>
<event>
 7    1  0.3662489E-015  0.9000773E+02  0.7816164E-02  0.1186339E+00
        -11   -1    0    0    0    0  0.00000000000E+00  0.00000000000E+00  0.45593999997E+02  0.45594000000E+02  0.51100000000E-03 0.  1.
         11   -1    0    0    0    0 -0.00000000000E+00 -0.00000000000E+00 -0.45593999997E+02  0.45594000000E+02  0.51100000000E-03 0. -1.
    9900012    2    1    2    0    0  0.25844333685E+00  0.10263441855E+01 -0.52236919981E+00  0.90007726758E+02  0.89999987951E+02 0.  0.
        -12    1    1    2    0    0 -0.25844333685E+00 -0.10263441855E+01  0.52236919981E+00  0.11802732423E+01  0.00000000000E+00 0.  1.
         11    1    3    3    0    0 -0.23733741742E+02 -0.29125697142E+02 -0.75510055010E+01  0.38322505338E+02  0.51100000000E-03 0. -1.
        -11    1    3    3    0    0 -0.74234692283E+01  0.47689592039E+01 -0.41896726124E+01  0.97675085939E+01  0.51100000000E-03 0.  1.
        -12    1    3    3    0    0  0.31415654307E+02  0.25383082124E+02  0.11218308914E+02  0.41917712825E+02  0.00000000000E+00 0.  1.
</event>
<event>
 7    1  0.3662489E-015  0.9000775E+02  0.7816164E-02  0.1186339E+00
        -11   -1    0    0    0    0  0.00000000000E+00  0.00000000000E+00  0.45593999997E+02  0.45594000000E+02  0.51100000000E-03 0.  1.
         11   -1    0    0    0    0 -0.00000000000E+00 -0.00000000000E+00 -0.45593999997E+02  0.45594000000E+02  0.51100000000E-03 0. -1.
    9900012    2    1    2    0    0 -0.46680267814E+00  0.10732293741E+01 -0.15252571271E+00  0.90007749974E+02  0.90000011474E+02 0.  0.
        -12    1    1    2    0    0  0.46680267814E+00 -0.10732293741E+01  0.15252571271E+00  0.11802500256E+01  0.00000000000E+00 0.  1.
         11    1    3    3    0    0 -0.85670655501E+01 -0.17612565740E+02 -0.35692521633E+02  0.40713059143E+02  0.51100000000E-03 0. -1.
        -11    1    3    3    0    0 -0.63834993958E+01 -0.36558787021E+01  0.57256456681E+01  0.93218845840E+01  0.51100000000E-03 0.  1.
        -12    1    3    3    0    0  0.14483762268E+02  0.22341673816E+02  0.29814350252E+02  0.39972806247E+02  0.00000000000E+00 0.  1.
</event>
<event>
 7    1  0.3662489E-015  0.9000870E+02  0.7816164E-02  0.1186337E+00
        -11   -1    0    0    0    0  0.00000000000E+00  0.00000000000E+00  0.45593999997E+02  0.45594000000E+02  0.51100000000E-03 0.  1.
         11   -1    0    0    0    0 -0.00000000000E+00 -0.00000000000E+00 -0.45593999997E+02  0.45594000000E+02  0.51100000000E-03 0. -1.
    9900012    2    1    2    0    0  0.57748536974E+00 -0.20302816400E+00 -0.10079850144E+01  0.90008702083E+02  0.90000976145E+02 0.  0.
        -12    1    1    2    0    0 -0.57748536974E+00  0.20302816400E+00  0.10079850144E+01  0.11792979169E+01  0.00000000000E+00 0.  1.
         11    1    3    3    0    0 -0.88100197997E+01 -0.33426676746E+02 -0.15386468179E+02  0.37837845742E+02  0.51100000000E-03 0. -1.
        -11    1    3    3    0    0 -0.14527583500E+01 -0.71642357073E+01 -0.14601951984E+01  0.74544584224E+01  0.51100000000E-03 0.  1.
        -12    1    3    3    0    0  0.10840263519E+02  0.40387884289E+02  0.15838678363E+02  0.44716397918E+02  0.00000000000E+00 0.  1.
</event>
<event>
 7    1  0.3662489E-015  0.9000769E+02  0.7816164E-02  0.1186339E+00
        -11   -1    0    0    0    0  0.00000000000E+00  0.00000000000E+00  0.45593999997E+02  0.45594000000E+02  0.51100000000E-03 0. -1.
         11   -1    0    0    0    0 -0.00000000000E+00 -0.00000000000E+00 -0.45593999997E+02  0.45594000000E+02  0.51100000000E-03 0.  1.
    9900012    2    1    2    0    0  0.70137486346E-01 -0.57662393280E+00  0.10274765494E+01  0.90007693901E+02  0.89999954661E+02 0.  0.
        -12    1    1    2    0    0 -0.70137486346E-01  0.57662393280E+00 -0.10274765494E+01  0.11803060986E+01  0.00000000000E+00 0.  1.
         11    1    3    3    0    0  0.25336530370E+01  0.85279961777E+01  0.30218407691E+01  0.93956180432E+01  0.51100000000E-03 0. -1.
        -11    1    3    3    0    0  0.15631447952E+02  0.24308333878E+02  0.21425652648E+02  0.35976323501E+02  0.51100000000E-03 0.  1.
         12    1    3    3    0    0 -0.18094963503E+02 -0.33412953988E+02 -0.23420016868E+02  0.44635752357E+02  0.00000000000E+00 0. -1.
</event>
<event>
 7    1  0.3662489E-015  0.9000773E+02  0.7816164E-02  0.1186339E+00
        -11   -1    0    0    0    0  0.00000000000E+00  0.00000000000E+00  0.45593999997E+02  0.45594000000E+02  0.51100000000E-03 0. -1.
         11   -1    0    0    0    0 -0.00000000000E+00 -0.00000000000E+00 -0.45593999997E+02  0.45594000000E+02  0.51100000000E-03 0.  1.
    9900012    2    1    2    0    0 -0.83831851552E+00  0.58289363690E+00  0.59202557460E+00  0.90007730028E+02  0.89999991265E+02 0.  0.
        -12    1    1    2    0    0  0.83831851552E+00 -0.58289363690E+00 -0.59202557460E+00  0.11802699718E+01  0.00000000000E+00 0.  1.
         11    1    3    3    0    0 -0.34181628620E+01  0.20946722829E+01  0.96057954087E+01  0.10408784512E+02  0.51100000000E-03 0. -1.
        -11    1    3    3    0    0  0.28681439909E+02 -0.99575507521E+01  0.22520454567E+02  0.37801437624E+02  0.51100000000E-03 0.  1.
         12    1    3    3    0    0 -0.26101595563E+02  0.84457721061E+01 -0.31534224401E+02  0.41797507892E+02  0.00000000000E+00 0. -1.
</event>
<event>
 7    1  0.3662489E-015  0.9000779E+02  0.7816164E-02  0.1186339E+00
        -11   -1    0    0    0    0  0.00000000000E+00  0.00000000000E+00  0.45593999997E+02  0.45594000000E+02  0.51100000000E-03 0. -1.
         11   -1    0    0    0    0 -0.00000000000E+00 -0.00000000000E+00 -0.45593999997E+02  0.45594000000E+02  0.51100000000E-03 0.  1.
    9900012    2    1    2    0    0 -0.77567256367E+00 -0.34187983197E+00 -0.82118288383E+00  0.90007791936E+02  0.90000053990E+02 0.  0.
        -12    1    1    2    0    0  0.77567256367E+00  0.34187983197E+00  0.82118288383E+00  0.11802080640E+01  0.00000000000E+00 0.  1.
         11    1    3    3    0    0 -0.85218099366E+01  0.37647820175E+01  0.14649047243E+01  0.94308416564E+01  0.51100000000E-03 0. -1.
        -11    1    3    3    0    0 -0.10757576223E+02  0.22387839745E+02  0.27196973879E+02  0.36832271218E+02  0.51100000000E-03 0.  1.
         12    1    3    3    0    0  0.18503713596E+02 -0.26494501595E+02 -0.29483061487E+02  0.43744679062E+02  0.00000000000E+00 0. -1.
</event>
<event>
 7    1  0.3760007E-015  0.9000779E+02  0.7816164E-02  0.1186339E+00
        -11   -1    0    0    0    0  0.00000000000E+00  0.00000000000E+00  0.45593999997E+02  0.45594000000E+02  0.51100000000E-03 0. -1.
         11   -1    0    0    0    0 -0.00000000000E+00 -0.00000000000E+00 -0.45593999997E+02  0.45594000000E+02  0.51100000000E-03 0.  1.
    9900012    2    1    2    0    0  0.17908377079E+00  0.53661387013E+00  0.10357998875E+01  0.90007785253E+02  0.90000047218E+02 0.  0.
        -12    1    1    2    0    0 -0.17908377079E+00 -0.53661387013E+00 -0.10357998875E+01  0.11802147472E+01  0.00000000000E+00 0.  1.
         11    1    3    3    0    0  0.19168367223E+01  0.25702142071E+01 -0.95893745864E+01  0.10111200191E+02  0.51100000000E-03 0. -1.
        -11    1    3    3    0    0  0.24806540944E+02 -0.13425846609E+02 -0.22401541718E+02  0.36020090261E+02  0.51100000000E-03 0.  1.
         12    1    3    3    0    0 -0.26544293896E+02  0.11392246272E+02  0.33026716192E+02  0.43876494801E+02  0.00000000000E+00 0. -1.
</event>
<event>
 7    1  0.3662489E-015  0.9000799E+02  0.7816164E-02  0.1186339E+00
        -11   -1    0    0    0    0  0.00000000000E+00  0.00000000000E+00  0.45593999997E+02  0.45594000000E+02  0.51100000000E-03 0. -1.
         11   -1    0    0    0    0 -0.00000000000E+00 -0.00000000000E+00 -0.45593999997E+02  0.45594000000E+02  0.51100000000E-03 0.  1.
    9900012    2    1    2    0    0  0.11549850669E+01 -0.15464012904E+00 -0.18580967212E+00  0.90007987581E+02  0.90000252217E+02 0.  0.
        -12    1    1    2    0    0 -0.11549850669E+01  0.15464012904E+00  0.18580967212E+00  0.11800124188E+01  0.00000000000E+00 0.  1.
         11    1    3    3    0    0 -0.32915121558E+02 -0.21131406037E+02  0.18793371711E+02  0.43395073094E+02  0.51100000000E-03 0. -1.
        -11    1    3    3    0    0  0.14091403162E+01  0.59364559884E+01 -0.54919836807E+01  0.82090846715E+01  0.51100000000E-03 0.  1.
        -12    1    3    3    0    0  0.32660966308E+02  0.15040309920E+02 -0.13487197703E+02  0.38403829816E+02  0.00000000000E+00 0.  1.
</event>
<event>
 7    1  0.3662489E-015  0.9000773E+02  0.7816164E-02  0.1186339E+00
        -11   -1    0    0    0    0  0.00000000000E+00  0.00000000000E+00  0.45593999997E+02  0.45594000000E+02  0.51100000000E-03 0.  1.
         11   -1    0    0    0    0 -0.00000000000E+00 -0.00000000000E+00 -0.45593999997E+02  0.45594000000E+02  0.51100000000E-03 0. -1.
    9900012    2    1    2    0    0  0.58154564846E+00 -0.93890311300E+00 -0.41628298483E+00  0.90007734809E+02  0.89999996109E+02 0.  0.
        -12    1    1    2    0    0 -0.58154564846E+00  0.93890311300E+00  0.41628298483E+00  0.11802651907E+01  0.00000000000E+00 0.  1.
         11    1    3    3    0    0  0.38003745085E+00  0.67925788421E+01  0.35765781139E+01  0.76860566649E+01  0.51100000000E-03 0. -1.
        -11    1    3    3    0    0  0.30756149548E+02  0.23332313468E+02 -0.32736203426E+01  0.38743440441E+02  0.51100000000E-03 0.  1.
         12    1    3    3    0    0 -0.30554641350E+02 -0.31063795423E+02 -0.71924075615E+00  0.43578237704E+02  0.00000000000E+00 0. -1.
</event>
<event>
 7    1  0.3662489E-015  0.9000778E+02  0.7816164E-02  0.1186339E+00
        -11   -1    0    0    0    0  0.00000000000E+00  0.00000000000E+00  0.45593999997E+02  0.45594000000E+02  0.51100000000E-03 0.  1.
         11   -1    0    0    0    0 -0.00000000000E+00 -0.00000000000E+00 -0.45593999997E+02  0.45594000000E+02  0.51100000000E-03 0. -1.
    9900012    2    1    2    0    0  0.46602138567E+00  0.93501961434E+00 -0.54908377065E+00  0.90007775192E+02  0.90000037024E+02 0.  0.
        -12    1    1    2    0    0 -0.46602138567E+00 -0.93501961434E+00  0.54908377065E+00  0.11802248084E+01  0.00000000000E+00 0.  1.
         11    1    3    3    0    0 -0.26583827199E+02 -0.25956304289E+01 -0.23742055278E+02  0.35736848700E+02  0.51100000000E-03 0. -1.
        -11    1    3    3    0    0 -0.36673314943E+01 -0.12721974642E+01 -0.88254763345E+01  0.96414127320E+01  0.51100000000E-03 0.  1.
        -12    1    3    3    0    0  0.30717180079E+02  0.48028475075E+01  0.32018447842E+02  0.44629513760E+02  0.00000000000E+00 0.  1.
</event>
<event>
 7    1  0.3662489E-015  0.9000697E+02  0.7816164E-02  0.1186341E+00
        -11   -1    0    0    0    0  0.00000000000E+00  0.00000000000E+00  0.45593999997E+02  0.45594000000E+02  0.51100000000E-03 0. -1.
         11   -1    0    0    0    0 -0.00000000000E+00 -0.00000000000E+00 -0.45593999997E+02  0.45594000000E+02  0.51100000000E-03 0.  1.
    9900012    2    1    2    0    0  0.10526167013E+01 -0.43586738581E-02  0.53554448887E+00  0.90006971288E+02  0.89999222506E+02 0.  0.
        -12    1    1    2    0    0 -0.10526167013E+01  0.43586738581E-02 -0.53554448887E+00  0.11810287115E+01  0.00000000000E+00 0.  1.
         11    1    3    3    0    0 -0.62141577293E+01 -0.49786602387E+01 -0.65345318986E+01  0.10300627236E+02  0.51100000000E-03 0. -1.
        -11    1    3    3    0    0  0.16120619828E+02 -0.30787310998E+02 -0.13767734433E+02  0.37380254330E+02  0.51100000000E-03 0.  1.
         12    1    3    3    0    0 -0.88538453969E+01  0.35761612563E+02  0.20837810821E+02  0.42326089722E+02  0.00000000000E+00 0. -1.
</event>
<event>
 7    1  0.3662489E-015  0.9000771E+02  0.7816164E-02  0.1186339E+00
        -11   -1    0    0    0    0  0.00000000000E+00  0.00000000000E+00  0.45593999997E+02  0.45594000000E+02  0.51100000000E-03 0. -1.
         11   -1    0    0    0    0 -0.00000000000E+00 -0.00000000000E+00 -0.45593999997E+02  0.45594000000E+02  0.51100000000E-03 0.  1.
    9900012    2    1    2    0    0 -0.52596657225E+00  0.10564141061E+01 -0.20689596105E-01  0.90007712044E+02  0.89999973043E+02 0.  0.
        -12    1    1    2    0    0  0.52596657225E+00 -0.10564141061E+01  0.20689596105E-01  0.11802879556E+01  0.00000000000E+00 0.  1.
         11    1    3    3    0    0 -0.56942186027E+01  0.82530367500E+00 -0.64235583875E+01  0.86236508667E+01  0.51100000000E-03 0. -1.
        -11    1    3    3    0    0 -0.20034028396E+02 -0.33472609069E+02  0.18449852447E+01  0.39053576308E+02  0.51100000000E-03 0.  1.
         12    1    3    3    0    0  0.25202280426E+02  0.33703719500E+02  0.45578835467E+01  0.42330484869E+02  0.00000000000E+00 0. -1.
</event>
<event>
 7    1  0.3662489E-015  0.9000767E+02  0.7816164E-02  0.1186339E+00
        -11   -1    0    0    0    0  0.00000000000E+00  0.00000000000E+00  0.45593999997E+02  0.45594000000E+02  0.51100000000E-03 0. -1.
         11   -1    0    0    0    0 -0.00000000000E+00 -0.00000000000E+00 -0.45593999997E+02  0.45594000000E+02  0.51100000000E-03 0.  1.
    9900012    2    1    2    0    0 -0.66731849256E+00 -0.93819796707E+00 -0.26010164836E+00  0.90007668579E+02  0.89999929004E+02 0.  0.
        -12    1    1    2    0    0  0.66731849256E+00  0.93819796707E+00  0.26010164836E+00  0.11803314210E+01  0.00000000000E+00 0.  1.
         11    1    3    3    0    0 -0.11588166777E+02 -0.12470911918E+02  0.15744392913E+01  0.17096435671E+02  0.51100000000E-03 0. -1.
        -11    1    3    3    0    0 -0.28623475552E+02  0.50431354203E+00 -0.11305747755E+02  0.30779499953E+02  0.51100000000E-03 0.  1.
        -12    1    3    3    0    0  0.39544323836E+02  0.11028400409E+02  0.94712068150E+01  0.42131732955E+02  0.00000000000E+00 0.  1.
</event>
<event>
 7    1  0.3662489E-015  0.9000866E+02  0.7816164E-02  0.1186337E+00
        -11   -1    0    0    0    0  0.00000000000E+00  0.00000000000E+00  0.45593999997E+02  0.45594000000E+02  0.51100000000E-03 0.  1.
         11   -1    0    0    0    0 -0.00000000000E+00 -0.00000000000E+00 -0.45593999997E+02  0.45594000000E+02  0.51100000000E-03 0. -1.
    9900012    2    1    2    0    0  0.25861785194E+00 -0.28972346036E+00 -0.11135653053E+01  0.90008656723E+02  0.90000930187E+02 0.  0.
        -12    1    1    2    0    0 -0.25861785194E+00  0.28972346036E+00  0.11135653053E+01  0.11793432774E+01  0.00000000000E+00 0.  1.
         11    1    3    3    0    0  0.61843087000E+00 -0.42040491893E+01  0.11259437416E+02  0.12034592536E+02  0.51100000000E-03 0. -1.
        -11    1    3    3    0    0 -0.37132053596E+02 -0.86478919335E+01 -0.63735793556E+01  0.38654856787E+02  0.51100000000E-03 0.  1.
         12    1    3    3    0    0  0.36772240578E+02  0.12562217662E+02 -0.59994233659E+01  0.39319207399E+02  0.00000000000E+00 0. -1.
</event>
<event>
 7    1  0.5502587E-015  0.9000781E+02  0.7816164E-02  0.1186339E+00
        -11   -1    0    0    0    0  0.00000000000E+00  0.00000000000E+00  0.45593999997E+02  0.45594000000E+02  0.51100000000E-03 0. -1.
         11   -1    0    0    0    0 -0.00000000000E+00 -0.00000000000E+00 -0.45593999997E+02  0.45594000000E+02  0.51100000000E-03 0.  1.
    9900012    2    1    2    0    0  0.57445049067E+00 -0.20198765697E-01  0.10307517523E+01  0.90007809112E+02  0.90000071393E+02 0.  0.
        -12    1    1    2    0    0 -0.57445049067E+00  0.20198765697E-01 -0.10307517523E+01  0.11801908876E+01  0.00000000000E+00 0.  1.
         11    1    3    3    0    0 -0.52149985045E+01 -0.66624710932E+01 -0.46665885141E+01  0.96623899265E+01  0.51100000000E-03 0. -1.
        -11    1    3    3    0    0  0.26029571682E+02  0.27824334794E+02 -0.18492471248E+02  0.42352139283E+02  0.51100000000E-03 0.  1.
         12    1    3    3    0    0 -0.20240122687E+02 -0.21182062466E+02  0.24189811514E+02  0.37993279903E+02  0.00000000000E+00 0. -1.
</event>
<event>
 7    1  0.3662489E-015  0.9000772E+02  0.7816164E-02  0.1186339E+00
        -11   -1    0    0    0    0  0.00000000000E+00  0.00000000000E+00  0.45593999997E+02  0.45594000000E+02  0.51100000000E-03 0.  1.
         11   -1    0    0    0    0 -0.00000000000E+00 -0.00000000000E+00 -0.45593999997E+02  0.45594000000E+02  0.51100000000E-03 0. -1.
    9900012    2    1    2    0    0 -0.93728382506E+00  0.59002830948E+00 -0.40794527441E+00  0.90007723032E+02  0.89999984176E+02 0.  0.
        -12    1    1    2    0    0  0.93728382506E+00 -0.59002830948E+00  0.40794527441E+00  0.11802769682E+01  0.00000000000E+00 0.  1.
         11    1    3    3    0    0 -0.64455363929E+01  0.38946668427E+00  0.70405798324E+01  0.95533443530E+01  0.51100000000E-03 0. -1.
        -11    1    3    3    0    0  0.28891201863E+02  0.28248082329E+02  0.73218421512E+01  0.41064158010E+02  0.51100000000E-03 0.  1.
         12    1    3    3    0    0 -0.23382949295E+02 -0.28047520704E+02 -0.14770367258E+02  0.39390220668E+02  0.00000000000E+00 0. -1.
</event>
<event>
 7    1  0.3662489E-015  0.9000771E+02  0.7816164E-02  0.1186339E+00
        -11   -1    0    0    0    0  0.00000000000E+00  0.00000000000E+00  0.45593999997E+02  0.45594000000E+02  0.51100000000E-03 0.  1.
         11   -1    0    0    0    0 -0.00000000000E+00 -0.00000000000E+00 -0.45593999997E+02  0.45594000000E+02  0.51100000000E-03 0. -1.
    9900012    2    1    2    0    0  0.14450523744E-01  0.11962714651E+00 -0.11741229008E+01  0.90007710181E+02  0.89999971155E+02 0.  0.
        -12    1    1    2    0    0 -0.14450523744E-01 -0.11962714651E+00  0.11741229008E+01  0.11802898195E+01  0.00000000000E+00 0.  1.
         11    1    3    3    0    0  0.13616390308E+02 -0.24260352550E+02 -0.32505204673E+02  0.42785033855E+02  0.51100000000E-03 0. -1.
        -11    1    3    3    0    0 -0.10808239013E+02  0.26705206112E+01  0.32095769088E+01  0.11586677483E+02  0.51100000000E-03 0.  1.
        -12    1    3    3    0    0 -0.27937007715E+01  0.21709459085E+02  0.28121504863E+02  0.35635998843E+02  0.00000000000E+00 0.  1.
</event>
<event>
 7    1  0.3662489E-015  0.9000791E+02  0.7816164E-02  0.1186339E+00
        -11   -1    0    0    0    0  0.00000000000E+00  0.00000000000E+00  0.45593999997E+02  0.45594000000E+02  0.51100000000E-03 0.  1.
         11   -1    0    0    0    0 -0.00000000000E+00 -0.00000000000E+00 -0.45593999997E+02  0.45594000000E+02  0.51100000000E-03 0. -1.
    9900012    2    1    2    0    0 -0.14615847726E+00  0.10190219498E+01 -0.57692379663E+00  0.90007911401E+02  0.90000175031E+02 0.  0.
        -12    1    1    2    0    0  0.14615847726E+00 -0.10190219498E+01  0.57692379663E+00  0.11800885991E+01  0.00000000000E+00 0.  1.
         11    1    3    3    0    0  0.23390204693E+01 -0.95164339253E+01  0.24378947736E+01  0.10098359401E+02  0.51100000000E-03 0. -1.
        -11    1    3    3    0    0 -0.38600554136E+02  0.87471288996E+00  0.10736663561E+02  0.40075476877E+02  0.51100000000E-03 0.  1.
         12    1    3    3    0    0  0.36115375189E+02  0.96607429852E+01 -0.13751482132E+02  0.39834075123E+02  0.00000000000E+00 0. -1.
</event>
<event>
 7    1  0.3662489E-015  0.9000766E+02  0.7816164E-02  0.1186339E+00
        -11   -1    0    0    0    0  0.00000000000E+00  0.00000000000E+00  0.45593999997E+02  0.45594000000E+02  0.51100000000E-03 0. -1.
         11   -1    0    0    0    0 -0.00000000000E+00 -0.00000000000E+00 -0.45593999997E+02  0.45594000000E+02  0.51100000000E-03 0.  1.
    9900012    2    1    2    0    0 -0.10667013705E+00  0.82280157219E+00  0.83953114818E+00  0.90007663822E+02  0.89999924184E+02 0.  0.
        -12    1    1    2    0    0  0.10667013705E+00 -0.82280157219E+00 -0.83953114818E+00  0.11803361784E+01  0.00000000000E+00 0.  1.
         11    1    3    3    0    0 -0.84898973195E+01 -0.30024649657E+00 -0.62748982567E+01  0.10561384987E+02  0.51100000000E-03 0.  1.
        -11    1    3    3    0    0  0.10342994075E+02 -0.37886601483E+02  0.91841800721E+01  0.40332632721E+02  0.51100000000E-03 0. -1.
         12    1    3    3    0    0 -0.19597668925E+01  0.39009649552E+02 -0.20697506673E+01  0.39113646113E+02  0.00000000000E+00 0. -1.
</event>
<event>
 7    1  0.3911570E-015  0.9000773E+02  0.7816164E-02  0.1186339E+00
        -11   -1    0    0    0    0  0.00000000000E+00  0.00000000000E+00  0.45593999997E+02  0.45594000000E+02  0.51100000000E-03 0.  1.
         11   -1    0    0    0    0 -0.00000000000E+00 -0.00000000000E+00 -0.45593999997E+02  0.45594000000E+02  0.51100000000E-03 0. -1.
    9900012    2    1    2    0    0  0.59152607147E+00 -0.81738574757E+00  0.61238948234E+00  0.90007727391E+02  0.89999988593E+02 0.  0.
        -12    1    1    2    0    0 -0.59152607147E+00  0.81738574757E+00 -0.61238948234E+00  0.11802726090E+01  0.00000000000E+00 0.  1.
         11    1    3    3    0    0 -0.36581255294E+02  0.13430877718E+02 -0.15828833045E+02  0.42061011293E+02  0.51100000000E-03 0. -1.
        -11    1    3    3    0    0  0.86168699501E+01  0.48859300963E+01  0.14772152823E+00  0.99067947669E+01  0.51100000000E-03 0.  1.
        -12    1    3    3    0    0  0.28555911416E+02 -0.19134193562E+02  0.16293500999E+02  0.38039921331E+02  0.00000000000E+00 0.  1.
</event>
<event>
 8    1  0.3662489E-015  0.9000758E+02  0.7816164E-02  0.1186339E+00
        -11   -1    0    0    0    0  0.00000000000E+00  0.00000000000E+00  0.45593999997E+02  0.45594000000E+02  0.51100000000E-03 0. -1.
         11   -1    0    0    0    0 -0.00000000000E+00 -0.00000000000E+00 -0.45593999997E+02  0.45594000000E+02  0.51100000000E-03 0.  1.
    9900012    2    1    2    0    0  0.72012436986E-02  0.29631090763E+00  0.11426040671E+01  0.90007578014E+02  0.89999837243E+02 0.  0.
         23    2    3    3    0    0 -0.18237095298E+02 -0.22779506465E+01  0.22753945433E+02  0.61608084101E+02  0.54222073823E+02 0.  0.
        -12    1    1    2    0    0 -0.72012436986E-02 -0.29631090763E+00 -0.11426040671E+01  0.11804219865E+01  0.00000000000E+00 0.  1.
         11    1    4    4    0    0 -0.36632451404E+02  0.18074279461E+01  0.76689110974E+01  0.37470194680E+02  0.51100000000E-03 0. -1.
        -11    1    4    4    0    0  0.18395356106E+02 -0.40853785926E+01  0.15085034336E+02  0.24137889421E+02  0.51100000000E-03 0.  1.
        -12    1    3    3    0    0  0.18244296542E+02  0.25742615541E+01 -0.21611341366E+02  0.28399493913E+02  0.00000000000E+00 0.  1.
</event>
<event>
 7    1  0.3662489E-015  0.9000775E+02  0.7816164E-02  0.1186339E+00
        -11   -1    0    0    0    0  0.00000000000E+00  0.00000000000E+00  0.45593999997E+02  0.45594000000E+02  0.51100000000E-03 0. -1.
         11   -1    0    0    0    0 -0.00000000000E+00 -0.00000000000E+00 -0.45593999997E+02  0.45594000000E+02  0.51100000000E-03 0.  1.
    9900012    2    1    2    0    0 -0.45173561982E+00  0.94534914251E+00 -0.54335201284E+00  0.90007753635E+02  0.90000015183E+02 0.  0.
        -12    1    1    2    0    0  0.45173561982E+00 -0.94534914251E+00  0.54335201284E+00  0.11802463647E+01  0.00000000000E+00 0.  1.
         11    1    3    3    0    0 -0.10286978159E+02 -0.19179163305E+01 -0.52990554905E+01  0.11729463417E+02  0.51100000000E-03 0. -1.
        -11    1    3    3    0    0  0.20937300922E+02  0.18173839527E+02 -0.28664068671E+02  0.39878413284E+02  0.51100000000E-03 0.  1.
         12    1    3    3    0    0 -0.11102058383E+02 -0.15310574054E+02  0.33419772148E+02  0.38399876935E+02  0.00000000000E+00 0. -1.
</event>
<event>
 7    1  0.3662489E-015  0.9000781E+02  0.7816164E-02  0.1186339E+00
        -11   -1    0    0    0    0  0.00000000000E+00  0.00000000000E+00  0.45593999997E+02  0.45594000000E+02  0.51100000000E-03 0. -1.
         11   -1    0    0    0    0 -0.00000000000E+00 -0.00000000000E+00 -0.45593999997E+02  0.45594000000E+02  0.51100000000E-03 0.  1.
    9900012    2    1    2    0    0 -0.44566503761E+00 -0.98493502730E+00  0.47343696559E+00  0.90007806417E+02  0.90000068661E+02 0.  0.
        -12    1    1    2    0    0  0.44566503761E+00  0.98493502730E+00 -0.47343696559E+00  0.11801935833E+01  0.00000000000E+00 0.  1.
         11    1    3    3    0    0 -0.99023327962E+01 -0.73861240180E+01 -0.32117965627E+01  0.12764272805E+02  0.51100000000E-03 0. -1.
        -11    1    3    3    0    0  0.17030246314E+02 -0.17113121707E+02 -0.28061118917E+02  0.37017760862E+02  0.51100000000E-03 0.  1.
         12    1    3    3    0    0 -0.75735785556E+01  0.23514310698E+02  0.31746352446E+02  0.40225772750E+02  0.00000000000E+00 0. -1.
</event>
<event>
 7    1  0.3662489E-015  0.9000772E+02  0.7816164E-02  0.1186339E+00
        -11   -1    0    0    0    0  0.00000000000E+00  0.00000000000E+00  0.45593999997E+02  0.45594000000E+02  0.51100000000E-03 0. -1.
         11   -1    0    0    0    0 -0.00000000000E+00 -0.00000000000E+00 -0.45593999997E+02  0.45594000000E+02  0.51100000000E-03 0.  1.
    9900012    2    1    2    0    0  0.10742674195E+01  0.42195596183E+00  0.24688940982E+00  0.90007723887E+02  0.89999985042E+02 0.  0.
        -12    1    1    2    0    0 -0.10742674195E+01 -0.42195596183E+00 -0.24688940982E+00  0.11802761131E+01  0.00000000000E+00 0.  1.
         11    1    3    3    0    0 -0.16914199528E+02 -0.30699200798E+02  0.10247593768E+02  0.36517725197E+02  0.51100000000E-03 0. -1.
        -11    1    3    3    0    0 -0.39732358516E+01 -0.44420607434E+01  0.62575356650E+01  0.86414848053E+01  0.51100000000E-03 0.  1.
        -12    1    3    3    0    0  0.21961702799E+02  0.35563217503E+02 -0.16258240023E+02  0.44848513884E+02  0.00000000000E+00 0.  1.
</event>
<event>
 7    1  0.3662489E-015  0.9000777E+02  0.7816164E-02  0.1186339E+00
        -11   -1    0    0    0    0  0.00000000000E+00  0.00000000000E+00  0.45593999997E+02  0.45594000000E+02  0.51100000000E-03 0.  1.
         11   -1    0    0    0    0 -0.00000000000E+00 -0.00000000000E+00 -0.45593999997E+02  0.45594000000E+02  0.51100000000E-03 0. -1.
    9900012    2    1    2    0    0  0.41507426318E+00 -0.60150480247E+00 -0.92674434964E+00  0.90007767073E+02  0.90000028799E+02 0.  0.
        -12    1    1    2    0    0 -0.41507426318E+00  0.60150480247E+00  0.92674434964E+00  0.11802329266E+01  0.00000000000E+00 0.  1.
         11    1    3    3    0    0 -0.50905994919E+01  0.18942042350E+01 -0.89105439442E+01  0.10435516591E+02  0.51100000000E-03 0. -1.
        -11    1    3    3    0    0 -0.17417148400E+02 -0.33174625634E+02  0.15493879737E+02  0.40545938809E+02  0.51100000000E-03 0.  1.
         12    1    3    3    0    0  0.22922822155E+02  0.30678916597E+02 -0.75100801426E+01  0.39026311674E+02  0.00000000000E+00 0. -1.
</event>
<event>
 7    1  0.5546011E-015  0.9000773E+02  0.7816164E-02  0.1186339E+00
        -11   -1    0    0    0    0  0.00000000000E+00  0.00000000000E+00  0.45593999997E+02  0.45594000000E+02  0.51100000000E-03 0. -1.
         11   -1    0    0    0    0 -0.00000000000E+00 -0.00000000000E+00 -0.45593999997E+02  0.45594000000E+02  0.51100000000E-03 0.  1.
    9900012    2    1    2    0    0  0.49907433467E+00  0.75469515156E-01  0.10668946088E+01  0.90007730986E+02  0.89999992235E+02 0.  0.
        -12    1    1    2    0    0 -0.49907433467E+00 -0.75469515156E-01 -0.10668946088E+01  0.11802690141E+01  0.00000000000E+00 0.  1.
         11    1    3    3    0    0 -0.82437355884E+00 -0.89390525978E+01 -0.30348760040E+01  0.94761134297E+01  0.51100000000E-03 0. -1.
        -11    1    3    3    0    0  0.55579849077E+01 -0.15791413210E+02 -0.32240170861E+02  0.36327517735E+02  0.51100000000E-03 0.  1.
         12    1    3    3    0    0 -0.42345370142E+01  0.24805935322E+02  0.36341941474E+02  0.44204099821E+02  0.00000000000E+00 0. -1.
</event>
<event>
 7    1  0.3662489E-015  0.9000776E+02  0.7816164E-02  0.1186339E+00
        -11   -1    0    0    0    0  0.00000000000E+00  0.00000000000E+00  0.45593999997E+02  0.45594000000E+02  0.51100000000E-03 0.  1.
         11   -1    0    0    0    0 -0.00000000000E+00 -0.00000000000E+00 -0.45593999997E+02  0.45594000000E+02  0.51100000000E-03 0. -1.
    9900012    2    1    2    0    0  0.17282243533E-01 -0.11344226058E+00 -0.11746489391E+01  0.90007759367E+02  0.90000020990E+02 0.  0.
        -12    1    1    2    0    0 -0.17282243533E-01  0.11344226058E+00  0.11746489391E+01  0.11802406333E+01  0.00000000000E+00 0.  1.
         11    1    3    3    0    0  0.83719207354E+01 -0.48884046976E+01 -0.58793459859E+01  0.11338089203E+02  0.51100000000E-03 0. -1.
        -11    1    3    3    0    0  0.15151645445E+02  0.35360638894E+01  0.36169786006E+02  0.39374224151E+02  0.51100000000E-03 0.  1.
         12    1    3    3    0    0 -0.23506283936E+02  0.12388985477E+01 -0.31465088959E+02  0.39295446013E+02  0.00000000000E+00 0. -1.
</event>
<event>
 7    1  0.3662489E-015  0.9000774E+02  0.7816164E-02  0.1186339E+00
        -11   -1    0    0    0    0  0.00000000000E+00  0.00000000000E+00  0.45593999997E+02  0.45594000000E+02  0.51100000000E-03 0. -1.
         11   -1    0    0    0    0 -0.00000000000E+00 -0.00000000000E+00 -0.45593999997E+02  0.45594000000E+02  0.51100000000E-03 0.  1.
    9900012    2    1    2    0    0  0.58916947453E+00  0.46663296035E-01  0.10216251698E+01  0.90007738961E+02  0.90000000315E+02 0.  0.
        -12    1    1    2    0    0 -0.58916947453E+00 -0.46663296035E-01 -0.10216251698E+01  0.11802610391E+01  0.00000000000E+00 0.  1.
         11    1    3    3    0    0  0.30620823545E+02 -0.23506028669E+02 -0.36370347743E+01  0.38773653949E+02  0.51100000000E-03 0. -1.
        -11    1    3    3    0    0  0.64429629321E+01  0.68887207560E+01 -0.39393093707E+01  0.10221761276E+02  0.51100000000E-03 0.  1.
        -12    1    3    3    0    0 -0.36474617002E+02  0.16663971209E+02  0.85979693148E+01  0.41012323736E+02  0.00000000000E+00 0.  1.
</event>
<event>
 7    1  0.3662489E-015  0.9000773E+02  0.7816164E-02  0.1186339E+00
        -11   -1    0    0    0    0  0.00000000000E+00  0.00000000000E+00  0.45593999997E+02  0.45594000000E+02  0.51100000000E-03 0.  1.
         11   -1    0    0    0    0 -0.00000000000E+00 -0.00000000000E+00 -0.45593999997E+02  0.45594000000E+02  0.51100000000E-03 0. -1.
    9900012    2    1    2    0    0  0.42577151843E+00  0.90059198892E+00 -0.63300687541E+00  0.90007726718E+02  0.89999987910E+02 0.  0.
        -12    1    1    2    0    0 -0.42577151843E+00 -0.90059198892E+00  0.63300687541E+00  0.11802732822E+01  0.00000000000E+00 0.  1.
         11    1    3    3    0    0 -0.19173132346E+02  0.25771797262E+02 -0.19256845212E+02  0.37451577082E+02  0.51100000000E-03 0. -1.
        -11    1    3    3    0    0 -0.74048406521E+01  0.49558283982E+01  0.34695870452E+01  0.95619001627E+01  0.51100000000E-03 0.  1.
        -12    1    3    3    0    0  0.27003744517E+02 -0.29827033671E+02  0.15154251292E+02  0.42994249474E+02  0.00000000000E+00 0.  1.
</event>
<event>
 7    1  0.3662489E-015  0.9000771E+02  0.7816164E-02  0.1186339E+00
        -11   -1    0    0    0    0  0.00000000000E+00  0.00000000000E+00  0.45593999997E+02  0.45594000000E+02  0.51100000000E-03 0.  1.
         11   -1    0    0    0    0 -0.00000000000E+00 -0.00000000000E+00 -0.45593999997E+02  0.45594000000E+02  0.51100000000E-03 0. -1.
    9900012    2    1    2    0    0  0.85127299057E-01  0.59998430989E+00 -0.10128477426E+01  0.90007708350E+02  0.89999969300E+02 0.  0.
        -12    1    1    2    0    0 -0.85127299057E-01 -0.59998430989E+00  0.10128477426E+01  0.11802916499E+01  0.00000000000E+00 0.  1.
         11    1    3    3    0    0 -0.15491449756E+02  0.30180535862E+02 -0.95150009361E+01  0.35233293963E+02  0.51100000000E-03 0. -1.
        -11    1    3    3    0    0 -0.17515557502E+00  0.98669074794E+01 -0.37651897507E+01  0.10562348072E+02  0.51100000000E-03 0.  1.
        -12    1    3    3    0    0  0.15751732630E+02 -0.39447459031E+02  0.12267342944E+02  0.44212066314E+02  0.00000000000E+00 0.  1.
</event>
<event>
 7    1  0.3662489E-015  0.9000776E+02  0.7816164E-02  0.1186339E+00
        -11   -1    0    0    0    0  0.00000000000E+00  0.00000000000E+00  0.45593999997E+02  0.45594000000E+02  0.51100000000E-03 0.  1.
         11   -1    0    0    0    0 -0.00000000000E+00 -0.00000000000E+00 -0.45593999997E+02  0.45594000000E+02  0.51100000000E-03 0. -1.
    9900012    2    1    2    0    0 -0.38668019115E-01  0.86542891448E+00 -0.80157070492E+00  0.90007755103E+02  0.90000016670E+02 0.  0.
        -12    1    1    2    0    0  0.38668019115E-01 -0.86542891448E+00  0.80157070492E+00  0.11802448969E+01  0.00000000000E+00 0.  1.
         11    1    3    3    0    0 -0.18287841983E+02  0.16382932193E+02 -0.23063988401E+02  0.33686691629E+02  0.51100000000E-03 0. -1.
        -11    1    3    3    0    0 -0.34932017839E+01  0.44360241097E+01 -0.10687863489E+02  0.12087646372E+02  0.51100000000E-03 0.  1.
        -12    1    3    3    0    0  0.21742375748E+02 -0.19953527388E+02  0.32950281185E+02  0.44233417102E+02  0.00000000000E+00 0.  1.
</event>
<event>
 7    1  0.3662489E-015  0.9000777E+02  0.7816164E-02  0.1186339E+00
        -11   -1    0    0    0    0  0.00000000000E+00  0.00000000000E+00  0.45593999997E+02  0.45594000000E+02  0.51100000000E-03 0.  1.
         11   -1    0    0    0    0 -0.00000000000E+00 -0.00000000000E+00 -0.45593999997E+02  0.45594000000E+02  0.51100000000E-03 0. -1.
    9900012    2    1    2    0    0 -0.10183266620E+01  0.39365224775E+00  0.44832580131E+00  0.90007768113E+02  0.90000029852E+02 0.  0.
        -12    1    1    2    0    0  0.10183266620E+01 -0.39365224775E+00 -0.44832580131E+00  0.11802318869E+01  0.00000000000E+00 0.  1.
         11    1    3    3    0    0  0.44760733482E+01 -0.16745187728E+01  0.64886244820E+01  0.80586285228E+01  0.51100000000E-03 0. -1.
        -11    1    3    3    0    0  0.14353444768E+02 -0.35862128429E+02 -0.63041333580E+01  0.39138928573E+02  0.51100000000E-03 0.  1.
         12    1    3    3    0    0 -0.19847844778E+02  0.37930299449E+02  0.26383467731E+00  0.42810211018E+02  0.00000000000E+00 0. -1.
</event>
<event>
 7    1  0.3662489E-015  0.9000850E+02  0.7816164E-02  0.1186338E+00
        -11   -1    0    0    0    0  0.00000000000E+00  0.00000000000E+00  0.45593999997E+02  0.45594000000E+02  0.51100000000E-03 0.  1.
         11   -1    0    0    0    0 -0.00000000000E+00 -0.00000000000E+00 -0.45593999997E+02  0.45594000000E+02  0.51100000000E-03 0. -1.
    9900012    2    1    2    0    0  0.32325748521E+00 -0.13127194071E+00 -0.11267124158E+01  0.90008504942E+02  0.90000776404E+02 0.  0.
        -12    1    1    2    0    0 -0.32325748521E+00  0.13127194071E+00  0.11267124158E+01  0.11794950581E+01  0.00000000000E+00 0.  1.
         11    1    3    3    0    0  0.21339874916E+01  0.39238168933E+01 -0.81454414588E+01  0.92896963592E+01  0.51100000000E-03 0. -1.
        -11    1    3    3    0    0  0.23011762279E+02  0.20691055204E+02 -0.19666268566E+02  0.36666375444E+02  0.51100000000E-03 0.  1.
         12    1    3    3    0    0 -0.24822492285E+02 -0.24746144038E+02  0.26684997610E+02  0.44052433138E+02  0.00000000000E+00 0. -1.
</event>
<event>
 7    1  0.3662489E-015  0.9000772E+02  0.7816164E-02  0.1186339E+00
        -11   -1    0    0    0    0  0.00000000000E+00  0.00000000000E+00  0.45593999997E+02  0.45594000000E+02  0.51100000000E-03 0.  1.
         11   -1    0    0    0    0 -0.00000000000E+00 -0.00000000000E+00 -0.45593999997E+02  0.45594000000E+02  0.51100000000E-03 0. -1.
    9900012    2    1    2    0    0 -0.12722769817E+00  0.20089132975E+00 -0.11560802023E+01  0.90007717980E+02  0.89999979057E+02 0.  0.
        -12    1    1    2    0    0  0.12722769817E+00 -0.20089132975E+00  0.11560802023E+01  0.11802820204E+01  0.00000000000E+00 0.  1.
         11    1    3    3    0    0 -0.50490560136E+01  0.35945391126E+01 -0.71142451821E+01  0.94353676575E+01  0.51100000000E-03 0. -1.
        -11    1    3    3    0    0  0.27267860993E+02  0.23694711147E+01 -0.28232702636E+02  0.39322209181E+02  0.51100000000E-03 0.  1.
         12    1    3    3    0    0 -0.22346032677E+02 -0.57631188976E+01  0.34190867616E+02  0.41250141141E+02  0.00000000000E+00 0. -1.
</event>
<event>
 7    1  0.4940453E-015  0.9000772E+02  0.7816164E-02  0.1186339E+00
        -11   -1    0    0    0    0  0.00000000000E+00  0.00000000000E+00  0.45593999997E+02  0.45594000000E+02  0.51100000000E-03 0.  1.
         11   -1    0    0    0    0 -0.00000000000E+00 -0.00000000000E+00 -0.45593999997E+02  0.45594000000E+02  0.51100000000E-03 0. -1.
    9900012    2    1    2    0    0  0.98612019499E+00 -0.64522649468E+00 -0.65687055542E-01  0.90007718230E+02  0.89999979310E+02 0.  0.
        -12    1    1    2    0    0 -0.98612019499E+00  0.64522649468E+00  0.65687055542E-01  0.11802817705E+01  0.00000000000E+00 0.  1.
         11    1    3    3    0    0 -0.31959474524E+02  0.10952263519E+02 -0.17876916933E+02  0.38222300394E+02  0.51100000000E-03 0. -1.
        -11    1    3    3    0    0  0.67315526094E+00  0.97754625250E+01  0.21661754720E+01  0.10035194170E+02  0.51100000000E-03 0.  1.
        -12    1    3    3    0    0  0.32272439459E+02 -0.21372952539E+02  0.15645054406E+02  0.41750223666E+02  0.00000000000E+00 0.  1.
</event>
<event>
 7    1  0.3662489E-015  0.9000790E+02  0.7816164E-02  0.1186339E+00
        -11   -1    0    0    0    0  0.00000000000E+00  0.00000000000E+00  0.45593999997E+02  0.45594000000E+02  0.51100000000E-03 0.  1.
         11   -1    0    0    0    0 -0.00000000000E+00 -0.00000000000E+00 -0.45593999997E+02  0.45594000000E+02  0.51100000000E-03 0. -1.
    9900012    2    1    2    0    0 -0.31979999694E+00  0.11342228205E+01  0.62551257829E-01  0.90007895723E+02  0.90000159147E+02 0.  0.
        -12    1    1    2    0    0  0.31979999694E+00 -0.11342228205E+01 -0.62551257829E-01  0.11801042769E+01  0.00000000000E+00 0.  1.
         11    1    3    3    0    0  0.72645297252E+01 -0.56794927870E+01  0.26168613487E+01  0.95853009356E+01  0.51100000000E-03 0. -1.
        -11    1    3    3    0    0 -0.21259609269E+02  0.30812983726E+02  0.22036952966E+02  0.43440053506E+02  0.51100000000E-03 0.  1.
         12    1    3    3    0    0  0.13675279547E+02 -0.23999268118E+02 -0.24591263057E+02  0.36982541281E+02  0.00000000000E+00 0. -1.
</event>
<event>
 7    1  0.3662489E-015  0.9000776E+02  0.7816164E-02  0.1186339E+00
        -11   -1    0    0    0    0  0.00000000000E+00  0.00000000000E+00  0.45593999997E+02  0.45594000000E+02  0.51100000000E-03 0.  1.
         11   -1    0    0    0    0 -0.00000000000E+00 -0.00000000000E+00 -0.45593999997E+02  0.45594000000E+02  0.51100000000E-03 0. -1.
    9900012    2    1    2    0    0  0.79431968415E+00  0.35325235909E+00 -0.79826577136E+00  0.90007763061E+02  0.90000024734E+02 0.  0.
        -12    1    1    2    0    0 -0.79431968415E+00 -0.35325235909E+00  0.79826577136E+00  0.11802369387E+01  0.00000000000E+00 0.  1.
         11    1    3    3    0    0 -0.45800148654E+01 -0.81410212516E+01 -0.37794608257E+02  0.38931801612E+02  0.51100000000E-03 0. -1.
        -11    1    3    3    0    0  0.92690815050E+00 -0.87644753339E+01 -0.12302076853E+01  0.88987975484E+01  0.51100000000E-03 0.  1.
        -12    1    3    3    0    0  0.44474263990E+01  0.17258748945E+02  0.38226550171E+02  0.42177163901E+02  0.00000000000E+00 0.  1.
</event>
<event>
 7    1  0.3662489E-015  0.9000776E+02  0.7816164E-02  0.1186339E+00
        -11   -1    0    0    0    0  0.00000000000E+00  0.00000000000E+00  0.45593999997E+02  0.45594000000E+02  0.51100000000E-03 0. -1.
         11   -1    0    0    0    0 -0.00000000000E+00 -0.00000000000E+00 -0.45593999997E+02  0.45594000000E+02  0.51100000000E-03 0.  1.
    9900012    2    1    2    0    0  0.11739814927E+01 -0.47499614467E-01  0.11165987132E+00  0.90007764140E+02  0.90000025827E+02 0.  0.
        -12    1    1    2    0    0 -0.11739814927E+01  0.47499614467E-01 -0.11165987132E+00  0.11802358601E+01  0.00000000000E+00 0.  1.
         11    1    3    3    0    0  0.16033611397E+02 -0.46174774574E+01  0.39391326416E+02  0.42779368737E+02  0.51100000000E-03 0. -1.
        -11    1    3    3    0    0  0.50770034033E+01 -0.16244381147E+01 -0.73525263524E+01  0.90815420921E+01  0.51100000000E-03 0.  1.
        -12    1    3    3    0    0 -0.19936633307E+02  0.61944159576E+01 -0.31927140192E+02  0.38146853311E+02  0.00000000000E+00 0.  1.
</event>
<event>
 7    1  0.3662489E-015  0.9000776E+02  0.7816164E-02  0.1186339E+00
        -11   -1    0    0    0    0  0.00000000000E+00  0.00000000000E+00  0.45593999997E+02  0.45594000000E+02  0.51100000000E-03 0. -1.
         11   -1    0    0    0    0 -0.00000000000E+00 -0.00000000000E+00 -0.45593999997E+02  0.45594000000E+02  0.51100000000E-03 0.  1.
    9900012    2    1    2    0    0  0.97134535090E+00  0.64472077690E+00  0.18379219092E+00  0.90007764328E+02  0.90000026018E+02 0.  0.
        -12    1    1    2    0    0 -0.97134535090E+00 -0.64472077690E+00 -0.18379219092E+00  0.11802356715E+01  0.00000000000E+00 0.  1.
         11    1    3    3    0    0  0.29542599256E+00  0.63847067697E+01 -0.11832302557E+02  0.13448239331E+02  0.51100000000E-03 0. -1.
        -11    1    3    3    0    0 -0.94770131980E+01  0.14382444363E+02 -0.26692490398E+02  0.31767239870E+02  0.51100000000E-03 0.  1.
         12    1    3    3    0    0  0.10152932556E+02 -0.20122430356E+02  0.38708585146E+02  0.44792285127E+02  0.00000000000E+00 0. -1.
</event>
<event>
 7    1  0.3662489E-015  0.9000771E+02  0.7816164E-02  0.1186339E+00
        -11   -1    0    0    0    0  0.00000000000E+00  0.00000000000E+00  0.45593999997E+02  0.45594000000E+02  0.51100000000E-03 0.  1.
         11   -1    0    0    0    0 -0.00000000000E+00 -0.00000000000E+00 -0.45593999997E+02  0.45594000000E+02  0.51100000000E-03 0. -1.
    9900012    2    1    2    0    0  0.57753846495E+00  0.69002564750E-01 -0.10270228896E+01  0.90007708490E+02  0.89999969442E+02 0.  0.
        -12    1    1    2    0    0 -0.57753846495E+00 -0.69002564750E-01  0.10270228896E+01  0.11802915098E+01  0.00000000000E+00 0.  1.
         11    1    3    3    0    0  0.16124024219E+02  0.18214536306E+02 -0.16430968424E+02  0.29355241669E+02  0.51100000000E-03 0. -1.
        -11    1    3    3    0    0  0.96936253077E+01  0.13000656325E+02  0.12468331238E+02  0.20455872521E+02  0.51100000000E-03 0.  1.
        -12    1    3    3    0    0 -0.25240111061E+02 -0.31146190066E+02  0.29356142957E+01  0.40196594300E+02  0.00000000000E+00 0.  1.
</event>
<event>
 7    1  0.3662489E-015  0.9000780E+02  0.7816164E-02  0.1186339E+00
        -11   -1    0    0    0    0  0.00000000000E+00  0.00000000000E+00  0.45593999997E+02  0.45594000000E+02  0.51100000000E-03 0.  1.
         11   -1    0    0    0    0 -0.00000000000E+00 -0.00000000000E+00 -0.45593999997E+02  0.45594000000E+02  0.51100000000E-03 0. -1.
    9900012    2    1    2    0    0  0.88885308209E+00  0.54209138237E+00 -0.55582753799E+00  0.90007802084E+02  0.90000064272E+02 0.  0.
        -12    1    1    2    0    0 -0.88885308209E+00 -0.54209138237E+00  0.55582753799E+00  0.11801979158E+01  0.00000000000E+00 0.  1.
         11    1    3    3    0    0 -0.34107787948E+02  0.12236105379E+02  0.82162777425E+01  0.37156031728E+02  0.51100000000E-03 0. -1.
        -11    1    3    3    0    0 -0.63655284794E+01 -0.69055531537E+01  0.24916651568E+01  0.97167387891E+01  0.51100000000E-03 0.  1.
        -12    1    3    3    0    0  0.41362169510E+02 -0.47884608434E+01 -0.11263770437E+02  0.43135031567E+02  0.00000000000E+00 0.  1.
</event>
<event>
 7    1  0.3662489E-015  0.9000794E+02  0.7816164E-02  0.1186339E+00
        -11   -1    0    0    0    0  0.00000000000E+00  0.00000000000E+00  0.45593999997E+02  0.45594000000E+02  0.51100000000E-03 0.  1.
         11   -1    0    0    0    0 -0.00000000000E+00 -0.00000000000E+00 -0.45593999997E+02  0.45594000000E+02  0.51100000000E-03 0. -1.
    9900012    2    1    2    0    0 -0.11644045671E+01 -0.19142702380E+00 -0.73091374764E-02  0.90007942491E+02  0.90000206532E+02 0.  0.
        -12    1    1    2    0    0  0.11644045671E+01  0.19142702380E+00  0.73091374764E-02  0.11800575091E+01  0.00000000000E+00 0.  1.
         11    1    3    3    0    0 -0.16565223047E+02  0.36469155547E+02 -0.11933048371E+02  0.41794779155E+02  0.51100000000E-03 0. -1.
        -11    1    3    3    0    0 -0.63721402184E+01 -0.48503680489E+01  0.35805520975E+01  0.87721488106E+01  0.51100000000E-03 0.  1.
        -12    1    3    3    0    0  0.21772958698E+02 -0.31810214522E+02  0.83451871364E+01  0.39441014525E+02  0.00000000000E+00 0.  1.
</event>
<event>
 7    1  0.3662489E-015  0.9000781E+02  0.7816164E-02  0.1186339E+00
        -11   -1    0    0    0    0  0.00000000000E+00  0.00000000000E+00  0.45593999997E+02  0.45594000000E+02  0.51100000000E-03 0. -1.
         11   -1    0    0    0    0 -0.00000000000E+00 -0.00000000000E+00 -0.45593999997E+02  0.45594000000E+02  0.51100000000E-03 0.  1.
    9900012    2    1    2    0    0 -0.76080424753E+00 -0.90214405950E+00  0.12836707846E-01  0.90007808580E+02  0.90000070853E+02 0.  0.
        -12    1    1    2    0    0  0.76080424753E+00  0.90214405950E+00 -0.12836707846E-01  0.11801914202E+01  0.00000000000E+00 0.  1.
         11    1    3    3    0    0 -0.10614459576E+01  0.33319679635E+02  0.19559121749E+02  0.38650833916E+02  0.51100000000E-03 0. -1.
        -11    1    3    3    0    0  0.46990170577E+01  0.53145470111E+01 -0.61288568276E+01  0.93748630666E+01  0.51100000000E-03 0.  1.
        -12    1    3    3    0    0 -0.43983753476E+01 -0.39536370706E+02 -0.13417428214E+02  0.41982111597E+02  0.00000000000E+00 0.  1.
</event>
<event>
 7    1  0.3662489E-015  0.9000768E+02  0.7816164E-02  0.1186339E+00
        -11   -1    0    0    0    0  0.00000000000E+00  0.00000000000E+00  0.45593999997E+02  0.45594000000E+02  0.51100000000E-03 0. -1.
         11   -1    0    0    0    0 -0.00000000000E+00 -0.00000000000E+00 -0.45593999997E+02  0.45594000000E+02  0.51100000000E-03 0.  1.
    9900012    2    1    2    0    0 -0.71021195091E+00  0.93430105709E+00  0.12585255693E+00  0.90007678710E+02  0.89999939269E+02 0.  0.
        -12    1    1    2    0    0  0.71021195091E+00 -0.93430105709E+00 -0.12585255693E+00  0.11803212896E+01  0.00000000000E+00 0.  1.
         11    1    3    3    0    0 -0.60992346803E+01  0.69698387979E+01 -0.68105322438E+00  0.92867190282E+01  0.51100000000E-03 0. -1.
        -11    1    3    3    0    0 -0.33936497275E+02  0.13683869943E+02 -0.19383810238E+01  0.36642754607E+02  0.51100000000E-03 0.  1.
         12    1    3    3    0    0  0.39325520005E+02 -0.19719407684E+02  0.27452868051E+01  0.44078205075E+02  0.00000000000E+00 0. -1.
</event>
<event>
 7    1  0.3662489E-015  0.9000759E+02  0.7816164E-02  0.1186339E+00
        -11   -1    0    0    0    0  0.00000000000E+00  0.00000000000E+00  0.45593999997E+02  0.45594000000E+02  0.51100000000E-03 0.  1.
         11   -1    0    0    0    0 -0.00000000000E+00 -0.00000000000E+00 -0.45593999997E+02  0.45594000000E+02  0.51100000000E-03 0. -1.
    9900012    2    1    2    0    0  0.53788361624E+00  0.81302622160E+00  0.66560535175E+00  0.90007592907E+02  0.89999852333E+02 0.  0.
        -12    1    1    2    0    0 -0.53788361624E+00 -0.81302622160E+00 -0.66560535175E+00  0.11804070933E+01  0.00000000000E+00 0.  1.
         11    1    3    3    0    0  0.21000739950E+00 -0.87284623771E+01 -0.43564822132E+00  0.87418503882E+01  0.51100000000E-03 0. -1.
        -11    1    3    3    0    0 -0.33740163119E+02 -0.16243454948E+02 -0.60911834290E+01  0.37938778997E+02  0.51100000000E-03 0.  1.
         12    1    3    3    0    0  0.34068039336E+02  0.25784943547E+02  0.71924370021E+01  0.43326963521E+02  0.00000000000E+00 0. -1.
</event>
<event>
 7    1  0.3662489E-015  0.9000769E+02  0.7816164E-02  0.1186339E+00
        -11   -1    0    0    0    0  0.00000000000E+00  0.00000000000E+00  0.45593999997E+02  0.45594000000E+02  0.51100000000E-03 0.  1.
         11   -1    0    0    0    0 -0.00000000000E+00 -0.00000000000E+00 -0.45593999997E+02  0.45594000000E+02  0.51100000000E-03 0. -1.
    9900012    2    1    2    0    0  0.70784175465E+00  0.66860399634E+00  0.66712706734E+00  0.90007690813E+02  0.89999951531E+02 0.  0.
        -12    1    1    2    0    0 -0.70784175465E+00 -0.66860399634E+00 -0.66712706734E+00  0.11803091873E+01  0.00000000000E+00 0.  1.
         11    1    3    3    0    0 -0.29254482912E+02  0.19734859036E+02  0.18500830357E+01  0.35337122677E+02  0.51100000000E-03 0. -1.
        -11    1    3    3    0    0 -0.10412926787E+02 -0.66568710132E+01  0.80014181363E+00  0.12384797259E+02  0.51100000000E-03 0.  1.
        -12    1    3    3    0    0  0.40375251454E+02 -0.12409384026E+02 -0.19830977820E+01  0.42285770877E+02  0.00000000000E+00 0.  1.
</event>
<event>
 7    1  0.3662489E-015  0.9000779E+02  0.7816164E-02  0.1186339E+00
        -11   -1    0    0    0    0  0.00000000000E+00  0.00000000000E+00  0.45593999997E+02  0.45594000000E+02  0.51100000000E-03 0. -1.
         11   -1    0    0    0    0 -0.00000000000E+00 -0.00000000000E+00 -0.45593999997E+02  0.45594000000E+02  0.51100000000E-03 0.  1.
    9900012    2    1    2    0    0  0.39176400185E+00 -0.88187047087E+00  0.67949921342E+00  0.90007790806E+02  0.90000052845E+02 0.  0.
        -12    1    1    2    0    0 -0.39176400185E+00  0.88187047087E+00 -0.67949921342E+00  0.11802091940E+01  0.00000000000E+00 0.  1.
         11    1    3    3    0    0 -0.65155867980E+01  0.83187199455E+01 -0.74753521884E+01  0.12943525928E+02  0.51100000000E-03 0. -1.
        -11    1    3    3    0    0 -0.23550724176E+01 -0.35701345036E+02 -0.16778356665E+02  0.39517662584E+02  0.51100000000E-03 0.  1.
         12    1    3    3    0    0  0.92624232175E+01  0.26500754620E+02  0.24933208067E+02  0.37546602293E+02  0.00000000000E+00 0. -1.
</event>
<event>
 7    1  0.3662489E-015  0.9000716E+02  0.7816164E-02  0.1186340E+00
        -11   -1    0    0    0    0  0.00000000000E+00  0.00000000000E+00  0.45593999997E+02  0.45594000000E+02  0.51100000000E-03 0.  1.
         11   -1    0    0    0    0 -0.00000000000E+00 -0.00000000000E+00 -0.45593999997E+02  0.45594000000E+02  0.51100000000E-03 0. -1.
    9900012    2    1    2    0    0 -0.10692663680E+01 -0.22861612075E+00  0.44584263116E+00  0.90007164894E+02  0.89999418668E+02 0.  0.
        -12    1    1    2    0    0  0.10692663680E+01  0.22861612075E+00 -0.44584263116E+00  0.11808351062E+01  0.00000000000E+00 0.  1.
         11    1    3    3    0    0  0.16491125725E+02  0.33630088096E+02 -0.13504963011E+02  0.39816128381E+02  0.51100000000E-03 0. -1.
        -11    1    3    3    0    0 -0.91147579826E-01  0.44426272048E+01  0.58092570176E+01  0.73138711856E+01  0.51100000000E-03 0.  1.
        -12    1    3    3    0    0 -0.17469244513E+02 -0.38301331421E+02  0.81415486250E+01  0.42877165328E+02  0.00000000000E+00 0.  1.
</event>
<event>
 7    1  0.3662489E-015  0.9000775E+02  0.7816164E-02  0.1186339E+00
        -11   -1    0    0    0    0  0.00000000000E+00  0.00000000000E+00  0.45593999997E+02  0.45594000000E+02  0.51100000000E-03 0.  1.
         11   -1    0    0    0    0 -0.00000000000E+00 -0.00000000000E+00 -0.45593999997E+02  0.45594000000E+02  0.51100000000E-03 0. -1.
    9900012    2    1    2    0    0  0.84605299560E+00 -0.54322734031E+00 -0.61813755882E+00  0.90007747630E+02  0.90000009099E+02 0.  0.
        -12    1    1    2    0    0 -0.84605299560E+00  0.54322734031E+00  0.61813755882E+00  0.11802523697E+01  0.00000000000E+00 0.  1.
         11    1    3    3    0    0  0.36164328050E+01 -0.77191858862E+01  0.94355018673E+00  0.85764039198E+01  0.51100000000E-03 0. -1.
        -11    1    3    3    0    0  0.25241757908E+02  0.29573825596E+02  0.15320756175E+02  0.41790944865E+02  0.51100000000E-03 0.  1.
         12    1    3    3    0    0 -0.28012137717E+02 -0.22397867050E+02 -0.16882443921E+02  0.39640398845E+02  0.00000000000E+00 0. -1.
</event>
<event>
 7    1  0.3662489E-015  0.9000782E+02  0.7816164E-02  0.1186339E+00
        -11   -1    0    0    0    0  0.00000000000E+00  0.00000000000E+00  0.45593999997E+02  0.45594000000E+02  0.51100000000E-03 0.  1.
         11   -1    0    0    0    0 -0.00000000000E+00 -0.00000000000E+00 -0.45593999997E+02  0.45594000000E+02  0.51100000000E-03 0. -1.
    9900012    2    1    2    0    0  0.86701315066E+00  0.72324897801E+00  0.34355204651E+00  0.90007818278E+02  0.90000080680E+02 0.  0.
        -12    1    1    2    0    0 -0.86701315066E+00 -0.72324897801E+00 -0.34355204651E+00  0.11801817217E+01  0.00000000000E+00 0.  1.
         11    1    3    3    0    0 -0.33527798805E+02 -0.13878601537E+02  0.47603835964E+01  0.36597679237E+02  0.51100000000E-03 0. -1.
        -11    1    3    3    0    0 -0.86497455667E+00 -0.10052818219E+02  0.52001422228E+00  0.10103353413E+02  0.51100000000E-03 0.  1.
        -12    1    3    3    0    0  0.35259786512E+02  0.24654668734E+02 -0.49368457722E+01  0.43306785628E+02  0.00000000000E+00 0.  1.
</event>
<event>
 7    1  0.4648233E-015  0.9000776E+02  0.7816164E-02  0.1186339E+00
        -11   -1    0    0    0    0  0.00000000000E+00  0.00000000000E+00  0.45593999997E+02  0.45594000000E+02  0.51100000000E-03 0. -1.
         11   -1    0    0    0    0 -0.00000000000E+00 -0.00000000000E+00 -0.45593999997E+02  0.45594000000E+02  0.51100000000E-03 0.  1.
    9900012    2    1    2    0    0 -0.94153165711E+00  0.16975628987E+00  0.69113701380E+00  0.90007758740E+02  0.90000020356E+02 0.  0.
        -12    1    1    2    0    0  0.94153165711E+00 -0.16975628987E+00 -0.69113701380E+00  0.11802412597E+01  0.00000000000E+00 0.  1.
         11    1    3    3    0    0 -0.19230157598E+01  0.11995916214E+02  0.41107252853E+02  0.42864976762E+02  0.51100000000E-03 0. -1.
        -11    1    3    3    0    0  0.66172122870E+01  0.29966589348E+01 -0.66941694250E+01  0.98782269550E+01  0.51100000000E-03 0.  1.
        -12    1    3    3    0    0 -0.56357281843E+01 -0.14822818859E+02 -0.33721946414E+02  0.37264555023E+02  0.00000000000E+00 0.  1.
</event>
<event>
 7    1  0.3662489E-015  0.9000783E+02  0.7816164E-02  0.1186339E+00
        -11   -1    0    0    0    0  0.00000000000E+00  0.00000000000E+00  0.45593999997E+02  0.45594000000E+02  0.51100000000E-03 0. -1.
         11   -1    0    0    0    0 -0.00000000000E+00 -0.00000000000E+00 -0.45593999997E+02  0.45594000000E+02  0.51100000000E-03 0.  1.
    9900012    2    1    2    0    0 -0.21022229321E+00 -0.10386106322E+01  0.51951437536E+00  0.90007830248E+02  0.90000092807E+02 0.  0.
        -12    1    1    2    0    0  0.21022229321E+00  0.10386106322E+01 -0.51951437536E+00  0.11801697522E+01  0.00000000000E+00 0.  1.
         11    1    3    3    0    0 -0.39992751892E+01 -0.13339880389E+02  0.35461935979E+02  0.38098497536E+02  0.51100000000E-03 0. -1.
        -11    1    3    3    0    0  0.87656300859E+01 -0.15100921336E+01  0.43953458921E+01  0.99214774518E+01  0.51100000000E-03 0.  1.
        -12    1    3    3    0    0 -0.49765771899E+01  0.13811361890E+02 -0.39337767496E+02  0.41987855260E+02  0.00000000000E+00 0.  1.
</event>
<event>
 7    1  0.3662489E-015  0.9000771E+02  0.7816164E-02  0.1186339E+00
        -11   -1    0    0    0    0  0.00000000000E+00  0.00000000000E+00  0.45593999997E+02  0.45594000000E+02  0.51100000000E-03 0. -1.
         11   -1    0    0    0    0 -0.00000000000E+00 -0.00000000000E+00 -0.45593999997E+02  0.45594000000E+02  0.51100000000E-03 0.  1.
    9900012    2    1    2    0    0  0.65482570958E+00 -0.81085788912E+00  0.55388968613E+00  0.90007711471E+02  0.89999972463E+02 0.  0.
        -12    1    1    2    0    0 -0.65482570958E+00  0.81085788912E+00 -0.55388968613E+00  0.11802885286E+01  0.00000000000E+00 0.  1.
         11    1    3    3    0    0  0.27045888319E+02  0.29746981286E+02  0.19066933036E+00  0.40204468976E+02  0.51100000000E-03 0. -1.
        -11    1    3    3    0    0  0.49808993075E+01 -0.78735654336E+01  0.53910386813E+01  0.10764092571E+02  0.51100000000E-03 0.  1.
        -12    1    3    3    0    0 -0.31371961917E+02 -0.22684273742E+02 -0.50278183256E+01  0.39039149924E+02  0.00000000000E+00 0.  1.
</event>
<event>
 7    1  0.3662489E-015  0.9000770E+02  0.7816164E-02  0.1186339E+00
        -11   -1    0    0    0    0  0.00000000000E+00  0.00000000000E+00  0.45593999997E+02  0.45594000000E+02  0.51100000000E-03 0.  1.
         11   -1    0    0    0    0 -0.00000000000E+00 -0.00000000000E+00 -0.45593999997E+02  0.45594000000E+02  0.51100000000E-03 0. -1.
    9900012    2    1    2    0    0  0.10283150760E+00  0.11435898676E+01  0.27336178746E+00  0.90007703948E+02  0.89999964840E+02 0.  0.
        -12    1    1    2    0    0 -0.10283150760E+00 -0.11435898676E+01 -0.27336178746E+00  0.11802960523E+01  0.00000000000E+00 0.  1.
         11    1    3    3    0    0 -0.26515837963E+02 -0.14574818719E+02  0.21418752908E+02  0.37071255441E+02  0.51100000000E-03 0. -1.
        -11    1    3    3    0    0 -0.45015783512E+01  0.65433367493E+01  0.65374800086E+01  0.10286792921E+02  0.51100000000E-03 0.  1.
        -12    1    3    3    0    0  0.31120247821E+02  0.91750718369E+01 -0.27682871129E+02  0.42649655586E+02  0.00000000000E+00 0.  1.
</event>
<event>
 7    1  0.3662489E-015  0.9000780E+02  0.7816164E-02  0.1186339E+00
        -11   -1    0    0    0    0  0.00000000000E+00  0.00000000000E+00  0.45593999997E+02  0.45594000000E+02  0.51100000000E-03 0. -1.
         11   -1    0    0    0    0 -0.00000000000E+00 -0.00000000000E+00 -0.45593999997E+02  0.45594000000E+02  0.51100000000E-03 0.  1.
    9900012    2    1    2    0    0  0.11308538156E+01 -0.33579167536E+00  0.35997086482E-01  0.90007795699E+02  0.90000057802E+02 0.  0.
        -12    1    1    2    0    0 -0.11308538156E+01  0.33579167536E+00 -0.35997086482E-01  0.11802043009E+01  0.00000000000E+00 0.  1.
         11    1    3    3    0    0 -0.38501216385E+01  0.69152021253E+01 -0.44826218092E+01  0.90960076743E+01  0.51100000000E-03 0. -1.
        -11    1    3    3    0    0  0.23315317052E+02  0.30110799240E+02  0.87643788633E+01  0.39077852772E+02  0.51100000000E-03 0.  1.
         12    1    3    3    0    0 -0.18334341598E+02 -0.37361793041E+02 -0.42457599675E+01  0.41833935253E+02  0.00000000000E+00 0. -1.
</event>
<event>
 7    1  0.3662489E-015  0.9000765E+02  0.7816164E-02  0.1186339E+00
        -11   -1    0    0    0    0  0.00000000000E+00  0.00000000000E+00  0.45593999997E+02  0.45594000000E+02  0.51100000000E-03 0.  1.
         11   -1    0    0    0    0 -0.00000000000E+00 -0.00000000000E+00 -0.45593999997E+02  0.45594000000E+02  0.51100000000E-03 0. -1.
    9900012    2    1    2    0    0  0.52895712566E+00 -0.53598801918E+00 -0.90892535337E+00  0.90007650859E+02  0.89999911050E+02 0.  0.
        -12    1    1    2    0    0 -0.52895712566E+00  0.53598801918E+00  0.90892535337E+00  0.11803491414E+01  0.00000000000E+00 0.  1.
         11    1    3    3    0    0  0.35424982382E+02 -0.10374616638E+02  0.10881257940E+02  0.38483292762E+02  0.51100000000E-03 0. -1.
        -11    1    3    3    0    0  0.10312690052E+01 -0.19880006796E+01  0.83691857710E+01  0.86636558793E+01  0.51100000000E-03 0.  1.
        -12    1    3    3    0    0 -0.35927294262E+02  0.11826629298E+02 -0.20159369064E+02  0.42860702218E+02  0.00000000000E+00 0.  1.
</event>
<event>
 7    1  0.3662489E-015  0.9000779E+02  0.7816164E-02  0.1186339E+00
        -11   -1    0    0    0    0  0.00000000000E+00  0.00000000000E+00  0.45593999997E+02  0.45594000000E+02  0.51100000000E-03 0. -1.
         11   -1    0    0    0    0 -0.00000000000E+00 -0.00000000000E+00 -0.45593999997E+02  0.45594000000E+02  0.51100000000E-03 0.  1.
    9900012    2    1    2    0    0  0.56485790058E+00  0.93402321292E-01  0.10320416907E+01  0.90007788793E+02  0.90000050805E+02 0.  0.
        -12    1    1    2    0    0 -0.56485790058E+00 -0.93402321292E-01 -0.10320416907E+01  0.11802112069E+01  0.00000000000E+00 0.  1.
         11    1    3    3    0    0  0.52949713960E+01  0.86398651490E+01  0.39247128421E+00  0.10140908532E+02  0.51100000000E-03 0. -1.
        -11    1    3    3    0    0  0.10601700806E+02 -0.19088755711E+02  0.34733176535E+02  0.41026457403E+02  0.51100000000E-03 0.  1.
         12    1    3    3    0    0 -0.15331814301E+02  0.10542292883E+02 -0.34093606128E+02  0.38840422859E+02  0.00000000000E+00 0. -1.
</event>
<event>
 7    1  0.3662489E-015  0.9000791E+02  0.7816164E-02  0.1186339E+00
        -11   -1    0    0    0    0  0.00000000000E+00  0.00000000000E+00  0.45593999997E+02  0.45594000000E+02  0.51100000000E-03 0. -1.
         11   -1    0    0    0    0 -0.00000000000E+00 -0.00000000000E+00 -0.45593999997E+02  0.45594000000E+02  0.51100000000E-03 0.  1.
    9900012    2    1    2    0    0  0.89290660763E+00  0.74626061341E+00  0.19604108309E+00  0.90007907114E+02  0.90000170688E+02 0.  0.
        -12    1    1    2    0    0 -0.89290660763E+00 -0.74626061341E+00 -0.19604108309E+00  0.11800928859E+01  0.00000000000E+00 0.  1.
         11    1    3    3    0    0  0.69656599297E+01 -0.50179866284E+01  0.83795951189E+00  0.86257048676E+01  0.51100000000E-03 0. -1.
        -11    1    3    3    0    0 -0.33125267375E+02  0.90331500945E+01 -0.26841001517E+02  0.43581194362E+02  0.51100000000E-03 0.  1.
         12    1    3    3    0    0  0.27052514053E+02 -0.32689028527E+01  0.26199083089E+02  0.37801007885E+02  0.00000000000E+00 0. -1.
</event>
<event>
 7    1  0.3662489E-015  0.9000773E+02  0.7816164E-02  0.1186339E+00
        -11   -1    0    0    0    0  0.00000000000E+00  0.00000000000E+00  0.45593999997E+02  0.45594000000E+02  0.51100000000E-03 0. -1.
         11   -1    0    0    0    0 -0.00000000000E+00 -0.00000000000E+00 -0.45593999997E+02  0.45594000000E+02  0.51100000000E-03 0.  1.
    9900012    2    1    2    0    0  0.70016882528E+00 -0.10096621800E+00  0.94478007263E+00  0.90007728867E+02  0.89999990088E+02 0.  0.
        -12    1    1    2    0    0 -0.70016882528E+00  0.10096621800E+00 -0.94478007263E+00  0.11802711327E+01  0.00000000000E+00 0.  1.
         11    1    3    3    0    0  0.79209898967E+01  0.80068290138E+01  0.67939259687E+01  0.13153281801E+02  0.51100000000E-03 0. -1.
        -11    1    3    3    0    0  0.32853059499E+02 -0.17694430104E+01  0.82204783071E+01  0.33912102719E+02  0.51100000000E-03 0.  1.
         12    1    3    3    0    0 -0.40073880570E+02 -0.63383522214E+01 -0.14069624203E+02  0.42942344347E+02  0.00000000000E+00 0. -1.
</event>
<event>
 7    1  0.3662489E-015  0.9000774E+02  0.7816164E-02  0.1186339E+00
        -11   -1    0    0    0    0  0.00000000000E+00  0.00000000000E+00  0.45593999997E+02  0.45594000000E+02  0.51100000000E-03 0.  1.
         11   -1    0    0    0    0 -0.00000000000E+00 -0.00000000000E+00 -0.45593999997E+02  0.45594000000E+02  0.51100000000E-03 0. -1.
    9900012    2    1    2    0    0 -0.10810870635E+00  0.33420271613E+00 -0.11267770340E+01  0.90007743489E+02  0.90000004903E+02 0.  0.
        -12    1    1    2    0    0  0.10810870635E+00 -0.33420271613E+00  0.11267770340E+01  0.11802565112E+01  0.00000000000E+00 0.  1.
         11    1    3    3    0    0  0.77133513475E+00 -0.34738203296E+02 -0.49884100830E+01  0.35103019266E+02  0.51100000000E-03 0. -1.
        -11    1    3    3    0    0  0.22208758610E+01 -0.94189196659E+01 -0.21184641161E+01  0.99063730868E+01  0.51100000000E-03 0.  1.
        -12    1    3    3    0    0 -0.31003197021E+01  0.44491325678E+02  0.59800971651E+01  0.44998351136E+02  0.00000000000E+00 0.  1.
</event>
<event>
 7    1  0.3662489E-015  0.9000767E+02  0.7816164E-02  0.1186339E+00
        -11   -1    0    0    0    0  0.00000000000E+00  0.00000000000E+00  0.45593999997E+02  0.45594000000E+02  0.51100000000E-03 0.  1.
         11   -1    0    0    0    0 -0.00000000000E+00 -0.00000000000E+00 -0.45593999997E+02  0.45594000000E+02  0.51100000000E-03 0. -1.
    9900012    2    1    2    0    0  0.93235211927E-01  0.11684545959E+01 -0.13856268110E+00  0.90007670146E+02  0.89999930592E+02 0.  0.
        -12    1    1    2    0    0 -0.93235211927E-01 -0.11684545959E+01  0.13856268110E+00  0.11803298539E+01  0.00000000000E+00 0.  1.
         11    1    3    3    0    0 -0.26264750464E+01  0.27939308382E+01 -0.64853433309E+01  0.75341953172E+01  0.51100000000E-03 0. -1.
        -11    1    3    3    0    0  0.11513816927E+02 -0.24502133805E+02 -0.28863553412E+02  0.39573062266E+02  0.51100000000E-03 0.  1.
         12    1    3    3    0    0 -0.87941066687E+01  0.22876657563E+02  0.35210334062E+02  0.42900412563E+02  0.00000000000E+00 0. -1.
</event>
<event>
 7    1  0.3662489E-015  0.9000778E+02  0.7816164E-02  0.1186339E+00
        -11   -1    0    0    0    0  0.00000000000E+00  0.00000000000E+00  0.45593999997E+02  0.45594000000E+02  0.51100000000E-03 0. -1.
         11   -1    0    0    0    0 -0.00000000000E+00 -0.00000000000E+00 -0.45593999997E+02  0.45594000000E+02  0.51100000000E-03 0.  1.
    9900012    2    1    2    0    0 -0.54068724531E+00  0.10289960595E+01  0.20432653261E+00  0.90007777597E+02  0.90000039462E+02 0.  0.
        -12    1    1    2    0    0  0.54068724531E+00 -0.10289960595E+01 -0.20432653261E+00  0.11802224026E+01  0.00000000000E+00 0.  1.
         11    1    3    3    0    0 -0.46922635889E+01 -0.64575868245E-01 -0.71781464258E+01  0.85759718984E+01  0.51100000000E-03 0. -1.
        -11    1    3    3    0    0  0.12694329506E+02 -0.27414740859E+02 -0.23700767222E+02  0.38398442483E+02  0.51100000000E-03 0.  1.
         12    1    3    3    0    0 -0.85427531623E+01  0.28508312787E+02  0.31083240181E+02  0.43033363216E+02  0.00000000000E+00 0. -1.
</event>
<event>
 7    1  0.3662489E-015  0.9000735E+02  0.7816164E-02  0.1186340E+00
        -11   -1    0    0    0    0  0.00000000000E+00  0.00000000000E+00  0.45593999997E+02  0.45594000000E+02  0.51100000000E-03 0. -1.
         11   -1    0    0    0    0 -0.00000000000E+00 -0.00000000000E+00 -0.45593999997E+02  0.45594000000E+02  0.51100000000E-03 0.  1.
    9900012    2    1    2    0    0  0.50018172047E+00  0.95115745938E+00 -0.48892884511E+00  0.90007350314E+02  0.89999606537E+02 0.  0.
        -12    1    1    2    0    0 -0.50018172047E+00 -0.95115745938E+00  0.48892884511E+00  0.11806496862E+01  0.00000000000E+00 0.  1.
         11    1    3    3    0    0 -0.13874962371E+02  0.18587175855E+01  0.32991896355E+02  0.35839009993E+02  0.51100000000E-03 0. -1.
        -11    1    3    3    0    0  0.59513222994E+01 -0.12090302777E+02  0.40826736097E+01  0.14080549791E+02  0.51100000000E-03 0.  1.
        -12    1    3    3    0    0  0.84238217925E+01  0.11182742650E+02 -0.37563498810E+02  0.40087790531E+02  0.00000000000E+00 0.  1.
</event>
<event>
 7    1  0.3662489E-015  0.9000785E+02  0.7816164E-02  0.1186339E+00
        -11   -1    0    0    0    0  0.00000000000E+00  0.00000000000E+00  0.45593999997E+02  0.45594000000E+02  0.51100000000E-03 0.  1.
         11   -1    0    0    0    0 -0.00000000000E+00 -0.00000000000E+00 -0.45593999997E+02  0.45594000000E+02  0.51100000000E-03 0. -1.
    9900012    2    1    2    0    0  0.10074790232E+01 -0.45878254279E+00  0.40896668301E+00  0.90007852064E+02  0.90000114911E+02 0.  0.
        -12    1    1    2    0    0 -0.10074790232E+01  0.45878254279E+00 -0.40896668301E+00  0.11801479363E+01  0.00000000000E+00 0.  1.
         11    1    3    3    0    0 -0.14828011899E+00  0.38465331536E+02  0.14240799979E+02  0.41017119615E+02  0.51100000000E-03 0. -1.
        -11    1    3    3    0    0 -0.98402854597E+01 -0.54544905102E+01 -0.30983085076E+00  0.11255162374E+02  0.51100000000E-03 0.  1.
        -12    1    3    3    0    0  0.10996044602E+02 -0.33469623569E+02 -0.13522002445E+02  0.37735570075E+02  0.00000000000E+00 0.  1.
</event>
<event>
 7    1  0.3662489E-015  0.9000771E+02  0.7816164E-02  0.1186339E+00
        -11   -1    0    0    0    0  0.00000000000E+00  0.00000000000E+00  0.45593999997E+02  0.45594000000E+02  0.51100000000E-03 0.  1.
         11   -1    0    0    0    0 -0.00000000000E+00 -0.00000000000E+00 -0.45593999997E+02  0.45594000000E+02  0.51100000000E-03 0. -1.
    9900012    2    1    2    0    0  0.65153536882E+00 -0.81971821086E+00  0.54465443305E+00  0.90007709894E+02  0.89999970865E+02 0.  0.
        -12    1    1    2    0    0 -0.65153536882E+00  0.81971821086E+00 -0.54465443305E+00  0.11802901056E+01  0.00000000000E+00 0.  1.
         11    1    3    3    0    0  0.52819496676E+00  0.14869585418E+01 -0.95653291154E+01  0.96946148440E+01  0.51100000000E-03 0. -1.
        -11    1    3    3    0    0 -0.14854891473E+02  0.35522470496E+02  0.93364995234E+01  0.39619236924E+02  0.51100000000E-03 0.  1.
         12    1    3    3    0    0  0.14978231875E+02 -0.37829147249E+02  0.77348402497E+00  0.40693858126E+02  0.00000000000E+00 0. -1.
</event>
<event>
 7    1  0.3662489E-015  0.9000779E+02  0.7816164E-02  0.1186339E+00
        -11   -1    0    0    0    0  0.00000000000E+00  0.00000000000E+00  0.45593999997E+02  0.45594000000E+02  0.51100000000E-03 0.  1.
         11   -1    0    0    0    0 -0.00000000000E+00 -0.00000000000E+00 -0.45593999997E+02  0.45594000000E+02  0.51100000000E-03 0. -1.
    9900012    2    1    2    0    0  0.83392761180E+00  0.66967301846E+00 -0.49898581894E+00  0.90007794907E+02  0.90000057000E+02 0.  0.
        -12    1    1    2    0    0 -0.83392761180E+00 -0.66967301846E+00  0.49898581894E+00  0.11802050927E+01  0.00000000000E+00 0.  1.
         11    1    3    3    0    0 -0.62612896999E+01  0.10527209116E+02 -0.31507303830E+02  0.33804379529E+02  0.51100000000E-03 0. -1.
        -11    1    3    3    0    0 -0.26192385071E+01  0.62589946386E+01 -0.94205773353E+01  0.11609595248E+02  0.51100000000E-03 0.  1.
        -12    1    3    3    0    0  0.97144558188E+01 -0.16116530736E+02  0.40428895346E+02  0.44593820129E+02  0.00000000000E+00 0.  1.
</event>
<event>
 7    1  0.3662489E-015  0.9000775E+02  0.7816164E-02  0.1186339E+00
        -11   -1    0    0    0    0  0.00000000000E+00  0.00000000000E+00  0.45593999997E+02  0.45594000000E+02  0.51100000000E-03 0. -1.
         11   -1    0    0    0    0 -0.00000000000E+00 -0.00000000000E+00 -0.45593999997E+02  0.45594000000E+02  0.51100000000E-03 0.  1.
    9900012    2    1    2    0    0  0.96191082790E+00  0.67357974936E+00 -0.11837399226E+00  0.90007748111E+02  0.90000009586E+02 0.  0.
        -12    1    1    2    0    0 -0.96191082790E+00 -0.67357974936E+00  0.11837399226E+00  0.11802518891E+01  0.00000000000E+00 0.  1.
         11    1    3    3    0    0  0.43021470995E+01  0.80431980131E+01  0.38390885977E+00  0.91295613376E+01  0.51100000000E-03 0. -1.
        -11    1    3    3    0    0  0.11772327683E+02  0.34437895454E+02  0.81450387588E+00  0.36403567946E+02  0.51100000000E-03 0.  1.
         12    1    3    3    0    0 -0.15112563955E+02 -0.41807513718E+02 -0.13167867279E+01  0.44474618827E+02  0.00000000000E+00 0. -1.
</event>
<event>
 7    1  0.3662489E-015  0.9000794E+02  0.7816164E-02  0.1186339E+00
        -11   -1    0    0    0    0  0.00000000000E+00  0.00000000000E+00  0.45593999997E+02  0.45594000000E+02  0.51100000000E-03 0.  1.
         11   -1    0    0    0    0 -0.00000000000E+00 -0.00000000000E+00 -0.45593999997E+02  0.45594000000E+02  0.51100000000E-03 0. -1.
    9900012    2    1    2    0    0  0.73059807374E+00 -0.25007937009E+00 -0.89231625236E+00  0.90007940031E+02  0.90000204039E+02 0.  0.
        -12    1    1    2    0    0 -0.73059807374E+00  0.25007937009E+00  0.89231625236E+00  0.11800599692E+01  0.00000000000E+00 0.  1.
         11    1    3    3    0    0  0.63100960171E+01  0.58059791461E+00 -0.19286059693E+01  0.66237396484E+01  0.51100000000E-03 0. -1.
        -11    1    3    3    0    0  0.25328286881E+02 -0.92467988983E+01  0.29902306551E+02  0.40263796933E+02  0.51100000000E-03 0.  1.
         12    1    3    3    0    0 -0.30907784824E+02  0.84161216136E+01 -0.28866016834E+02  0.43120403449E+02  0.00000000000E+00 0. -1.
</event>
<event>
 7    1  0.3662489E-015  0.9000775E+02  0.7816164E-02  0.1186339E+00
        -11   -1    0    0    0    0  0.00000000000E+00  0.00000000000E+00  0.45593999997E+02  0.45594000000E+02  0.51100000000E-03 0.  1.
         11   -1    0    0    0    0 -0.00000000000E+00 -0.00000000000E+00 -0.45593999997E+02  0.45594000000E+02  0.51100000000E-03 0. -1.
    9900012    2    1    2    0    0  0.78625372465E-02  0.75796201107E+00 -0.90466693395E+00  0.90007749818E+02  0.90000011316E+02 0.  0.
        -12    1    1    2    0    0 -0.78625372465E-02 -0.75796201107E+00  0.90466693395E+00  0.11802501816E+01  0.00000000000E+00 0.  1.
         11    1    3    3    0    0  0.30510797297E+02 -0.13241595001E+01  0.18703282025E+02  0.35811658839E+02  0.51100000000E-03 0. -1.
        -11    1    3    3    0    0  0.24487155951E+01 -0.18389326636E+01  0.95455208165E+01  0.10024711932E+02  0.51100000000E-03 0.  1.
        -12    1    3    3    0    0 -0.32951650355E+02  0.39210541748E+01 -0.29153469775E+02  0.44171379047E+02  0.00000000000E+00 0.  1.
</event>
<event>
 7    1  0.3662489E-015  0.9000776E+02  0.7816164E-02  0.1186339E+00
        -11   -1    0    0    0    0  0.00000000000E+00  0.00000000000E+00  0.45593999997E+02  0.45594000000E+02  0.51100000000E-03 0.  1.
         11   -1    0    0    0    0 -0.00000000000E+00 -0.00000000000E+00 -0.45593999997E+02  0.45594000000E+02  0.51100000000E-03 0. -1.
    9900012    2    1    2    0    0 -0.65998747683E+00 -0.93603277098E+00 -0.28501825429E+00  0.90007755863E+02  0.90000017440E+02 0.  0.
        -12    1    1    2    0    0  0.65998747683E+00  0.93603277098E+00  0.28501825429E+00  0.11802441371E+01  0.00000000000E+00 0.  1.
         11    1    3    3    0    0  0.31651189166E+02 -0.15667089447E+02 -0.43221098420E+01  0.35579995800E+02  0.51100000000E-03 0. -1.
        -11    1    3    3    0    0  0.90568179775E+01 -0.25882184936E+01  0.28098524623E+00  0.94235757448E+01  0.51100000000E-03 0.  1.
        -12    1    3    3    0    0 -0.41367994620E+02  0.17319275170E+02  0.37561063414E+01  0.45004184318E+02  0.00000000000E+00 0.  1.
</event>
<event>
 7    1  0.3662489E-015  0.9000770E+02  0.7816164E-02  0.1186339E+00
        -11   -1    0    0    0    0  0.00000000000E+00  0.00000000000E+00  0.45593999997E+02  0.45594000000E+02  0.51100000000E-03 0. -1.
         11   -1    0    0    0    0 -0.00000000000E+00 -0.00000000000E+00 -0.45593999997E+02  0.45594000000E+02  0.51100000000E-03 0.  1.
    9900012    2    1    2    0    0 -0.87969741070E+00 -0.16217665398E+00  0.77001822351E+00  0.90007704755E+02  0.89999965657E+02 0.  0.
        -12    1    1    2    0    0  0.87969741070E+00  0.16217665398E+00 -0.77001822351E+00  0.11802952453E+01  0.00000000000E+00 0.  1.
         11    1    3    3    0    0  0.19694938795E+02  0.21920244104E+02  0.27671606770E+02  0.40424071260E+02  0.51100000000E-03 0. -1.
        -11    1    3    3    0    0  0.14812643370E+01  0.24962585830E+01  0.36031133125E+01  0.46268646785E+01  0.51100000000E-03 0.  1.
        -12    1    3    3    0    0 -0.22055900543E+02 -0.24578679341E+02 -0.30504701859E+02  0.44956768816E+02  0.00000000000E+00 0.  1.
</event>
<event>
 7    1  0.3662489E-015  0.9000778E+02  0.7816164E-02  0.1186339E+00
        -11   -1    0    0    0    0  0.00000000000E+00  0.00000000000E+00  0.45593999997E+02  0.45594000000E+02  0.51100000000E-03 0.  1.
         11   -1    0    0    0    0 -0.00000000000E+00 -0.00000000000E+00 -0.45593999997E+02  0.45594000000E+02  0.51100000000E-03 0. -1.
    9900012    2    1    2    0    0 -0.32073282700E+00  0.71807971354E+00 -0.88001220644E+00  0.90007775655E+02  0.90000037494E+02 0.  0.
        -12    1    1    2    0    0  0.32073282700E+00 -0.71807971354E+00  0.88001220644E+00  0.11802243451E+01  0.00000000000E+00 0.  1.
         11    1    3    3    0    0  0.10762828144E+02  0.10138569555E+02  0.84280763673E+01  0.17019445755E+02  0.51100000000E-03 0. -1.
        -11    1    3    3    0    0  0.62748858694E+01  0.87578398911E+01  0.26862220875E+02  0.28942233204E+02  0.51100000000E-03 0.  1.
         12    1    3    3    0    0 -0.17358446840E+02 -0.18178329733E+02 -0.36170309448E+02  0.44046096696E+02  0.00000000000E+00 0. -1.
</event>
<event>
 7    1  0.3662489E-015  0.9000770E+02  0.7816164E-02  0.1186339E+00
        -11   -1    0    0    0    0  0.00000000000E+00  0.00000000000E+00  0.45593999997E+02  0.45594000000E+02  0.51100000000E-03 0. -1.
         11   -1    0    0    0    0 -0.00000000000E+00 -0.00000000000E+00 -0.45593999997E+02  0.45594000000E+02  0.51100000000E-03 0.  1.
    9900012    2    1    2    0    0 -0.93452000409E+00 -0.22792793004E+00  0.68398413698E+00  0.90007697887E+02  0.89999958699E+02 0.  0.
        -12    1    1    2    0    0  0.93452000409E+00  0.22792793004E+00 -0.68398413698E+00  0.11803021134E+01  0.00000000000E+00 0.  1.
         11    1    3    3    0    0 -0.75990297129E+01  0.16358388855E+01 -0.74085802788E+01  0.10738169464E+02  0.51100000000E-03 0. -1.
        -11    1    3    3    0    0 -0.84682930532E+01 -0.34361106885E+02 -0.12970788395E+02  0.37691365131E+02  0.51100000000E-03 0.  1.
         12    1    3    3    0    0  0.15132802762E+02  0.32497340069E+02  0.21063352811E+02  0.41578163291E+02  0.00000000000E+00 0. -1.
</event>
<event>
 7    1  0.3662489E-015  0.9000774E+02  0.7816164E-02  0.1186339E+00
        -11   -1    0    0    0    0  0.00000000000E+00  0.00000000000E+00  0.45593999997E+02  0.45594000000E+02  0.51100000000E-03 0.  1.
         11   -1    0    0    0    0 -0.00000000000E+00 -0.00000000000E+00 -0.45593999997E+02  0.45594000000E+02  0.51100000000E-03 0. -1.
    9900012    2    1    2    0    0 -0.80959549861E+00  0.19753355024E+00 -0.83579737227E+00  0.90007736630E+02  0.89999997954E+02 0.  0.
        -12    1    1    2    0    0  0.80959549861E+00 -0.19753355024E+00  0.83579737227E+00  0.11802633699E+01  0.00000000000E+00 0.  1.
         11    1    3    3    0    0  0.55523950058E+01 -0.64082847312E+00  0.86416383093E+01  0.10291630792E+02  0.51100000000E-03 0. -1.
        -11    1    3    3    0    0  0.36860562511E+01  0.38128471879E+02  0.46622503185E+01  0.38588909765E+02  0.51100000000E-03 0.  1.
         12    1    3    3    0    0 -0.10048046756E+02 -0.37290109856E+02 -0.14139686000E+02  0.41127196073E+02  0.00000000000E+00 0. -1.
</event>
<event>
 7    1  0.3662489E-015  0.9000832E+02  0.7816164E-02  0.1186338E+00
        -11   -1    0    0    0    0  0.00000000000E+00  0.00000000000E+00  0.45593999997E+02  0.45594000000E+02  0.51100000000E-03 0.  1.
         11   -1    0    0    0    0 -0.00000000000E+00 -0.00000000000E+00 -0.45593999997E+02  0.45594000000E+02  0.51100000000E-03 0. -1.
    9900012    2    1    2    0    0  0.71629289288E-01  0.61518312435E+00 -0.10040294120E+01  0.90008315257E+02  0.90000584217E+02 0.  0.
        -12    1    1    2    0    0 -0.71629289288E-01 -0.61518312435E+00  0.10040294120E+01  0.11796847425E+01  0.00000000000E+00 0.  1.
         11    1    3    3    0    0  0.72449248085E+01 -0.14141658229E+01 -0.90415739169E+01  0.11672140318E+02  0.51100000000E-03 0. -1.
        -11    1    3    3    0    0  0.21172598496E+02 -0.28567977178E+02  0.87549929770E+01  0.36620460803E+02  0.51100000000E-03 0.  1.
         12    1    3    3    0    0 -0.28345894015E+02  0.30597326126E+02 -0.71744847209E+00  0.41715714136E+02  0.00000000000E+00 0. -1.
</event>
<event>
 7    1  0.3662489E-015  0.9000671E+02  0.7816164E-02  0.1186341E+00
        -11   -1    0    0    0    0  0.00000000000E+00  0.00000000000E+00  0.45593999997E+02  0.45594000000E+02  0.51100000000E-03 0. -1.
         11   -1    0    0    0    0 -0.00000000000E+00 -0.00000000000E+00 -0.45593999997E+02  0.45594000000E+02  0.51100000000E-03 0.  1.
    9900012    2    1    2    0    0  0.10362326404E+01  0.19764495897E+00  0.53161002942E+00  0.90006707979E+02  0.89998955719E+02 0.  0.
        -12    1    1    2    0    0 -0.10362326404E+01 -0.19764495897E+00 -0.53161002942E+00  0.11812920207E+01  0.00000000000E+00 0.  1.
         11    1    3    3    0    0  0.28604692881E+01  0.17479325201E+02  0.38976298136E+02  0.42811924866E+02  0.51100000000E-03 0. -1.
        -11    1    3    3    0    0 -0.62675210340E+00  0.49690692706E+01 -0.85527120344E+01  0.99112739352E+01  0.51100000000E-03 0.  1.
        -12    1    3    3    0    0 -0.11974845443E+01 -0.22250749513E+02 -0.29891976073E+02  0.37283509178E+02  0.00000000000E+00 0.  1.
</event>
<event>
 7    1  0.3662489E-015  0.9000767E+02  0.7816164E-02  0.1186339E+00
        -11   -1    0    0    0    0  0.00000000000E+00  0.00000000000E+00  0.45593999997E+02  0.45594000000E+02  0.51100000000E-03 0.  1.
         11   -1    0    0    0    0 -0.00000000000E+00 -0.00000000000E+00 -0.45593999997E+02  0.45594000000E+02  0.51100000000E-03 0. -1.
    9900012    2    1    2    0    0  0.10275830217E+01  0.42045209278E+00 -0.40059589690E+00  0.90007667885E+02  0.89999928301E+02 0.  0.
        -12    1    1    2    0    0 -0.10275830217E+01 -0.42045209278E+00  0.40059589690E+00  0.11803321149E+01  0.00000000000E+00 0.  1.
         11    1    3    3    0    0 -0.27197345573E+01 -0.63315219831E+01 -0.51752461281E+01  0.86179057451E+01  0.51100000000E-03 0. -1.
        -11    1    3    3    0    0 -0.19685371047E+02  0.36330470334E+02 -0.68921629924E+01  0.41891751204E+02  0.51100000000E-03 0.  1.
         12    1    3    3    0    0  0.23432688626E+02 -0.29578496258E+02  0.11666813224E+02  0.39498010936E+02  0.00000000000E+00 0. -1.
</event>
<event>
 7    1  0.3662489E-015  0.9000777E+02  0.7816164E-02  0.1186339E+00
        -11   -1    0    0    0    0  0.00000000000E+00  0.00000000000E+00  0.45593999997E+02  0.45594000000E+02  0.51100000000E-03 0. -1.
         11   -1    0    0    0    0 -0.00000000000E+00 -0.00000000000E+00 -0.45593999997E+02  0.45594000000E+02  0.51100000000E-03 0.  1.
    9900012    2    1    2    0    0 -0.11151035244E+00  0.10221049089E+01  0.57949381521E+00  0.90007768631E+02  0.90000030377E+02 0.  0.
        -12    1    1    2    0    0  0.11151035244E+00 -0.10221049089E+01 -0.57949381521E+00  0.11802313694E+01  0.00000000000E+00 0.  1.
         11    1    3    3    0    0  0.26646024089E+02  0.15785337950E+02 -0.22105464341E+01  0.31049541216E+02  0.51100000000E-03 0. -1.
        -11    1    3    3    0    0  0.12387421463E+02 -0.14776405942E+02  0.44100545442E+01  0.19779761485E+02  0.51100000000E-03 0.  1.
        -12    1    3    3    0    0 -0.39144955904E+02  0.13172901178E-01 -0.16200142948E+01  0.39178465929E+02  0.00000000000E+00 0.  1.
</event>
<event>
 7    1  0.3662489E-015  0.9000769E+02  0.7816164E-02  0.1186339E+00
        -11   -1    0    0    0    0  0.00000000000E+00  0.00000000000E+00  0.45593999997E+02  0.45594000000E+02  0.51100000000E-03 0.  1.
         11   -1    0    0    0    0 -0.00000000000E+00 -0.00000000000E+00 -0.45593999997E+02  0.45594000000E+02  0.51100000000E-03 0. -1.
    9900012    2    1    2    0    0 -0.14273409973E+00  0.79702891166E-01 -0.11689381009E+01  0.90007685695E+02  0.89999946346E+02 0.  0.
        -12    1    1    2    0    0  0.14273409973E+00 -0.79702891166E-01  0.11689381009E+01  0.11803143047E+01  0.00000000000E+00 0.  1.
         11    1    3    3    0    0 -0.59506766615E+01 -0.47841821234E+01  0.77480208621E+01  0.10877995167E+02  0.51100000000E-03 0. -1.
        -11    1    3    3    0    0 -0.26896890915E+02 -0.23038393870E+02 -0.10808869505E+01  0.35431323004E+02  0.51100000000E-03 0.  1.
         12    1    3    3    0    0  0.32704833476E+02  0.27902278884E+02 -0.78360720125E+01  0.43698367524E+02  0.00000000000E+00 0. -1.
</event>
<event>
 7    1  0.3662489E-015  0.9000764E+02  0.7816164E-02  0.1186339E+00
        -11   -1    0    0    0    0  0.00000000000E+00  0.00000000000E+00  0.45593999997E+02  0.45594000000E+02  0.51100000000E-03 0. -1.
         11   -1    0    0    0    0 -0.00000000000E+00 -0.00000000000E+00 -0.45593999997E+02  0.45594000000E+02  0.51100000000E-03 0.  1.
    9900012    2    1    2    0    0 -0.76763247212E+00  0.85543910827E+00  0.26872204338E+00  0.90007641064E+02  0.89999901126E+02 0.  0.
        -12    1    1    2    0    0  0.76763247212E+00 -0.85543910827E+00 -0.26872204338E+00  0.11803589356E+01  0.00000000000E+00 0.  1.
         11    1    3    3    0    0  0.11150703719E+02  0.54983582634E+00  0.42935415307E+01  0.11961396741E+02  0.51100000000E-03 0. -1.
        -11    1    3    3    0    0  0.28987886688E+02  0.13864404150E+01  0.15283155869E+02  0.32799308609E+02  0.51100000000E-03 0.  1.
         12    1    3    3    0    0 -0.40906222879E+02 -0.10808371331E+01 -0.19307975357E+02  0.45246935714E+02  0.00000000000E+00 0. -1.
</event>
<event>
 7    1  0.3662489E-015  0.9000748E+02  0.7816164E-02  0.1186340E+00
        -11   -1    0    0    0    0  0.00000000000E+00  0.00000000000E+00  0.45593999997E+02  0.45594000000E+02  0.51100000000E-03 0. -1.
         11   -1    0    0    0    0 -0.00000000000E+00 -0.00000000000E+00 -0.45593999997E+02  0.45594000000E+02  0.51100000000E-03 0.  1.
    9900012    2    1    2    0    0 -0.69441404701E+00 -0.62076782501E+00  0.72529598907E+00  0.90007484082E+02  0.89999742071E+02 0.  0.
        -12    1    1    2    0    0  0.69441404701E+00  0.62076782501E+00 -0.72529598907E+00  0.11805159182E+01  0.00000000000E+00 0.  1.
         11    1    3    3    0    0  0.31176961233E+01 -0.80518290462E+01 -0.78078795750E+01  0.11641089460E+02  0.51100000000E-03 0. -1.
        -11    1    3    3    0    0  0.30963474204E+02  0.23977333268E+02  0.72930345830E+01  0.39835130213E+02  0.51100000000E-03 0.  1.
         12    1    3    3    0    0 -0.34775584374E+02 -0.16546272047E+02  0.12401409810E+01  0.38531264408E+02  0.00000000000E+00 0. -1.
</event>
<event>
 7    1  0.3662489E-015  0.9000754E+02  0.7816164E-02  0.1186339E+00
        -11   -1    0    0    0    0  0.00000000000E+00  0.00000000000E+00  0.45593999997E+02  0.45594000000E+02  0.51100000000E-03 0.  1.
         11   -1    0    0    0    0 -0.00000000000E+00 -0.00000000000E+00 -0.45593999997E+02  0.45594000000E+02  0.51100000000E-03 0. -1.
    9900012    2    1    2    0    0  0.30643139348E+00 -0.12643193987E+00 -0.11329606253E+01  0.90007540338E+02  0.89999799071E+02 0.  0.
        -12    1    1    2    0    0 -0.30643139348E+00  0.12643193987E+00  0.11329606253E+01  0.11804596617E+01  0.00000000000E+00 0.  1.
         11    1    3    3    0    0 -0.14943702730E+02 -0.23824493989E+02  0.20692144294E+02  0.34915406354E+02  0.51100000000E-03 0. -1.
        -11    1    3    3    0    0 -0.84834121444E+01  0.15339018339E+00  0.69615471500E+01  0.10975196998E+02  0.51100000000E-03 0.  1.
        -12    1    3    3    0    0  0.23733546268E+02  0.23544671866E+02 -0.28786652069E+02  0.44116936986E+02  0.00000000000E+00 0.  1.
</event>
<event>
 7    1  0.3662489E-015  0.9000773E+02  0.7816164E-02  0.1186339E+00
        -11   -1    0    0    0    0  0.00000000000E+00  0.00000000000E+00  0.45593999997E+02  0.45594000000E+02  0.51100000000E-03 0. -1.
         11   -1    0    0    0    0 -0.00000000000E+00 -0.00000000000E+00 -0.45593999997E+02  0.45594000000E+02  0.51100000000E-03 0.  1.
    9900012    2    1    2    0    0  0.62560212522E+00  0.26749577338E+00  0.96442106100E+00  0.90007728849E+02  0.89999990069E+02 0.  0.
        -12    1    1    2    0    0 -0.62560212522E+00 -0.26749577338E+00 -0.96442106100E+00  0.11802711514E+01  0.00000000000E+00 0.  1.
         11    1    3    3    0    0 -0.15045611330E+02  0.34329410061E+02  0.96077999746E+01  0.38693521887E+02  0.51100000000E-03 0. -1.
        -11    1    3    3    0    0  0.86785123706E+01  0.54522732851E+01  0.77338755840E-01  0.10249382542E+02  0.51100000000E-03 0.  1.
        -12    1    3    3    0    0  0.69927010850E+01 -0.39514187572E+02 -0.87207176695E+01  0.41064824420E+02  0.00000000000E+00 0.  1.
</event>
<event>
 7    1  0.3662489E-015  0.9000771E+02  0.7816164E-02  0.1186339E+00
        -11   -1    0    0    0    0  0.00000000000E+00  0.00000000000E+00  0.45593999997E+02  0.45594000000E+02  0.51100000000E-03 0. -1.
         11   -1    0    0    0    0 -0.00000000000E+00 -0.00000000000E+00 -0.45593999997E+02  0.45594000000E+02  0.51100000000E-03 0.  1.
    9900012    2    1    2    0    0 -0.76887558811E+00 -0.46666140480E+00  0.76428852316E+00  0.90007712118E+02  0.89999973118E+02 0.  0.
        -12    1    1    2    0    0  0.76887558811E+00  0.46666140480E+00 -0.76428852316E+00  0.11802878816E+01  0.00000000000E+00 0.  1.
         11    1    3    3    0    0 -0.54847539289E+01 -0.66424079301E+01 -0.38096393346E+01  0.94189946858E+01  0.51100000000E-03 0. -1.
        -11    1    3    3    0    0  0.17058945242E+02  0.33663514421E+02 -0.19073864654E+02  0.42285365424E+02  0.51100000000E-03 0.  1.
         12    1    3    3    0    0 -0.12343066901E+02 -0.27487767896E+02  0.23647792511E+02  0.38303352009E+02  0.00000000000E+00 0. -1.
</event>
<event>
 7    1  0.3662489E-015  0.9000771E+02  0.7816164E-02  0.1186339E+00
        -11   -1    0    0    0    0  0.00000000000E+00  0.00000000000E+00  0.45593999997E+02  0.45594000000E+02  0.51100000000E-03 0.  1.
         11   -1    0    0    0    0 -0.00000000000E+00 -0.00000000000E+00 -0.45593999997E+02  0.45594000000E+02  0.51100000000E-03 0. -1.
    9900012    2    1    2    0    0 -0.21128130996E+00  0.36031041794E+00 -0.11039066699E+01  0.90007714727E+02  0.89999975762E+02 0.  0.
        -12    1    1    2    0    0  0.21128130996E+00 -0.36031041794E+00  0.11039066699E+01  0.11802852728E+01  0.00000000000E+00 0.  1.
         11    1    3    3    0    0 -0.91277883901E+01 -0.22111206169E+02  0.97903841541E+01  0.25847119400E+02  0.51100000000E-03 0. -1.
        -11    1    3    3    0    0 -0.13570287546E+02  0.15962475428E+02  0.17543811075E+02  0.27326518863E+02  0.51100000000E-03 0.  1.
         12    1    3    3    0    0  0.22486794626E+02  0.65090411589E+01 -0.28438101899E+02  0.36834076464E+02  0.00000000000E+00 0. -1.
</event>
<event>
 7    1  0.3662489E-015  0.9000783E+02  0.7816164E-02  0.1186339E+00
        -11   -1    0    0    0    0  0.00000000000E+00  0.00000000000E+00  0.45593999997E+02  0.45594000000E+02  0.51100000000E-03 0.  1.
         11   -1    0    0    0    0 -0.00000000000E+00 -0.00000000000E+00 -0.45593999997E+02  0.45594000000E+02  0.51100000000E-03 0. -1.
    9900012    2    1    2    0    0  0.11864237745E+00 -0.10910375918E+01 -0.43400499995E+00  0.90007830783E+02  0.90000093349E+02 0.  0.
        -12    1    1    2    0    0 -0.11864237745E+00  0.10910375918E+01  0.43400499995E+00  0.11801692168E+01  0.00000000000E+00 0.  1.
         11    1    3    3    0    0  0.18095681595E+01  0.98663178727E+01  0.29410245010E+01  0.10453152188E+02  0.51100000000E-03 0. -1.
        -11    1    3    3    0    0 -0.39190564759E+02  0.32186695965E+01  0.79128297113E-02  0.39322515980E+02  0.51100000000E-03 0.  1.
         12    1    3    3    0    0  0.37499638977E+02 -0.14176025061E+02 -0.33829423307E+01  0.40232162616E+02  0.00000000000E+00 0. -1.
</event>
<event>
 7    1  0.3662489E-015  0.9000774E+02  0.7816164E-02  0.1186339E+00
        -11   -1    0    0    0    0  0.00000000000E+00  0.00000000000E+00  0.45593999997E+02  0.45594000000E+02  0.51100000000E-03 0.  1.
         11   -1    0    0    0    0 -0.00000000000E+00 -0.00000000000E+00 -0.45593999997E+02  0.45594000000E+02  0.51100000000E-03 0. -1.
    9900012    2    1    2    0    0 -0.93593519847E+00  0.28083711075E-02 -0.71905071948E+00  0.90007738792E+02  0.90000000144E+02 0.  0.
        -12    1    1    2    0    0  0.93593519847E+00 -0.28083711075E-02  0.71905071948E+00  0.11802612083E+01  0.00000000000E+00 0.  1.
         11    1    3    3    0    0  0.60064204299E+01  0.10220390464E+01  0.72200073450E+01  0.94472300975E+01  0.51100000000E-03 0. -1.
        -11    1    3    3    0    0  0.29712749740E+02 -0.22708098127E+02 -0.10159942864E+01  0.37410392437E+02  0.51100000000E-03 0.  1.
         12    1    3    3    0    0 -0.36655105368E+02  0.21688867452E+02 -0.69230637780E+01  0.43150116257E+02  0.00000000000E+00 0. -1.
</event>
<event>
 7    1  0.3662489E-015  0.9000772E+02  0.7816164E-02  0.1186339E+00
        -11   -1    0    0    0    0  0.00000000000E+00  0.00000000000E+00  0.45593999997E+02  0.45594000000E+02  0.51100000000E-03 0. -1.
         11   -1    0    0    0    0 -0.00000000000E+00 -0.00000000000E+00 -0.45593999997E+02  0.45594000000E+02  0.51100000000E-03 0.  1.
    9900012    2    1    2    0    0 -0.92283265886E+00 -0.67485355239E+00 -0.29327113242E+00  0.90007722325E+02  0.89999983459E+02 0.  0.
        -12    1    1    2    0    0  0.92283265886E+00  0.67485355239E+00  0.29327113242E+00  0.11802776752E+01  0.00000000000E+00 0.  1.
         11    1    3    3    0    0  0.11260265762E+01  0.82519427580E+01 -0.37575085749E+01  0.91368137818E+01  0.51100000000E-03 0. -1.
        -11    1    3    3    0    0 -0.88968166269E+01 -0.32480038062E+02 -0.25991092706E+02  0.42539900317E+02  0.51100000000E-03 0.  1.
         12    1    3    3    0    0  0.68479573919E+01  0.23553241752E+02  0.29455330149E+02  0.38331008226E+02  0.00000000000E+00 0. -1.
</event>
<event>
 7    1  0.3662489E-015  0.9000778E+02  0.7816164E-02  0.1186339E+00
        -11   -1    0    0    0    0  0.00000000000E+00  0.00000000000E+00  0.45593999997E+02  0.45594000000E+02  0.51100000000E-03 0.  1.
         11   -1    0    0    0    0 -0.00000000000E+00 -0.00000000000E+00 -0.45593999997E+02  0.45594000000E+02  0.51100000000E-03 0. -1.
    9900012    2    1    2    0    0  0.15676784842E+00 -0.11318024668E+01 -0.29559423851E+00  0.90007775896E+02  0.90000037738E+02 0.  0.
        -12    1    1    2    0    0 -0.15676784842E+00  0.11318024668E+01  0.29559423851E+00  0.11802241041E+01  0.00000000000E+00 0.  1.
         11    1    3    3    0    0 -0.19631796969E+02  0.34018921526E+02  0.54487482654E+01  0.39653289043E+02  0.51100000000E-03 0. -1.
        -11    1    3    3    0    0  0.52672813956E+01  0.51789794265E+00  0.78901353482E+01  0.95008793094E+01  0.51100000000E-03 0.  1.
        -12    1    3    3    0    0  0.14521283422E+02 -0.35668621935E+02 -0.13634477852E+02  0.40853607543E+02  0.00000000000E+00 0.  1.
</event>
<event>
 7    1  0.3662489E-015  0.9000775E+02  0.7816164E-02  0.1186339E+00
        -11   -1    0    0    0    0  0.00000000000E+00  0.00000000000E+00  0.45593999997E+02  0.45594000000E+02  0.51100000000E-03 0. -1.
         11   -1    0    0    0    0 -0.00000000000E+00 -0.00000000000E+00 -0.45593999997E+02  0.45594000000E+02  0.51100000000E-03 0.  1.
    9900012    2    1    2    0    0  0.25925828978E+00  0.81202978163E+00  0.81632271719E+00  0.90007750024E+02  0.90000011524E+02 0.  0.
        -12    1    1    2    0    0 -0.25925828978E+00 -0.81202978163E+00 -0.81632271719E+00  0.11802499759E+01  0.00000000000E+00 0.  1.
         11    1    3    3    0    0 -0.10187713024E+02  0.13450095900E+02  0.10939787924E+02  0.20109041162E+02  0.51100000000E-03 0. -1.
        -11    1    3    3    0    0 -0.15247382132E+02  0.47721158961E+00 -0.30823843702E+02  0.34392146395E+02  0.51100000000E-03 0.  1.
         12    1    3    3    0    0  0.25694353447E+02 -0.13115277708E+02  0.20700378495E+02  0.35506562467E+02  0.00000000000E+00 0. -1.
</event>
<event>
 7    1  0.3662489E-015  0.9000805E+02  0.7816164E-02  0.1186338E+00
        -11   -1    0    0    0    0  0.00000000000E+00  0.00000000000E+00  0.45593999997E+02  0.45594000000E+02  0.51100000000E-03 0. -1.
         11   -1    0    0    0    0 -0.00000000000E+00 -0.00000000000E+00 -0.45593999997E+02  0.45594000000E+02  0.51100000000E-03 0.  1.
    9900012    2    1    2    0    0 -0.85750893402E+00 -0.38151781158E+00 -0.71513358393E+00  0.90008045147E+02  0.90000310542E+02 0.  0.
        -12    1    1    2    0    0  0.85750893402E+00  0.38151781158E+00  0.71513358393E+00  0.11799548531E+01  0.00000000000E+00 0.  1.
         11    1    3    3    0    0  0.69337716202E+01 -0.77683950660E+01  0.36292210853E+01  0.11027075620E+02  0.51100000000E-03 0. -1.
        -11    1    3    3    0    0 -0.17837171611E+02 -0.10155056338E+02 -0.35989033162E+02  0.41430669419E+02  0.51100000000E-03 0.  1.
         12    1    3    3    0    0  0.10045891057E+02  0.17541933593E+02  0.31644678493E+02  0.37550300108E+02  0.00000000000E+00 0. -1.
</event>
<event>
 7    1  0.3662489E-015  0.9000728E+02  0.7816164E-02  0.1186340E+00
        -11   -1    0    0    0    0  0.00000000000E+00  0.00000000000E+00  0.45593999997E+02  0.45594000000E+02  0.51100000000E-03 0.  1.
         11   -1    0    0    0    0 -0.00000000000E+00 -0.00000000000E+00 -0.45593999997E+02  0.45594000000E+02  0.51100000000E-03 0. -1.
    9900012    2    1    2    0    0 -0.75169302334E+00 -0.13920599167E+00 -0.89981582955E+00  0.90007284439E+02  0.89999539792E+02 0.  0.
        -12    1    1    2    0    0  0.75169302334E+00  0.13920599167E+00  0.89981582955E+00  0.11807155612E+01  0.00000000000E+00 0.  1.
         11    1    3    3    0    0  0.67033687965E+01  0.70100210982E+01 -0.17560599920E+01  0.98569415123E+01  0.51100000000E-03 0. -1.
        -11    1    3    3    0    0  0.13033076436E+02  0.28665672188E+02 -0.16307894314E+02  0.35461659022E+02  0.51100000000E-03 0.  1.
         12    1    3    3    0    0 -0.20488138255E+02 -0.35814899278E+02  0.17164138477E+02  0.44688683904E+02  0.00000000000E+00 0. -1.
</event>
<event>
 7    1  0.3662489E-015  0.9000774E+02  0.7816164E-02  0.1186339E+00
        -11   -1    0    0    0    0  0.00000000000E+00  0.00000000000E+00  0.45593999997E+02  0.45594000000E+02  0.51100000000E-03 0. -1.
         11   -1    0    0    0    0 -0.00000000000E+00 -0.00000000000E+00 -0.45593999997E+02  0.45594000000E+02  0.51100000000E-03 0.  1.
    9900012    2    1    2    0    0 -0.26992040396E+00 -0.11153773710E+01  0.27582676040E+00  0.90007744051E+02  0.90000005472E+02 0.  0.
        -12    1    1    2    0    0  0.26992040396E+00  0.11153773710E+01 -0.27582676040E+00  0.11802559493E+01  0.00000000000E+00 0.  1.
         11    1    3    3    0    0  0.17376681387E+02  0.14620959482E+02  0.35036313720E+02  0.41752422583E+02  0.51100000000E-03 0. -1.
        -11    1    3    3    0    0  0.21969209677E+01 -0.77959277799E+01 -0.81349499923E+00  0.81403148626E+01  0.51100000000E-03 0.  1.
        -12    1    3    3    0    0 -0.19843522759E+02 -0.79404090730E+01 -0.33946991961E+02  0.40115006605E+02  0.00000000000E+00 0.  1.
</event>
<event>
 7    1  0.3662489E-015  0.9000769E+02  0.7816164E-02  0.1186339E+00
        -11   -1    0    0    0    0  0.00000000000E+00  0.00000000000E+00  0.45593999997E+02  0.45594000000E+02  0.51100000000E-03 0. -1.
         11   -1    0    0    0    0 -0.00000000000E+00 -0.00000000000E+00 -0.45593999997E+02  0.45594000000E+02  0.51100000000E-03 0.  1.
    9900012    2    1    2    0    0 -0.10413387634E+01 -0.20048147359E+00  0.51822381386E+00  0.90007688531E+02  0.89999949220E+02 0.  0.
        -12    1    1    2    0    0  0.10413387634E+01  0.20048147359E+00 -0.51822381386E+00  0.11803114685E+01  0.00000000000E+00 0.  1.
         11    1    3    3    0    0  0.80225447659E+01  0.42228519531E+02  0.69290748839E+01  0.43538731783E+02  0.51100000000E-03 0. -1.
        -11    1    3    3    0    0  0.20456682494E+01 -0.69266100399E+01 -0.58015452160E+01  0.92639415146E+01  0.51100000000E-03 0.  1.
        -12    1    3    3    0    0 -0.11109551779E+02 -0.35502390964E+02 -0.60930585404E+00  0.37205015234E+02  0.00000000000E+00 0.  1.
</event>
<event>
 7    1  0.3662489E-015  0.9000770E+02  0.7816164E-02  0.1186339E+00
        -11   -1    0    0    0    0  0.00000000000E+00  0.00000000000E+00  0.45593999997E+02  0.45594000000E+02  0.51100000000E-03 0. -1.
         11   -1    0    0    0    0 -0.00000000000E+00 -0.00000000000E+00 -0.45593999997E+02  0.45594000000E+02  0.51100000000E-03 0.  1.
    9900012    2    1    2    0    0  0.11243896400E+01 -0.70825626831E-01  0.35189906945E+00  0.90007702882E+02  0.89999963760E+02 0.  0.
        -12    1    1    2    0    0 -0.11243896400E+01  0.70825626831E-01 -0.35189906945E+00  0.11802971181E+01  0.00000000000E+00 0.  1.
         11    1    3    3    0    0 -0.79306370176E+01  0.30258988673E+02  0.17905557699E+02  0.36043174052E+02  0.51100000000E-03 0. -1.
        -11    1    3    3    0    0 -0.83098782380E+01  0.62610836618E+01 -0.21010649700E+01  0.10614599343E+02  0.51100000000E-03 0.  1.
        -12    1    3    3    0    0  0.17364904896E+02 -0.36590897961E+02 -0.15452593659E+02  0.43349929486E+02  0.00000000000E+00 0.  1.
</event>
<event>
 7    1  0.3662489E-015  0.9000776E+02  0.7816164E-02  0.1186339E+00
        -11   -1    0    0    0    0  0.00000000000E+00  0.00000000000E+00  0.45593999997E+02  0.45594000000E+02  0.51100000000E-03 0. -1.
         11   -1    0    0    0    0 -0.00000000000E+00 -0.00000000000E+00 -0.45593999997E+02  0.45594000000E+02  0.51100000000E-03 0.  1.
    9900012    2    1    2    0    0 -0.51700397561E+00 -0.85466565286E-01  0.10575334136E+01  0.90007756565E+02  0.90000018152E+02 0.  0.
        -12    1    1    2    0    0  0.51700397561E+00  0.85466565286E-01 -0.10575334136E+01  0.11802434348E+01  0.00000000000E+00 0.  1.
         11    1    3    3    0    0  0.49863577967E+01 -0.54882473030E+01 -0.65226723327E+01  0.98757216018E+01  0.51100000000E-03 0. -1.
        -11    1    3    3    0    0  0.24899901889E+02 -0.21270985458E+02 -0.12403772534E+02  0.35018759398E+02  0.51100000000E-03 0.  1.
         12    1    3    3    0    0 -0.30403263661E+02  0.26673766196E+02  0.19983978280E+02  0.45113275565E+02  0.00000000000E+00 0. -1.
</event>
<event>
 7    1  0.3662489E-015  0.9000773E+02  0.7816164E-02  0.1186339E+00
        -11   -1    0    0    0    0  0.00000000000E+00  0.00000000000E+00  0.45593999997E+02  0.45594000000E+02  0.51100000000E-03 0.  1.
         11   -1    0    0    0    0 -0.00000000000E+00 -0.00000000000E+00 -0.45593999997E+02  0.45594000000E+02  0.51100000000E-03 0. -1.
    9900012    2    1    2    0    0 -0.14244077683E+00  0.97609658496E+00 -0.64805360270E+00  0.90007734187E+02  0.89999995478E+02 0.  0.
        -12    1    1    2    0    0  0.14244077683E+00 -0.97609658496E+00  0.64805360270E+00  0.11802658133E+01  0.00000000000E+00 0.  1.
         11    1    3    3    0    0  0.16086398989E+02  0.21541512662E+02 -0.30449712066E+02  0.40620117742E+02  0.51100000000E-03 0. -1.
        -11    1    3    3    0    0  0.26294105803E+01  0.61161503356E+01  0.60235681446E+01  0.89779991301E+01  0.51100000000E-03 0.  1.
        -12    1    3    3    0    0 -0.18858250346E+02 -0.26681566412E+02  0.23778090319E+02  0.40409617315E+02  0.00000000000E+00 0.  1.
</event>
<event>
 7    1  0.3662489E-015  0.9000786E+02  0.7816164E-02  0.1186339E+00
        -11   -1    0    0    0    0  0.00000000000E+00  0.00000000000E+00  0.45593999997E+02  0.45594000000E+02  0.51100000000E-03 0. -1.
         11   -1    0    0    0    0 -0.00000000000E+00 -0.00000000000E+00 -0.45593999997E+02  0.45594000000E+02  0.51100000000E-03 0.  1.
    9900012    2    1    2    0    0  0.85251049604E+00  0.45328883654E+00 -0.67858789082E+00  0.90007861686E+02  0.90000124660E+02 0.  0.
        -12    1    1    2    0    0 -0.85251049604E+00 -0.45328883654E+00  0.67858789082E+00  0.11801383142E+01  0.00000000000E+00 0.  1.
         11    1    3    3    0    0  0.21086223939E+02 -0.21581733228E+02  0.95558604843E+01  0.31649873917E+02  0.51100000000E-03 0. -1.
        -11    1    3    3    0    0  0.50500946669E+01 -0.12531414992E+02  0.23659155878E+01  0.13716317825E+02  0.51100000000E-03 0.  1.
        -12    1    3    3    0    0 -0.25283808109E+02  0.34566437057E+02 -0.12600363963E+02  0.44641669943E+02  0.00000000000E+00 0.  1.
</event>
<event>
 7    1  0.4042555E-015  0.9000771E+02  0.7816164E-02  0.1186339E+00
        -11   -1    0    0    0    0  0.00000000000E+00  0.00000000000E+00  0.45593999997E+02  0.45594000000E+02  0.51100000000E-03 0. -1.
         11   -1    0    0    0    0 -0.00000000000E+00 -0.00000000000E+00 -0.45593999997E+02  0.45594000000E+02  0.51100000000E-03 0.  1.
    9900012    2    1    2    0    0 -0.71071865658E+00 -0.14528876739E+00  0.93105359267E+00  0.90007707398E+02  0.89999968335E+02 0.  0.
        -12    1    1    2    0    0  0.71071865658E+00  0.14528876739E+00 -0.93105359267E+00  0.11802926024E+01  0.00000000000E+00 0.  1.
         11    1    3    3    0    0 -0.18059724232E+01 -0.51891649967E+01  0.82342670647E+01  0.98990971361E+01  0.51100000000E-03 0. -1.
        -11    1    3    3    0    0 -0.11674259875E+02 -0.29642058940E+02 -0.23666374847E+02  0.39686739605E+02  0.51100000000E-03 0.  1.
         12    1    3    3    0    0  0.12769513642E+02  0.34685935169E+02  0.16363161375E+02  0.40421870657E+02  0.00000000000E+00 0. -1.
</event>
<event>
 7    1  0.3662489E-015  0.9000774E+02  0.7816164E-02  0.1186339E+00
        -11   -1    0    0    0    0  0.00000000000E+00  0.00000000000E+00  0.45593999997E+02  0.45594000000E+02  0.51100000000E-03 0.  1.
         11   -1    0    0    0    0 -0.00000000000E+00 -0.00000000000E+00 -0.45593999997E+02  0.45594000000E+02  0.51100000000E-03 0. -1.
    9900012    2    1    2    0    0 -0.36836239773E+00  0.65081990035E+00 -0.91310562868E+00  0.90007737619E+02  0.89999998956E+02 0.  0.
        -12    1    1    2    0    0  0.36836239773E+00 -0.65081990035E+00  0.91310562868E+00  0.11802623809E+01  0.00000000000E+00 0.  1.
         11    1    3    3    0    0  0.36140885902E+02 -0.18141229118E+02 -0.83441097838E+01  0.41290337804E+02  0.51100000000E-03 0. -1.
        -11    1    3    3    0    0 -0.36558683882E+01 -0.43170043855E+01  0.63938931552E+01  0.85371992174E+01  0.51100000000E-03 0.  1.
        -12    1    3    3    0    0 -0.32853379911E+02  0.23109053404E+02  0.10371110000E+01  0.40180200597E+02  0.00000000000E+00 0.  1.
</event>
<event>
 7    1  0.3662489E-015  0.9000773E+02  0.7816164E-02  0.1186339E+00
        -11   -1    0    0    0    0  0.00000000000E+00  0.00000000000E+00  0.45593999997E+02  0.45594000000E+02  0.51100000000E-03 0.  1.
         11   -1    0    0    0    0 -0.00000000000E+00 -0.00000000000E+00 -0.45593999997E+02  0.45594000000E+02  0.51100000000E-03 0. -1.
    9900012    2    1    2    0    0  0.35750322748E+00  0.51437938680E+00 -0.10003164241E+01  0.90007734073E+02  0.89999995362E+02 0.  0.
        -12    1    1    2    0    0 -0.35750322748E+00 -0.51437938680E+00  0.10003164241E+01  0.11802659274E+01  0.00000000000E+00 0.  1.
         11    1    3    3    0    0 -0.16924739606E+02 -0.25646160176E+02  0.61518166986E+01  0.31337153532E+02  0.51100000000E-03 0. -1.
        -11    1    3    3    0    0 -0.97800937994E+01  0.16956070081E+02 -0.19411787992E+02  0.27567663315E+02  0.51100000000E-03 0.  1.
        -12    1    3    3    0    0  0.27062336633E+02  0.92044694817E+01  0.12259654869E+02  0.31102917226E+02  0.00000000000E+00 0.  1.
</event>
<event>
 7    1  0.3662489E-015  0.9000669E+02  0.7816164E-02  0.1186341E+00
        -11   -1    0    0    0    0  0.00000000000E+00  0.00000000000E+00  0.45593999997E+02  0.45594000000E+02  0.51100000000E-03 0.  1.
         11   -1    0    0    0    0 -0.00000000000E+00 -0.00000000000E+00 -0.45593999997E+02  0.45594000000E+02  0.51100000000E-03 0. -1.
    9900012    2    1    2    0    0 -0.11679129072E+01 -0.16599964041E+00 -0.62650424120E-01  0.90006686530E+02  0.89998933986E+02 0.  0.
        -12    1    1    2    0    0  0.11679129072E+01  0.16599964041E+00  0.62650424120E-01  0.11813134702E+01  0.00000000000E+00 0.  1.
         11    1    3    3    0    0 -0.11183183220E+01  0.14936507189E+01 -0.83004547709E+01  0.85075953127E+01  0.51100000000E-03 0. -1.
        -11    1    3    3    0    0  0.19791437912E+02  0.15033673943E+02 -0.27679433419E+02  0.37200314535E+02  0.51100000000E-03 0.  1.
         12    1    3    3    0    0 -0.19841032497E+02 -0.16693324303E+02  0.35917237766E+02  0.44298776682E+02  0.00000000000E+00 0. -1.
</event>
<event>
 7    1  0.3662489E-015  0.9000764E+02  0.7816164E-02  0.1186339E+00
        -11   -1    0    0    0    0  0.00000000000E+00  0.00000000000E+00  0.45593999997E+02  0.45594000000E+02  0.51100000000E-03 0.  1.
         11   -1    0    0    0    0 -0.00000000000E+00 -0.00000000000E+00 -0.45593999997E+02  0.45594000000E+02  0.51100000000E-03 0. -1.
    9900012    2    1    2    0    0  0.16450532817E-02 -0.11079573817E-02 -0.11803576975E+01  0.90007640636E+02  0.89999900692E+02 0.  0.
        -12    1    1    2    0    0 -0.16450532817E-02  0.11079573817E-02  0.11803576975E+01  0.11803593639E+01  0.00000000000E+00 0.  1.
         11    1    3    3    0    0  0.90383115224E+01 -0.94119719501E+01 -0.20687935274E+01  0.13211971771E+02  0.51100000000E-03 0. -1.
        -11    1    3    3    0    0  0.15413587630E+02  0.84304548757E+01  0.32425304490E+02  0.36878877756E+02  0.51100000000E-03 0.  1.
         12    1    3    3    0    0 -0.24450254099E+02  0.98040911703E+00 -0.31536868660E+02  0.39916791109E+02  0.00000000000E+00 0. -1.
</event>
<event>
 7    1  0.3662489E-015  0.9000870E+02  0.7816164E-02  0.1186337E+00
        -11   -1    0    0    0    0  0.00000000000E+00  0.00000000000E+00  0.45593999997E+02  0.45594000000E+02  0.51100000000E-03 0.  1.
         11   -1    0    0    0    0 -0.00000000000E+00 -0.00000000000E+00 -0.45593999997E+02  0.45594000000E+02  0.51100000000E-03 0. -1.
    9900012    2    1    2    0    0 -0.74004076982E+00 -0.89216008370E+00  0.21711248870E+00  0.90008700297E+02  0.90000974336E+02 0.  0.
        -12    1    1    2    0    0  0.74004076982E+00  0.89216008370E+00 -0.21711248870E+00  0.11792997027E+01  0.00000000000E+00 0.  1.
         11    1    3    3    0    0  0.81340725619E+00 -0.26464216974E+01  0.89231008113E+01  0.93427462512E+01  0.51100000000E-03 0. -1.
        -11    1    3    3    0    0  0.95484605413E+01 -0.81316991786E+01  0.33578611611E+02  0.35844396887E+02  0.51100000000E-03 0.  1.
         12    1    3    3    0    0 -0.11101908567E+02  0.98859607923E+01 -0.42284599933E+02  0.44821557159E+02  0.00000000000E+00 0. -1.
</event>
<event>
 7    1  0.3662489E-015  0.9000765E+02  0.7816164E-02  0.1186339E+00
        -11   -1    0    0    0    0  0.00000000000E+00  0.00000000000E+00  0.45593999997E+02  0.45594000000E+02  0.51100000000E-03 0.  1.
         11   -1    0    0    0    0 -0.00000000000E+00 -0.00000000000E+00 -0.45593999997E+02  0.45594000000E+02  0.51100000000E-03 0. -1.
    9900012    2    1    2    0    0  0.68761289192E-02  0.78312348123E-01 -0.11777326243E+01  0.90007646562E+02  0.89999906696E+02 0.  0.
        -12    1    1    2    0    0 -0.68761289192E-02 -0.78312348123E-01  0.11777326243E+01  0.11803534383E+01  0.00000000000E+00 0.  1.
         11    1    3    3    0    0  0.15243761462E+02  0.22910803746E+02 -0.23958420707E+02  0.36486752594E+02  0.51100000000E-03 0. -1.
        -11    1    3    3    0    0  0.50804527732E+01  0.62166759027E+01 -0.41165978101E+01  0.90224407702E+01  0.51100000000E-03 0.  1.
        -12    1    3    3    0    0 -0.20317338106E+02 -0.29049167300E+02  0.26897285893E+02  0.44498453198E+02  0.00000000000E+00 0.  1.
</event>
<event>
 7    1  0.3662489E-015  0.9000810E+02  0.7816164E-02  0.1186338E+00
        -11   -1    0    0    0    0  0.00000000000E+00  0.00000000000E+00  0.45593999997E+02  0.45594000000E+02  0.51100000000E-03 0. -1.
         11   -1    0    0    0    0 -0.00000000000E+00 -0.00000000000E+00 -0.45593999997E+02  0.45594000000E+02  0.51100000000E-03 0.  1.
    9900012    2    1    2    0    0 -0.90735111778E+00 -0.40714469508E+00 -0.63491833958E+00  0.90008095702E+02  0.90000361765E+02 0.  0.
        -12    1    1    2    0    0  0.90735111778E+00  0.40714469508E+00  0.63491833958E+00  0.11799042976E+01  0.00000000000E+00 0.  1.
         11    1    3    3    0    0 -0.11865887644E+01  0.47842103381E+01  0.80631885687E+01  0.94504852579E+01  0.51100000000E-03 0. -1.
        -11    1    3    3    0    0 -0.20310321330E+01  0.28611431886E+02 -0.29219921431E+02  0.40945609469E+02  0.51100000000E-03 0.  1.
         12    1    3    3    0    0  0.23102697797E+01 -0.33802786919E+02  0.20521814523E+02  0.39612000975E+02  0.00000000000E+00 0. -1.
</event>
<event>
 7    1  0.3662489E-015  0.9000774E+02  0.7816164E-02  0.1186339E+00
        -11   -1    0    0    0    0  0.00000000000E+00  0.00000000000E+00  0.45593999997E+02  0.45594000000E+02  0.51100000000E-03 0. -1.
         11   -1    0    0    0    0 -0.00000000000E+00 -0.00000000000E+00 -0.45593999997E+02  0.45594000000E+02  0.51100000000E-03 0.  1.
    9900012    2    1    2    0    0  0.38417521635E+00  0.51655927344E+00  0.98923897243E+00  0.90007738239E+02  0.89999999584E+02 0.  0.
        -12    1    1    2    0    0 -0.38417521635E+00 -0.51655927344E+00 -0.98923897243E+00  0.11802617610E+01  0.00000000000E+00 0.  1.
         11    1    3    3    0    0  0.34606322928E+02 -0.94062832699E+01 -0.37660134734E-01  0.35861918104E+02  0.51100000000E-03 0. -1.
        -11    1    3    3    0    0  0.62138218812E+01  0.20515878218E+01 -0.95852527361E+01  0.11605932330E+02  0.51100000000E-03 0.  1.
        -12    1    3    3    0    0 -0.40435969593E+02  0.78712547215E+01  0.10612151843E+02  0.42539887806E+02  0.00000000000E+00 0.  1.
</event>
<event>
 7    1  0.3662489E-015  0.9000771E+02  0.7816164E-02  0.1186339E+00
        -11   -1    0    0    0    0  0.00000000000E+00  0.00000000000E+00  0.45593999997E+02  0.45594000000E+02  0.51100000000E-03 0. -1.
         11   -1    0    0    0    0 -0.00000000000E+00 -0.00000000000E+00 -0.45593999997E+02  0.45594000000E+02  0.51100000000E-03 0.  1.
    9900012    2    1    2    0    0 -0.97796679824E+00  0.13318883436E+00  0.64723666365E+00  0.90007714601E+02  0.89999975634E+02 0.  0.
        -12    1    1    2    0    0  0.97796679824E+00 -0.13318883436E+00 -0.64723666365E+00  0.11802853989E+01  0.00000000000E+00 0.  1.
         11    1    3    3    0    0 -0.74480079814E+01 -0.28671123922E+01  0.70133417029E+01  0.10624505563E+02  0.51100000000E-03 0. -1.
        -11    1    3    3    0    0 -0.12862783383E+02 -0.13567337651E+02 -0.35847283099E+02  0.40429587595E+02  0.51100000000E-03 0.  1.
         12    1    3    3    0    0  0.19332824566E+02  0.16567638877E+02  0.29481178060E+02  0.38953621442E+02  0.00000000000E+00 0. -1.
</event>
<event>
 7    1  0.3662489E-015  0.9000774E+02  0.7816164E-02  0.1186339E+00
        -11   -1    0    0    0    0  0.00000000000E+00  0.00000000000E+00  0.45593999997E+02  0.45594000000E+02  0.51100000000E-03 0. -1.
         11   -1    0    0    0    0 -0.00000000000E+00 -0.00000000000E+00 -0.45593999997E+02  0.45594000000E+02  0.51100000000E-03 0.  1.
    9900012    2    1    2    0    0 -0.84152742646E+00 -0.38979257931E+00 -0.73000607745E+00  0.90007739208E+02  0.90000000565E+02 0.  0.
        -12    1    1    2    0    0  0.84152742646E+00  0.38979257931E+00  0.73000607745E+00  0.11802607921E+01  0.00000000000E+00 0.  1.
         11    1    3    3    0    0  0.84823481823E+01  0.52578890498E-01  0.35872304366E+02  0.36861568280E+02  0.51100000000E-03 0. -1.
        -11    1    3    3    0    0  0.50822096044E+01  0.86450151425E+01  0.26373555429E+01  0.10369223008E+02  0.51100000000E-03 0.  1.
        -12    1    3    3    0    0 -0.14406085213E+02 -0.90873866123E+01 -0.39239665987E+02  0.42776947920E+02  0.00000000000E+00 0.  1.
</event>
<event>
 7    1  0.3662489E-015  0.9000772E+02  0.7816164E-02  0.1186339E+00
        -11   -1    0    0    0    0  0.00000000000E+00  0.00000000000E+00  0.45593999997E+02  0.45594000000E+02  0.51100000000E-03 0.  1.
         11   -1    0    0    0    0 -0.00000000000E+00 -0.00000000000E+00 -0.45593999997E+02  0.45594000000E+02  0.51100000000E-03 0. -1.
    9900012    2    1    2    0    0 -0.83848921297E+00 -0.18430871931E+00 -0.80995746294E+00  0.90007718273E+02  0.89999979354E+02 0.  0.
        -12    1    1    2    0    0  0.83848921297E+00  0.18430871931E+00  0.80995746294E+00  0.11802817274E+01  0.00000000000E+00 0.  1.
         11    1    3    3    0    0  0.20978474799E+02  0.15486861936E+00 -0.34530260651E+02  0.40403703915E+02  0.51100000000E-03 0. -1.
        -11    1    3    3    0    0  0.64771376268E+01 -0.41662619969E+01  0.55352980631E+01  0.94842277373E+01  0.51100000000E-03 0.  1.
        -12    1    3    3    0    0 -0.28294101639E+02  0.38270846582E+01  0.28185005125E+02  0.40119786620E+02  0.00000000000E+00 0.  1.
</event>
<event>
 7    1  0.3662489E-015  0.9000782E+02  0.7816164E-02  0.1186339E+00
        -11   -1    0    0    0    0  0.00000000000E+00  0.00000000000E+00  0.45593999997E+02  0.45594000000E+02  0.51100000000E-03 0. -1.
         11   -1    0    0    0    0 -0.00000000000E+00 -0.00000000000E+00 -0.45593999997E+02  0.45594000000E+02  0.51100000000E-03 0.  1.
    9900012    2    1    2    0    0  0.79563526781E+00 -0.41149740822E+00  0.76841131992E+00  0.90007821389E+02  0.90000083832E+02 0.  0.
        -12    1    1    2    0    0 -0.79563526781E+00  0.41149740822E+00 -0.76841131992E+00  0.11801786106E+01  0.00000000000E+00 0.  1.
         11    1    3    3    0    0  0.72002446321E+01 -0.27476188654E+02  0.23620568309E+02  0.36942058865E+02  0.51100000000E-03 0. -1.
        -11    1    3    3    0    0 -0.20048405569E+01 -0.33028463235E+01  0.84135822361E+01  0.92583230555E+01  0.51100000000E-03 0.  1.
        -12    1    3    3    0    0 -0.43997688074E+01  0.30367537569E+02 -0.31265739225E+02  0.43807439469E+02  0.00000000000E+00 0.  1.
</event>
<event>
 7    1  0.3662489E-015  0.9000780E+02  0.7816164E-02  0.1186339E+00
        -11   -1    0    0    0    0  0.00000000000E+00  0.00000000000E+00  0.45593999997E+02  0.45594000000E+02  0.51100000000E-03 0. -1.
         11   -1    0    0    0    0 -0.00000000000E+00 -0.00000000000E+00 -0.45593999997E+02  0.45594000000E+02  0.51100000000E-03 0.  1.
    9900012    2    1    2    0    0 -0.36662324202E+00 -0.57637652477E+00  0.96242152438E+00  0.90007797606E+02  0.90000059735E+02 0.  0.
        -12    1    1    2    0    0  0.36662324202E+00  0.57637652477E+00 -0.96242152438E+00  0.11802023939E+01  0.00000000000E+00 0.  1.
         11    1    3    3    0    0 -0.11115633112E+02  0.26952791423E+02 -0.78676255834E+01  0.30197844253E+02  0.51100000000E-03 0. -1.
        -11    1    3    3    0    0 -0.75711700397E+01  0.82363983837E+01  0.15458725520E+02  0.19082271067E+02  0.51100000000E-03 0.  1.
        -12    1    3    3    0    0  0.18320179910E+02 -0.35765566331E+02 -0.66286784119E+01  0.40727682286E+02  0.00000000000E+00 0.  1.
</event>
<event>
 7    1  0.3662489E-015  0.9000767E+02  0.7816164E-02  0.1186339E+00
        -11   -1    0    0    0    0  0.00000000000E+00  0.00000000000E+00  0.45593999997E+02  0.45594000000E+02  0.51100000000E-03 0.  1.
         11   -1    0    0    0    0 -0.00000000000E+00 -0.00000000000E+00 -0.45593999997E+02  0.45594000000E+02  0.51100000000E-03 0. -1.
    9900012    2    1    2    0    0  0.85639286106E+00 -0.65796600096E+00 -0.47629966699E+00  0.90007665571E+02  0.89999925957E+02 0.  0.
        -12    1    1    2    0    0 -0.85639286106E+00  0.65796600096E+00  0.47629966699E+00  0.11803344287E+01  0.00000000000E+00 0.  1.
         11    1    3    3    0    0 -0.19546548998E+02 -0.36732110555E+02  0.15748716479E+01  0.41638872998E+02  0.51100000000E-03 0. -1.
        -11    1    3    3    0    0  0.90635989670E+01  0.16441935998E+00  0.45406149562E+01  0.10138690468E+02  0.51100000000E-03 0.  1.
        -12    1    3    3    0    0  0.11339342892E+02  0.35909725194E+02 -0.65917862711E+01  0.38230102106E+02  0.00000000000E+00 0.  1.
</event>
<event>
 7    1  0.3662489E-015  0.9000720E+02  0.7816164E-02  0.1186340E+00
        -11   -1    0    0    0    0  0.00000000000E+00  0.00000000000E+00  0.45593999997E+02  0.45594000000E+02  0.51100000000E-03 0. -1.
         11   -1    0    0    0    0 -0.00000000000E+00 -0.00000000000E+00 -0.45593999997E+02  0.45594000000E+02  0.51100000000E-03 0.  1.
    9900012    2    1    2    0    0 -0.32295218489E+00 -0.76694176932E-01  0.11331801012E+01  0.90007204822E+02  0.89999459124E+02 0.  0.
        -12    1    1    2    0    0  0.32295218489E+00  0.76694176932E-01 -0.11331801012E+01  0.11807951780E+01  0.00000000000E+00 0.  1.
         11    1    3    3    0    0  0.17473373803E+01 -0.33226476857E+01  0.89222770164E+01  0.96798865170E+01  0.51100000000E-03 0. -1.
        -11    1    3    3    0    0  0.54413597537E+01 -0.24003622646E+02  0.26315564299E+02  0.36031808458E+02  0.51100000000E-03 0.  1.
         12    1    3    3    0    0 -0.75116493189E+01  0.27249576155E+02 -0.34104661214E+02  0.44295509847E+02  0.00000000000E+00 0. -1.
</event>
<event>
 7    1  0.3662489E-015  0.9000772E+02  0.7816164E-02  0.1186339E+00
        -11   -1    0    0    0    0  0.00000000000E+00  0.00000000000E+00  0.45593999997E+02  0.45594000000E+02  0.51100000000E-03 0. -1.
         11   -1    0    0    0    0 -0.00000000000E+00 -0.00000000000E+00 -0.45593999997E+02  0.45594000000E+02  0.51100000000E-03 0.  1.
    9900012    2    1    2    0    0  0.11796832167E+01  0.29934987121E-01 -0.22463407906E-01  0.90007723253E+02  0.89999984400E+02 0.  0.
        -12    1    1    2    0    0 -0.11796832167E+01 -0.29934987121E-01  0.22463407906E-01  0.11802767471E+01  0.00000000000E+00 0.  1.
         11    1    3    3    0    0  0.16057728331E+02  0.67786488806E+01 -0.41172753301E+01  0.17909569403E+02  0.51100000000E-03 0. -1.
        -11    1    3    3    0    0  0.14637890094E+02 -0.20246671735E+02 -0.19731158872E+02  0.31835737363E+02  0.51100000000E-03 0.  1.
         12    1    3    3    0    0 -0.29515935208E+02  0.13497957841E+02  0.23825970794E+02  0.40262416487E+02  0.00000000000E+00 0. -1.
</event>
<event>
 7    1  0.3662489E-015  0.9000777E+02  0.7816164E-02  0.1186339E+00
        -11   -1    0    0    0    0  0.00000000000E+00  0.00000000000E+00  0.45593999997E+02  0.45594000000E+02  0.51100000000E-03 0.  1.
         11   -1    0    0    0    0 -0.00000000000E+00 -0.00000000000E+00 -0.45593999997E+02  0.45594000000E+02  0.51100000000E-03 0. -1.
    9900012    2    1    2    0    0 -0.26400893673E+00  0.11343311131E+01 -0.19111952269E+00  0.90007773554E+02  0.90000035365E+02 0.  0.
        -12    1    1    2    0    0  0.26400893673E+00 -0.11343311131E+01  0.19111952269E+00  0.11802264464E+01  0.00000000000E+00 0.  1.
         11    1    3    3    0    0 -0.24137289113E+02  0.26498534755E+02 -0.78860648280E+01  0.36701104733E+02  0.51100000000E-03 0. -1.
        -11    1    3    3    0    0 -0.38818463945E+01  0.46410583451E+01 -0.75563762583E+01  0.96802363820E+01  0.51100000000E-03 0.  1.
        -12    1    3    3    0    0  0.27755126571E+02 -0.30005261987E+02  0.15251321564E+02  0.43626432439E+02  0.00000000000E+00 0.  1.
</event>
<event>
 7    1  0.3662489E-015  0.9000794E+02  0.7816164E-02  0.1186339E+00
        -11   -1    0    0    0    0  0.00000000000E+00  0.00000000000E+00  0.45593999997E+02  0.45594000000E+02  0.51100000000E-03 0.  1.
         11   -1    0    0    0    0 -0.00000000000E+00 -0.00000000000E+00 -0.45593999997E+02  0.45594000000E+02  0.51100000000E-03 0. -1.
    9900012    2    1    2    0    0  0.11370521867E+01 -0.31265671807E+00  0.43686197047E-01  0.90007936280E+02  0.90000200239E+02 0.  0.
        -12    1    1    2    0    0 -0.11370521867E+01  0.31265671807E+00 -0.43686197047E-01  0.11800637196E+01  0.00000000000E+00 0.  1.
         11    1    3    3    0    0  0.33093775100E+01  0.74733039354E+01 -0.42981471608E+01  0.92345178809E+01  0.51100000000E-03 0. -1.
        -11    1    3    3    0    0 -0.59264339195E+01  0.34078837320E+02 -0.10577411906E+02  0.36171417099E+02  0.51100000000E-03 0.  1.
         12    1    3    3    0    0  0.37541085961E+01 -0.41864797974E+02  0.14919245264E+02  0.44602001300E+02  0.00000000000E+00 0. -1.
</event>
<event>
 7    1  0.3662489E-015  0.9000772E+02  0.7816164E-02  0.1186339E+00
        -11   -1    0    0    0    0  0.00000000000E+00  0.00000000000E+00  0.45593999997E+02  0.45594000000E+02  0.51100000000E-03 0. -1.
         11   -1    0    0    0    0 -0.00000000000E+00 -0.00000000000E+00 -0.45593999997E+02  0.45594000000E+02  0.51100000000E-03 0.  1.
    9900012    2    1    2    0    0 -0.63253070165E+00  0.63895527749E+00  0.76466447195E+00  0.90007715844E+02  0.89999976893E+02 0.  0.
        -12    1    1    2    0    0  0.63253070165E+00 -0.63895527749E+00 -0.76466447195E+00  0.11802841564E+01  0.00000000000E+00 0.  1.
         11    1    3    3    0    0 -0.41611572536E+01  0.28571535253E+02 -0.12554170980E+02  0.31484203431E+02  0.51100000000E-03 0. -1.
        -11    1    3    3    0    0  0.12969040625E+01  0.14233385776E+02  0.66928646517E+01  0.15781814481E+02  0.51100000000E-03 0.  1.
        -12    1    3    3    0    0  0.22317224894E+01 -0.42165965752E+02  0.66259707998E+01  0.42741697932E+02  0.00000000000E+00 0.  1.
</event>
<event>
 7    1  0.3662489E-015  0.9000714E+02  0.7816164E-02  0.1186340E+00
        -11   -1    0    0    0    0  0.00000000000E+00  0.00000000000E+00  0.45593999997E+02  0.45594000000E+02  0.51100000000E-03 0. -1.
         11   -1    0    0    0    0 -0.00000000000E+00 -0.00000000000E+00 -0.45593999997E+02  0.45594000000E+02  0.51100000000E-03 0.  1.
    9900012    2    1    2    0    0 -0.58162892999E+00  0.40758000226E+00  0.94340912554E+00  0.90007138260E+02  0.89999391683E+02 0.  0.
        -12    1    1    2    0    0  0.58162892999E+00 -0.40758000226E+00 -0.94340912554E+00  0.11808617398E+01  0.00000000000E+00 0.  1.
         11    1    3    3    0    0 -0.34121207160E+02  0.54150002711E+01  0.95654635285E+01  0.35847972032E+02  0.51100000000E-03 0. -1.
        -11    1    3    3    0    0 -0.91115748751E+01  0.20026603430E+01 -0.54850750171E+01  0.10822083596E+02  0.51100000000E-03 0.  1.
        -12    1    3    3    0    0  0.42651153106E+02 -0.70100806119E+01 -0.31369793859E+01  0.43337082632E+02  0.00000000000E+00 0.  1.
</event>
<event>
 7    1  0.3662489E-015  0.9000781E+02  0.7816164E-02  0.1186339E+00
        -11   -1    0    0    0    0  0.00000000000E+00  0.00000000000E+00  0.45593999997E+02  0.45594000000E+02  0.51100000000E-03 0.  1.
         11   -1    0    0    0    0 -0.00000000000E+00 -0.00000000000E+00 -0.45593999997E+02  0.45594000000E+02  0.51100000000E-03 0. -1.
    9900012    2    1    2    0    0 -0.41973045202E+00  0.11030309938E+01 -0.74936315280E-03  0.90007808665E+02  0.90000070939E+02 0.  0.
        -12    1    1    2    0    0  0.41973045202E+00 -0.11030309938E+01  0.74936315280E-03  0.11801913350E+01  0.00000000000E+00 0.  1.
         11    1    3    3    0    0 -0.37390973136E+01  0.33426240633E+02 -0.23974574875E+02  0.41304656544E+02  0.51100000000E-03 0. -1.
        -11    1    3    3    0    0  0.28768049854E+01 -0.59489309630E+01 -0.58941489643E+01  0.88547602340E+01  0.51100000000E-03 0.  1.
        -12    1    3    3    0    0  0.44256187616E+00 -0.26374278676E+02  0.29867974476E+02  0.39848391887E+02  0.00000000000E+00 0.  1.
</event>
<event>
 7    1  0.3662489E-015  0.9000789E+02  0.7816164E-02  0.1186339E+00
        -11   -1    0    0    0    0  0.00000000000E+00  0.00000000000E+00  0.45593999997E+02  0.45594000000E+02  0.51100000000E-03 0.  1.
         11   -1    0    0    0    0 -0.00000000000E+00 -0.00000000000E+00 -0.45593999997E+02  0.45594000000E+02  0.51100000000E-03 0. -1.
    9900012    2    1    2    0    0  0.38894064054E-01  0.11464253961E+01 -0.27724705200E+00  0.90007885656E+02  0.90000148947E+02 0.  0.
        -12    1    1    2    0    0 -0.38894064054E-01 -0.11464253961E+01  0.27724705200E+00  0.11801143440E+01  0.00000000000E+00 0.  1.
         11    1    3    3    0    0  0.20451790181E+02 -0.23746897992E+02 -0.22625366298E+02  0.38653564988E+02  0.51100000000E-03 0. -1.
        -11    1    3    3    0    0  0.32315586630E+01 -0.61958009392E+01  0.17807011805E+01  0.72112285795E+01  0.51100000000E-03 0.  1.
        -12    1    3    3    0    0 -0.23644454780E+02  0.31089124327E+02  0.20567418066E+02  0.44143092089E+02  0.00000000000E+00 0.  1.
</event>
<event>
 7    1  0.3662489E-015  0.9000764E+02  0.7816164E-02  0.1186339E+00
        -11   -1    0    0    0    0  0.00000000000E+00  0.00000000000E+00  0.45593999997E+02  0.45594000000E+02  0.51100000000E-03 0. -1.
         11   -1    0    0    0    0 -0.00000000000E+00 -0.00000000000E+00 -0.45593999997E+02  0.45594000000E+02  0.51100000000E-03 0.  1.
    9900012    2    1    2    0    0 -0.12969372848E+00  0.11237504594E+01  0.33706487406E+00  0.90007640611E+02  0.89999900667E+02 0.  0.
        -12    1    1    2    0    0  0.12969372848E+00 -0.11237504594E+01 -0.33706487406E+00  0.11803593891E+01  0.00000000000E+00 0.  1.
         11    1    3    3    0    0  0.32823089257E+02 -0.12985853109E+02 -0.85092222467E+01  0.36309701635E+02  0.51100000000E-03 0. -1.
        -11    1    3    3    0    0  0.80474947221E+01  0.10067149352E+01 -0.36265277325E+01  0.88841065909E+01  0.51100000000E-03 0.  1.
        -12    1    3    3    0    0 -0.41000277708E+02  0.13102888633E+02  0.12472814853E+02  0.44813832385E+02  0.00000000000E+00 0.  1.
</event>
<event>
 7    1  0.3662489E-015  0.9000770E+02  0.7816164E-02  0.1186339E+00
        -11   -1    0    0    0    0  0.00000000000E+00  0.00000000000E+00  0.45593999997E+02  0.45594000000E+02  0.51100000000E-03 0.  1.
         11   -1    0    0    0    0 -0.00000000000E+00 -0.00000000000E+00 -0.45593999997E+02  0.45594000000E+02  0.51100000000E-03 0. -1.
    9900012    2    1    2    0    0  0.34579304677E+00 -0.11166368307E+01  0.16326942331E+00  0.90007700230E+02  0.89999961073E+02 0.  0.
        -12    1    1    2    0    0 -0.34579304677E+00  0.11166368307E+01 -0.16326942331E+00  0.11802997701E+01  0.00000000000E+00 0.  1.
         11    1    3    3    0    0 -0.51254840339E+01  0.47141653796E+01 -0.54091792631E+01  0.88177753640E+01  0.51100000000E-03 0. -1.
        -11    1    3    3    0    0 -0.29182342838E+02 -0.18026604982E+02  0.22207091094E+02  0.40862238263E+02  0.51100000000E-03 0.  1.
         12    1    3    3    0    0  0.34653619919E+02  0.12195802772E+02 -0.16634642407E+02  0.40327686603E+02  0.00000000000E+00 0. -1.
</event>
<event>
 7    1  0.3662489E-015  0.9000774E+02  0.7816164E-02  0.1186339E+00
        -11   -1    0    0    0    0  0.00000000000E+00  0.00000000000E+00  0.45593999997E+02  0.45594000000E+02  0.51100000000E-03 0.  1.
         11   -1    0    0    0    0 -0.00000000000E+00 -0.00000000000E+00 -0.45593999997E+02  0.45594000000E+02  0.51100000000E-03 0. -1.
    9900012    2    1    2    0    0 -0.25769825303E+00  0.77447627790E+00 -0.85251532877E+00  0.90007743977E+02  0.90000005397E+02 0.  0.
        -12    1    1    2    0    0  0.25769825303E+00 -0.77447627790E+00  0.85251532877E+00  0.11802560233E+01  0.00000000000E+00 0.  1.
         11    1    3    3    0    0 -0.32167169835E+02 -0.23994594950E+02  0.10689296376E+02  0.41529850220E+02  0.51100000000E-03 0. -1.
        -11    1    3    3    0    0  0.16583040145E+01 -0.45959134952E+01 -0.60882411032E+00  0.49237242123E+01  0.51100000000E-03 0.  1.
        -12    1    3    3    0    0  0.30251167568E+02  0.29364984723E+02 -0.10932987594E+02  0.43554169545E+02  0.00000000000E+00 0.  1.
</event>
<event>
 7    1  0.3662489E-015  0.9000761E+02  0.7816164E-02  0.1186339E+00
        -11   -1    0    0    0    0  0.00000000000E+00  0.00000000000E+00  0.45593999997E+02  0.45594000000E+02  0.51100000000E-03 0.  1.
         11   -1    0    0    0    0 -0.00000000000E+00 -0.00000000000E+00 -0.45593999997E+02  0.45594000000E+02  0.51100000000E-03 0. -1.
    9900012    2    1    2    0    0  0.30736957242E+00  0.13484389741E+00 -0.11316602971E+01  0.90007612793E+02  0.89999872482E+02 0.  0.
        -12    1    1    2    0    0 -0.30736957242E+00 -0.13484389741E+00  0.11316602971E+01  0.11803872071E+01  0.00000000000E+00 0.  1.
         11    1    3    3    0    0 -0.27208334870E+01 -0.41310695145E+01  0.81361614159E+01  0.95218586969E+01  0.51100000000E-03 0. -1.
        -11    1    3    3    0    0  0.19321717011E+02 -0.93508005994E+01  0.29381542125E+02  0.36387377454E+02  0.51100000000E-03 0.  1.
         12    1    3    3    0    0 -0.16293513952E+02  0.13616714011E+02 -0.38649363838E+02  0.44098376642E+02  0.00000000000E+00 0. -1.
</event>
<event>
 7    1  0.3662489E-015  0.9000732E+02  0.7816164E-02  0.1186340E+00
        -11   -1    0    0    0    0  0.00000000000E+00  0.00000000000E+00  0.45593999997E+02  0.45594000000E+02  0.51100000000E-03 0.  1.
         11   -1    0    0    0    0 -0.00000000000E+00 -0.00000000000E+00 -0.45593999997E+02  0.45594000000E+02  0.51100000000E-03 0. -1.
    9900012    2    1    2    0    0  0.51518002334E+00  0.50438792446E+00  0.93498225095E+00  0.90007318229E+02  0.89999574029E+02 0.  0.
        -12    1    1    2    0    0 -0.51518002334E+00 -0.50438792446E+00 -0.93498225095E+00  0.11806817710E+01  0.00000000000E+00 0.  1.
         11    1    3    3    0    0  0.89045083494E+01 -0.15710743988E+01  0.33548913995E+01  0.96443683191E+01  0.51100000000E-03 0. -1.
        -11    1    3    3    0    0  0.13903632977E+02  0.35446792250E+02  0.79832514249E+01  0.38903963735E+02  0.51100000000E-03 0.  1.
         12    1    3    3    0    0 -0.22292961303E+02 -0.33371329926E+02 -0.10403160573E+02  0.41458986175E+02  0.00000000000E+00 0. -1.
</event>
<event>
 7    1  0.4071077E-015  0.9000782E+02  0.7816164E-02  0.1186339E+00
        -11   -1    0    0    0    0  0.00000000000E+00  0.00000000000E+00  0.45593999997E+02  0.45594000000E+02  0.51100000000E-03 0.  1.
         11   -1    0    0    0    0 -0.00000000000E+00 -0.00000000000E+00 -0.45593999997E+02  0.45594000000E+02  0.51100000000E-03 0. -1.
    9900012    2    1    2    0    0  0.76817294601E+00 -0.70230069246E+00  0.55632620440E+00  0.90007824257E+02  0.90000086738E+02 0.  0.
        -12    1    1    2    0    0 -0.76817294601E+00  0.70230069246E+00 -0.55632620440E+00  0.11801757426E+01  0.00000000000E+00 0.  1.
         11    1    3    3    0    0 -0.53362485992E+01 -0.21135643547E+01 -0.78734014695E+01  0.97433646321E+01  0.51100000000E-03 0. -1.
        -11    1    3    3    0    0  0.78323578878E+01  0.40199221752E+02  0.30732106155E+01  0.41070279805E+02  0.51100000000E-03 0.  1.
         12    1    3    3    0    0 -0.17279363426E+01 -0.38787958090E+02  0.53565170584E+01  0.39194179820E+02  0.00000000000E+00 0. -1.
</event>
<event>
 7    1  0.3662489E-015  0.9000806E+02  0.7816164E-02  0.1186338E+00
        -11   -1    0    0    0    0  0.00000000000E+00  0.00000000000E+00  0.45593999997E+02  0.45594000000E+02  0.51100000000E-03 0. -1.
         11   -1    0    0    0    0 -0.00000000000E+00 -0.00000000000E+00 -0.45593999997E+02  0.45594000000E+02  0.51100000000E-03 0.  1.
    9900012    2    1    2    0    0  0.81910568763E+00  0.24263515943E+00  0.81390756006E+00  0.90008062940E+02  0.90000328571E+02 0.  0.
        -12    1    1    2    0    0 -0.81910568763E+00 -0.24263515943E+00 -0.81390756006E+00  0.11799370595E+01  0.00000000000E+00 0.  1.
         11    1    3    3    0    0 -0.24258891445E+02 -0.22147682481E+02  0.28271287587E+02  0.43339120382E+02  0.51100000000E-03 0. -1.
        -11    1    3    3    0    0  0.30667364256E+01 -0.18071455497E+01 -0.76260899558E+01  0.84159310606E+01  0.51100000000E-03 0.  1.
        -12    1    3    3    0    0  0.22011260707E+02  0.24197463191E+02 -0.19831290071E+02  0.38253011498E+02  0.00000000000E+00 0.  1.
</event>
<event>
 7    1  0.3662489E-015  0.9000766E+02  0.7816164E-02  0.1186339E+00
        -11   -1    0    0    0    0  0.00000000000E+00  0.00000000000E+00  0.45593999997E+02  0.45594000000E+02  0.51100000000E-03 0.  1.
         11   -1    0    0    0    0 -0.00000000000E+00 -0.00000000000E+00 -0.45593999997E+02  0.45594000000E+02  0.51100000000E-03 0. -1.
    9900012    2    1    2    0    0 -0.64346395584E+00  0.45908511472E+00 -0.87658485814E+00  0.90007658516E+02  0.89999918809E+02 0.  0.
        -12    1    1    2    0    0  0.64346395584E+00 -0.45908511472E+00  0.87658485814E+00  0.11803414839E+01  0.00000000000E+00 0.  1.
         11    1    3    3    0    0 -0.50691483786E+01 -0.35098836480E+02 -0.22895105984E+02  0.42211496844E+02  0.51100000000E-03 0. -1.
        -11    1    3    3    0    0  0.60192857586E+01 -0.64990428751E+00  0.19088557463E+01  0.63480632596E+01  0.51100000000E-03 0.  1.
        -12    1    3    3    0    0 -0.15936013358E+01  0.36207825883E+02  0.20109665379E+02  0.41448098413E+02  0.00000000000E+00 0.  1.
</event>
<event>
 7    1  0.3662489E-015  0.9000769E+02  0.7816164E-02  0.1186339E+00
        -11   -1    0    0    0    0  0.00000000000E+00  0.00000000000E+00  0.45593999997E+02  0.45594000000E+02  0.51100000000E-03 0.  1.
         11   -1    0    0    0    0 -0.00000000000E+00 -0.00000000000E+00 -0.45593999997E+02  0.45594000000E+02  0.51100000000E-03 0. -1.
    9900012    2    1    2    0    0 -0.99439541975E+00 -0.31396833292E+00  0.55293801278E+00  0.90007686986E+02  0.89999947654E+02 0.  0.
        -12    1    1    2    0    0  0.99439541975E+00  0.31396833292E+00 -0.55293801278E+00  0.11803130139E+01  0.00000000000E+00 0.  1.
         11    1    3    3    0    0 -0.29914257374E+02 -0.16629040722E+02  0.14257750881E+02  0.37076559306E+02  0.51100000000E-03 0. -1.
        -11    1    3    3    0    0 -0.85693736108E+01 -0.27149152573E+01 -0.12043697744E+01  0.90694782513E+01  0.51100000000E-03 0.  1.
        -12    1    3    3    0    0  0.37489235565E+02  0.19029987646E+02 -0.12500443094E+02  0.43861649428E+02  0.00000000000E+00 0.  1.
</event>
<event>
 7    1  0.3662489E-015  0.9000776E+02  0.7816164E-02  0.1186339E+00
        -11   -1    0    0    0    0  0.00000000000E+00  0.00000000000E+00  0.45593999997E+02  0.45594000000E+02  0.51100000000E-03 0. -1.
         11   -1    0    0    0    0 -0.00000000000E+00 -0.00000000000E+00 -0.45593999997E+02  0.45594000000E+02  0.51100000000E-03 0.  1.
    9900012    2    1    2    0    0  0.91046847067E+00  0.28261453545E-01  0.75047221867E+00  0.90007762695E+02  0.90000024362E+02 0.  0.
        -12    1    1    2    0    0 -0.91046847067E+00 -0.28261453545E-01 -0.75047221867E+00  0.11802373053E+01  0.00000000000E+00 0.  1.
         11    1    3    3    0    0  0.17801248524E+02 -0.84015914950E+01  0.29871123331E+01  0.19909646632E+02  0.51100000000E-03 0. -1.
        -11    1    3    3    0    0 -0.12186220133E+02 -0.16305977916E+02 -0.27642136606E+02  0.34328946872E+02  0.51100000000E-03 0.  1.
         12    1    3    3    0    0 -0.47045599203E+01  0.24735830864E+02  0.25405496492E+02  0.35769169191E+02  0.00000000000E+00 0. -1.
</event>
<event>
 7    1  0.3662489E-015  0.9000774E+02  0.7816164E-02  0.1186339E+00
        -11   -1    0    0    0    0  0.00000000000E+00  0.00000000000E+00  0.45593999997E+02  0.45594000000E+02  0.51100000000E-03 0. -1.
         11   -1    0    0    0    0 -0.00000000000E+00 -0.00000000000E+00 -0.45593999997E+02  0.45594000000E+02  0.51100000000E-03 0.  1.
    9900012    2    1    2    0    0  0.64941498619E+00 -0.48617634232E+00  0.85726654459E+00  0.90007740203E+02  0.90000001574E+02 0.  0.
        -12    1    1    2    0    0 -0.64941498619E+00  0.48617634232E+00 -0.85726654459E+00  0.11802597971E+01  0.00000000000E+00 0.  1.
         11    1    3    3    0    0  0.37108062841E+02  0.98053930670E+01  0.96297030383E+01  0.39571267883E+02  0.51100000000E-03 0. -1.
        -11    1    3    3    0    0  0.42852799074E+01  0.24310652520E+01  0.34761524616E+01  0.60297046645E+01  0.51100000000E-03 0.  1.
        -12    1    3    3    0    0 -0.40743927762E+02 -0.12722634661E+02 -0.12248588955E+02  0.44406767655E+02  0.00000000000E+00 0.  1.
</event>
<event>
 7    1  0.3662489E-015  0.9000775E+02  0.7816164E-02  0.1186339E+00
        -11   -1    0    0    0    0  0.00000000000E+00  0.00000000000E+00  0.45593999997E+02  0.45594000000E+02  0.51100000000E-03 0.  1.
         11   -1    0    0    0    0 -0.00000000000E+00 -0.00000000000E+00 -0.45593999997E+02  0.45594000000E+02  0.51100000000E-03 0. -1.
    9900012    2    1    2    0    0  0.73387347893E+00  0.59145799684E+00 -0.71034698462E+00  0.90007751855E+02  0.90000013380E+02 0.  0.
        -12    1    1    2    0    0 -0.73387347893E+00 -0.59145799684E+00  0.71034698462E+00  0.11802481450E+01  0.00000000000E+00 0.  1.
         11    1    3    3    0    0  0.27807038075E+02  0.12689049548E+02 -0.22988020718E+02  0.38245162331E+02  0.51100000000E-03 0. -1.
        -11    1    3    3    0    0 -0.87491716793E+01  0.47211123241E+01 -0.78695914186E+01  0.12679407557E+02  0.51100000000E-03 0.  1.
        -12    1    3    3    0    0 -0.18323992917E+02 -0.16818703876E+02  0.30147265152E+02  0.39083181966E+02  0.00000000000E+00 0.  1.
</event>
<event>
 7    1  0.3662489E-015  0.9000777E+02  0.7816164E-02  0.1186339E+00
        -11   -1    0    0    0    0  0.00000000000E+00  0.00000000000E+00  0.45593999997E+02  0.45594000000E+02  0.51100000000E-03 0.  1.
         11   -1    0    0    0    0 -0.00000000000E+00 -0.00000000000E+00 -0.45593999997E+02  0.45594000000E+02  0.51100000000E-03 0. -1.
    9900012    2    1    2    0    0  0.97947745791E+00  0.16050349075E+00  0.63858913697E+00  0.90007773942E+02  0.90000035758E+02 0.  0.
        -12    1    1    2    0    0 -0.97947745791E+00 -0.16050349075E+00 -0.63858913697E+00  0.11802260576E+01  0.00000000000E+00 0.  1.
         11    1    3    3    0    0 -0.59289954077E+01  0.37660161838E+01  0.56346459561E+01  0.90047265229E+01  0.51100000000E-03 0. -1.
        -11    1    3    3    0    0 -0.55682376273E+01 -0.37930192090E+02  0.12745503696E+02  0.40399908502E+02  0.51100000000E-03 0.  1.
         12    1    3    3    0    0  0.12476710493E+02  0.34324679397E+02 -0.17741560515E+02  0.40603138917E+02  0.00000000000E+00 0. -1.
</event>
<event>
 7    1  0.3662489E-015  0.9000774E+02  0.7816164E-02  0.1186339E+00
        -11   -1    0    0    0    0  0.00000000000E+00  0.00000000000E+00  0.45593999997E+02  0.45594000000E+02  0.51100000000E-03 0.  1.
         11   -1    0    0    0    0 -0.00000000000E+00 -0.00000000000E+00 -0.45593999997E+02  0.45594000000E+02  0.51100000000E-03 0. -1.
    9900012    2    1    2    0    0  0.24199898968E+00 -0.62463054941E+00 -0.97175023100E+00  0.90007735053E+02  0.89999996355E+02 0.  0.
        -12    1    1    2    0    0 -0.24199898968E+00  0.62463054941E+00  0.97175023100E+00  0.11802649473E+01  0.00000000000E+00 0.  1.
         11    1    3    3    0    0 -0.20061303081E+01  0.10477003622E+01  0.94821884929E+01  0.97485452114E+01  0.51100000000E-03 0. -1.
        -11    1    3    3    0    0  0.33293428419E+01  0.12554081924E+02  0.32499245768E+02  0.34998435286E+02  0.51100000000E-03 0.  1.
         12    1    3    3    0    0 -0.10812135442E+01 -0.14226412835E+02 -0.42953184492E+02  0.45260754555E+02  0.00000000000E+00 0. -1.
</event>
<event>
 7    1  0.3662489E-015  0.9000775E+02  0.7816164E-02  0.1186339E+00
        -11   -1    0    0    0    0  0.00000000000E+00  0.00000000000E+00  0.45593999997E+02  0.45594000000E+02  0.51100000000E-03 0.  1.
         11   -1    0    0    0    0 -0.00000000000E+00 -0.00000000000E+00 -0.45593999997E+02  0.45594000000E+02  0.51100000000E-03 0. -1.
    9900012    2    1    2    0    0  0.74745026425E+00 -0.32786994715E+00 -0.85253152637E+00  0.90007749771E+02  0.90000011268E+02 0.  0.
        -12    1    1    2    0    0 -0.74745026425E+00  0.32786994715E+00  0.85253152637E+00  0.11802502291E+01  0.00000000000E+00 0.  1.
         11    1    3    3    0    0  0.19864411227E+02  0.24151582155E+02 -0.22008745216E+02  0.38239751833E+02  0.51100000000E-03 0. -1.
        -11    1    3    3    0    0  0.57340823147E+01  0.56201037106E+01  0.19334161806E+01  0.82585328054E+01  0.51100000000E-03 0.  1.
        -12    1    3    3    0    0 -0.24851043278E+02 -0.30099555812E+02  0.19222797509E+02  0.43509465133E+02  0.00000000000E+00 0.  1.
</event>
<event>
 7    1  0.3662489E-015  0.9000778E+02  0.7816164E-02  0.1186339E+00
        -11   -1    0    0    0    0  0.00000000000E+00  0.00000000000E+00  0.45593999997E+02  0.45594000000E+02  0.51100000000E-03 0. -1.
         11   -1    0    0    0    0 -0.00000000000E+00 -0.00000000000E+00 -0.45593999997E+02  0.45594000000E+02  0.51100000000E-03 0.  1.
    9900012    2    1    2    0    0  0.21767776934E+00 -0.11052731342E+01  0.35200195718E+00  0.90007780660E+02  0.90000042565E+02 0.  0.
        -12    1    1    2    0    0 -0.21767776934E+00  0.11052731342E+01 -0.35200195718E+00  0.11802193399E+01  0.00000000000E+00 0.  1.
         11    1    3    3    0    0  0.88949896661E+01  0.13056488571E+01  0.10525450679E+01  0.90517076554E+01  0.51100000000E-03 0. -1.
        -11    1    3    3    0    0  0.22938822798E+02  0.23282196433E+02 -0.17281336868E+02  0.36971541303E+02  0.51100000000E-03 0.  1.
         12    1    3    3    0    0 -0.31616134695E+02 -0.25693118424E+02  0.16580793758E+02  0.43984531702E+02  0.00000000000E+00 0. -1.
</event>
<event>
 7    1  0.3662489E-015  0.9000775E+02  0.7816164E-02  0.1186339E+00
        -11   -1    0    0    0    0  0.00000000000E+00  0.00000000000E+00  0.45593999997E+02  0.45594000000E+02  0.51100000000E-03 0.  1.
         11   -1    0    0    0    0 -0.00000000000E+00 -0.00000000000E+00 -0.45593999997E+02  0.45594000000E+02  0.51100000000E-03 0. -1.
    9900012    2    1    2    0    0 -0.97058477545E+00 -0.45163176260E+00 -0.49696989191E+00  0.90007752090E+02  0.90000013618E+02 0.  0.
        -12    1    1    2    0    0  0.97058477545E+00  0.45163176260E+00  0.49696989191E+00  0.11802479099E+01  0.00000000000E+00 0.  1.
         11    1    3    3    0    0  0.21821449104E+02 -0.27580397481E+02 -0.16683961888E+02  0.38925679837E+02  0.51100000000E-03 0. -1.
        -11    1    3    3    0    0  0.40117461409E+01 -0.40245358238E+01 -0.21552817560E+01  0.60775188527E+01  0.51100000000E-03 0.  1.
        -12    1    3    3    0    0 -0.26803780020E+02  0.31153301543E+02  0.18342273752E+02  0.45004553400E+02  0.00000000000E+00 0.  1.
</event>
<event>
 7    1  0.3662489E-015  0.9000779E+02  0.7816164E-02  0.1186339E+00
        -11   -1    0    0    0    0  0.00000000000E+00  0.00000000000E+00  0.45593999997E+02  0.45594000000E+02  0.51100000000E-03 0. -1.
         11   -1    0    0    0    0 -0.00000000000E+00 -0.00000000000E+00 -0.45593999997E+02  0.45594000000E+02  0.51100000000E-03 0.  1.
    9900012    2    1    2    0    0  0.39044581933E+00  0.98564388335E+00  0.51859714490E+00  0.90007794594E+02  0.90000056682E+02 0.  0.
        -12    1    1    2    0    0 -0.39044581933E+00 -0.98564388335E+00 -0.51859714490E+00  0.11802054064E+01  0.00000000000E+00 0.  1.
         11    1    3    3    0    0 -0.29114108135E+02  0.14400179108E+02 -0.16192400766E+02  0.36293116340E+02  0.51100000000E-03 0. -1.
        -11    1    3    3    0    0 -0.41273456226E+01 -0.44528285575E+01 -0.87078709810E+01  0.10615539616E+02  0.51100000000E-03 0.  1.
        -12    1    3    3    0    0  0.33631899577E+02 -0.89617066670E+01  0.25418868892E+02  0.43099138638E+02  0.00000000000E+00 0.  1.
</event>
<event>
 7    1  0.3662489E-015  0.9000770E+02  0.7816164E-02  0.1186339E+00
        -11   -1    0    0    0    0  0.00000000000E+00  0.00000000000E+00  0.45593999997E+02  0.45594000000E+02  0.51100000000E-03 0.  1.
         11   -1    0    0    0    0 -0.00000000000E+00 -0.00000000000E+00 -0.45593999997E+02  0.45594000000E+02  0.51100000000E-03 0. -1.
    9900012    2    1    2    0    0 -0.10194837860E+01  0.33386568736E+00 -0.49223697886E+00  0.90007698881E+02  0.89999959707E+02 0.  0.
        -12    1    1    2    0    0  0.10194837860E+01 -0.33386568736E+00  0.49223697886E+00  0.11803011185E+01  0.00000000000E+00 0.  1.
         11    1    3    3    0    0  0.39323806613E+00 -0.27687648495E+01 -0.86864784890E+01  0.91255467655E+01  0.51100000000E-03 0. -1.
        -11    1    3    3    0    0 -0.24686262562E+02 -0.24082578807E+02  0.23736051536E+02  0.41866243013E+02  0.51100000000E-03 0.  1.
         12    1    3    3    0    0  0.23273540710E+02  0.27185209343E+02 -0.15541810026E+02  0.39015909103E+02  0.00000000000E+00 0. -1.
</event>
<event>
 7    1  0.3662489E-015  0.9000773E+02  0.7816164E-02  0.1186339E+00
        -11   -1    0    0    0    0  0.00000000000E+00  0.00000000000E+00  0.45593999997E+02  0.45594000000E+02  0.51100000000E-03 0. -1.
         11   -1    0    0    0    0 -0.00000000000E+00 -0.00000000000E+00 -0.45593999997E+02  0.45594000000E+02  0.51100000000E-03 0.  1.
    9900012    2    1    2    0    0  0.99072346209E-01  0.46712259931E+00  0.10793637016E+01  0.90007726789E+02  0.89999987983E+02 0.  0.
        -12    1    1    2    0    0 -0.99072346209E-01 -0.46712259931E+00 -0.10793637016E+01  0.11802732111E+01  0.00000000000E+00 0.  1.
         11    1    3    3    0    0  0.32962891820E+02 -0.18196987888E+02  0.23656429518E+02  0.44466945736E+02  0.51100000000E-03 0. -1.
        -11    1    3    3    0    0 -0.39557197064E+01 -0.59535757223E+00  0.19594815882E+00  0.40050674122E+01  0.51100000000E-03 0.  1.
        -12    1    3    3    0    0 -0.28908099768E+02  0.19259468059E+02 -0.22773013975E+02  0.41535713640E+02  0.00000000000E+00 0.  1.
</event>
<event>
 7    1  0.3662489E-015  0.9000777E+02  0.7816164E-02  0.1186339E+00
        -11   -1    0    0    0    0  0.00000000000E+00  0.00000000000E+00  0.45593999997E+02  0.45594000000E+02  0.51100000000E-03 0. -1.
         11   -1    0    0    0    0 -0.00000000000E+00 -0.00000000000E+00 -0.45593999997E+02  0.45594000000E+02  0.51100000000E-03 0.  1.
    9900012    2    1    2    0    0 -0.35357226513E+00 -0.10699878630E+01  0.35079751437E+00  0.90007768552E+02  0.90000030297E+02 0.  0.
        -12    1    1    2    0    0  0.35357226513E+00  0.10699878630E+01 -0.35079751437E+00  0.11802314475E+01  0.00000000000E+00 0.  1.
         11    1    3    3    0    0  0.32028955148E+02  0.18917466660E+02  0.14962361554E+02  0.40094847253E+02  0.51100000000E-03 0. -1.
        -11    1    3    3    0    0 -0.21104788268E+01  0.68117124498E+01 -0.37117750039E+01  0.80393296560E+01  0.51100000000E-03 0.  1.
        -12    1    3    3    0    0 -0.30272048586E+02 -0.26799166973E+02 -0.10899789036E+02  0.41873591643E+02  0.00000000000E+00 0.  1.
</event>
<event>
 7    1  0.3662489E-015  0.9000775E+02  0.7816164E-02  0.1186339E+00
        -11   -1    0    0    0    0  0.00000000000E+00  0.00000000000E+00  0.45593999997E+02  0.45594000000E+02  0.51100000000E-03 0.  1.
         11   -1    0    0    0    0 -0.00000000000E+00 -0.00000000000E+00 -0.45593999997E+02  0.45594000000E+02  0.51100000000E-03 0. -1.
    9900012    2    1    2    0    0  0.28144332290E+00 -0.78073450591E+00 -0.83918185398E+00  0.90007753036E+02  0.90000014576E+02 0.  0.
        -12    1    1    2    0    0 -0.28144332290E+00  0.78073450591E+00  0.83918185398E+00  0.11802469643E+01  0.00000000000E+00 0.  1.
         11    1    3    3    0    0 -0.33513459864E+02 -0.22424710712E+02  0.13444281002E+01  0.40346339731E+02  0.51100000000E-03 0. -1.
        -11    1    3    3    0    0  0.76271597524E+01 -0.56318562046E+01 -0.66777955353E+01  0.11596737630E+02  0.51100000000E-03 0.  1.
        -12    1    3    3    0    0  0.26167743434E+02  0.27275832410E+02  0.44941855811E+01  0.38064675674E+02  0.00000000000E+00 0.  1.
</event>
<event>
 7    1  0.3662489E-015  0.9000776E+02  0.7816164E-02  0.1186339E+00
        -11   -1    0    0    0    0  0.00000000000E+00  0.00000000000E+00  0.45593999997E+02  0.45594000000E+02  0.51100000000E-03 0.  1.
         11   -1    0    0    0    0 -0.00000000000E+00 -0.00000000000E+00 -0.45593999997E+02  0.45594000000E+02  0.51100000000E-03 0. -1.
    9900012    2    1    2    0    0  0.57347799816E+00  0.24168084492E+00 -0.10028349744E+01  0.90007760774E+02  0.90000022416E+02 0.  0.
        -12    1    1    2    0    0 -0.57347799816E+00 -0.24168084492E+00  0.10028349744E+01  0.11802392262E+01  0.00000000000E+00 0.  1.
         11    1    3    3    0    0 -0.50185428897E+01  0.93730781528E+01 -0.34179317629E+01  0.11167928393E+02  0.51100000000E-03 0. -1.
        -11    1    3    3    0    0  0.10825751288E+02  0.16089511287E+02  0.33354029225E+02  0.38581867894E+02  0.51100000000E-03 0.  1.
         12    1    3    3    0    0 -0.52337304001E+01 -0.25220908595E+02 -0.30938932437E+02  0.40257964486E+02  0.00000000000E+00 0. -1.
</event>
<event>
 7    1  0.3662489E-015  0.9000775E+02  0.7816164E-02  0.1186339E+00
        -11   -1    0    0    0    0  0.00000000000E+00  0.00000000000E+00  0.45593999997E+02  0.45594000000E+02  0.51100000000E-03 0. -1.
         11   -1    0    0    0    0 -0.00000000000E+00 -0.00000000000E+00 -0.45593999997E+02  0.45594000000E+02  0.51100000000E-03 0.  1.
    9900012    2    1    2    0    0 -0.38611907838E+00  0.21099460319E+00  0.10951657555E+01  0.90007748037E+02  0.90000009511E+02 0.  0.
        -12    1    1    2    0    0  0.38611907838E+00 -0.21099460319E+00 -0.10951657555E+01  0.11802519635E+01  0.00000000000E+00 0.  1.
         11    1    3    3    0    0  0.26289556876E+02  0.13401129189E+02  0.22584733626E+02  0.37159134240E+02  0.51100000000E-03 0. -1.
        -11    1    3    3    0    0  0.90970792545E+01  0.20437913972E+01 -0.29978722037E+01  0.97939354832E+01  0.51100000000E-03 0.  1.
        -12    1    3    3    0    0 -0.35772755209E+02 -0.15233925983E+02 -0.18491695666E+02  0.43054678313E+02  0.00000000000E+00 0.  1.
</event>
<event>
 7    1  0.3662489E-015  0.9000772E+02  0.7816164E-02  0.1186339E+00
        -11   -1    0    0    0    0  0.00000000000E+00  0.00000000000E+00  0.45593999997E+02  0.45594000000E+02  0.51100000000E-03 0.  1.
         11   -1    0    0    0    0 -0.00000000000E+00 -0.00000000000E+00 -0.45593999997E+02  0.45594000000E+02  0.51100000000E-03 0. -1.
    9900012    2    1    2    0    0  0.59409788418E+00  0.10196832492E+01 -0.18557418062E-01  0.90007724353E+02  0.89999985515E+02 0.  0.
        -12    1    1    2    0    0 -0.59409788418E+00 -0.10196832492E+01  0.18557418062E-01  0.11802756468E+01  0.00000000000E+00 0.  1.
         11    1    3    3    0    0 -0.48331458432E+01  0.31084119132E+02 -0.44361817716E+01  0.31768875805E+02  0.51100000000E-03 0. -1.
        -11    1    3    3    0    0  0.17429998227E+02  0.38306269886E+01  0.11980733896E+02  0.21494569692E+02  0.51100000000E-03 0.  1.
        -12    1    3    3    0    0 -0.12002754499E+02 -0.33895062872E+02 -0.75631095429E+01  0.36744278855E+02  0.00000000000E+00 0.  1.
</event>
<event>
 7    1  0.3662489E-015  0.9000811E+02  0.7816164E-02  0.1186338E+00
        -11   -1    0    0    0    0  0.00000000000E+00  0.00000000000E+00  0.45593999997E+02  0.45594000000E+02  0.51100000000E-03 0. -1.
         11   -1    0    0    0    0 -0.00000000000E+00 -0.00000000000E+00 -0.45593999997E+02  0.45594000000E+02  0.51100000000E-03 0.  1.
    9900012    2    1    2    0    0 -0.10167929942E+01  0.50366570718E+00  0.32340300407E+00  0.90008111598E+02  0.90000377871E+02 0.  0.
        -12    1    1    2    0    0  0.10167929942E+01 -0.50366570718E+00 -0.32340300407E+00  0.11798884018E+01  0.00000000000E+00 0.  1.
         11    1    3    3    0    0 -0.85177278252E+01 -0.68825239736E+01 -0.18022876257E+02  0.21088975612E+02  0.51100000000E-03 0. -1.
        -11    1    3    3    0    0 -0.10707138044E+02 -0.33844221736E+01 -0.21245084986E+02  0.24030205052E+02  0.51100000000E-03 0.  1.
        -12    1    3    3    0    0  0.18208072875E+02  0.10770611854E+02  0.39591364246E+02  0.44888930934E+02  0.00000000000E+00 0.  1.
</event>
<event>
 7    1  0.3662489E-015  0.9000823E+02  0.7816164E-02  0.1186338E+00
        -11   -1    0    0    0    0  0.00000000000E+00  0.00000000000E+00  0.45593999997E+02  0.45594000000E+02  0.51100000000E-03 0.  1.
         11   -1    0    0    0    0 -0.00000000000E+00 -0.00000000000E+00 -0.45593999997E+02  0.45594000000E+02  0.51100000000E-03 0. -1.
    9900012    2    1    2    0    0  0.27678411223E+00 -0.10353914064E+00 -0.11421603146E+01  0.90008228843E+02  0.90000496662E+02 0.  0.
        -12    1    1    2    0    0 -0.27678411223E+00  0.10353914064E+00  0.11421603146E+01  0.11797711569E+01  0.00000000000E+00 0.  1.
         11    1    3    3    0    0  0.32880326123E+02 -0.92995688975E+01 -0.22715391654E+02  0.41031534774E+02  0.51100000000E-03 0. -1.
        -11    1    3    3    0    0 -0.72834232079E+01  0.24710726792E+01 -0.68658959600E+01  0.10309945752E+02  0.51100000000E-03 0.  1.
        -12    1    3    3    0    0 -0.25320118803E+02  0.67249570777E+01  0.28439127300E+02  0.38666748317E+02  0.00000000000E+00 0.  1.
</event>
<event>
 7    1  0.3662489E-015  0.9000770E+02  0.7816164E-02  0.1186339E+00
        -11   -1    0    0    0    0  0.00000000000E+00  0.00000000000E+00  0.45593999997E+02  0.45594000000E+02  0.51100000000E-03 0.  1.
         11   -1    0    0    0    0 -0.00000000000E+00 -0.00000000000E+00 -0.45593999997E+02  0.45594000000E+02  0.51100000000E-03 0. -1.
    9900012    2    1    2    0    0  0.88425421614E+00  0.72406505037E+00 -0.29483744948E+00  0.90007701378E+02  0.89999962236E+02 0.  0.
        -12    1    1    2    0    0 -0.88425421614E+00 -0.72406505037E+00  0.29483744948E+00  0.11802986222E+01  0.00000000000E+00 0.  1.
         11    1    3    3    0    0 -0.16613288734E+02 -0.48141723604E+01  0.91759339600E+01  0.19579974013E+02  0.51100000000E-03 0. -1.
        -11    1    3    3    0    0 -0.19500883417E+02  0.52777251814E+01 -0.23380946975E+02  0.30899959852E+02  0.51100000000E-03 0.  1.
         12    1    3    3    0    0  0.36998426367E+02  0.26051222940E+00  0.13910175566E+02  0.39527767513E+02  0.00000000000E+00 0. -1.
</event>
<event>
 7    1  0.3662489E-015  0.9000776E+02  0.7816164E-02  0.1186339E+00
        -11   -1    0    0    0    0  0.00000000000E+00  0.00000000000E+00  0.45593999997E+02  0.45594000000E+02  0.51100000000E-03 0.  1.
         11   -1    0    0    0    0 -0.00000000000E+00 -0.00000000000E+00 -0.45593999997E+02  0.45594000000E+02  0.51100000000E-03 0. -1.
    9900012    2    1    2    0    0 -0.44807491171E+00 -0.76893295617E+00 -0.77519533532E+00  0.90007764081E+02  0.90000025766E+02 0.  0.
        -12    1    1    2    0    0  0.44807491171E+00  0.76893295617E+00  0.77519533532E+00  0.11802359194E+01  0.00000000000E+00 0.  1.
         11    1    3    3    0    0 -0.12886569603E+01  0.38324923971E+01 -0.33773881863E+02  0.34015051538E+02  0.51100000000E-03 0. -1.
        -11    1    3    3    0    0  0.20026398889E+02  0.85222050580E+01  0.13165225362E+02  0.25436347824E+02  0.51100000000E-03 0.  1.
        -12    1    3    3    0    0 -0.19185816841E+02 -0.13123630411E+02  0.19833461166E+02  0.30556364719E+02  0.00000000000E+00 0.  1.
</event>
<event>
 7    1  0.3662489E-015  0.9000789E+02  0.7816164E-02  0.1186339E+00
        -11   -1    0    0    0    0  0.00000000000E+00  0.00000000000E+00  0.45593999997E+02  0.45594000000E+02  0.51100000000E-03 0.  1.
         11   -1    0    0    0    0 -0.00000000000E+00 -0.00000000000E+00 -0.45593999997E+02  0.45594000000E+02  0.51100000000E-03 0. -1.
    9900012    2    1    2    0    0  0.11549951073E+01 -0.35688078445E-01  0.23953463383E+00  0.90007888066E+02  0.90000151388E+02 0.  0.
        -12    1    1    2    0    0 -0.11549951073E+01  0.35688078445E-01 -0.23953463383E+00  0.11801119344E+01  0.00000000000E+00 0.  1.
         11    1    3    3    0    0 -0.71755351298E+01  0.42045181569E+01  0.83431947079E+01  0.11780287582E+02  0.51100000000E-03 0. -1.
        -11    1    3    3    0    0 -0.33800130378E+02  0.56670865360E+01 -0.67267589158E+01  0.34925835268E+02  0.51100000000E-03 0.  1.
         12    1    3    3    0    0  0.42130660615E+02 -0.99072927713E+01 -0.13769011583E+01  0.43301765215E+02  0.00000000000E+00 0. -1.
</event>
<event>
 7    1  0.3662489E-015  0.9000770E+02  0.7816164E-02  0.1186339E+00
        -11   -1    0    0    0    0  0.00000000000E+00  0.00000000000E+00  0.45593999997E+02  0.45594000000E+02  0.51100000000E-03 0.  1.
         11   -1    0    0    0    0 -0.00000000000E+00 -0.00000000000E+00 -0.45593999997E+02  0.45594000000E+02  0.51100000000E-03 0. -1.
    9900012    2    1    2    0    0  0.89146915158E+00  0.77012558627E+00 -0.72708761759E-01  0.90007704600E+02  0.89999965501E+02 0.  0.
        -12    1    1    2    0    0 -0.89146915158E+00 -0.77012558627E+00  0.72708761759E-01  0.11802953998E+01  0.00000000000E+00 0.  1.
         11    1    3    3    0    0  0.31112935803E-01 -0.68163708857E+01  0.54115062209E+01  0.87033487754E+01  0.51100000000E-03 0. -1.
        -11    1    3    3    0    0  0.11694556595E+02 -0.13272872405E+02  0.32287645182E+02  0.36816081099E+02  0.51100000000E-03 0.  1.
         12    1    3    3    0    0 -0.10834200380E+02  0.20859368877E+02 -0.37771860165E+02  0.44488274726E+02  0.00000000000E+00 0. -1.
</event>
<event>
 7    1  0.3662489E-015  0.9000781E+02  0.7816164E-02  0.1186339E+00
        -11   -1    0    0    0    0  0.00000000000E+00  0.00000000000E+00  0.45593999997E+02  0.45594000000E+02  0.51100000000E-03 0. -1.
         11   -1    0    0    0    0 -0.00000000000E+00 -0.00000000000E+00 -0.45593999997E+02  0.45594000000E+02  0.51100000000E-03 0.  1.
    9900012    2    1    2    0    0 -0.86548792850E+00 -0.79695959249E+00  0.92859476449E-01  0.90007814918E+02  0.90000077274E+02 0.  0.
        -12    1    1    2    0    0  0.86548792850E+00  0.79695959249E+00 -0.92859476449E-01  0.11801850824E+01  0.00000000000E+00 0.  1.
         11    1    3    3    0    0  0.75982158226E+01  0.13204120122E+01 -0.60857726929E+01  0.98241030684E+01  0.51100000000E-03 0. -1.
        -11    1    3    3    0    0  0.23862507496E+02 -0.42044396317E+01 -0.25288321124E+02  0.35022789183E+02  0.51100000000E-03 0.  1.
         12    1    3    3    0    0 -0.32326211247E+02  0.20870680270E+01  0.31466953293E+02  0.45160922666E+02  0.00000000000E+00 0. -1.
</event>
<event>
 7    1  0.3662489E-015  0.9000776E+02  0.7816164E-02  0.1186339E+00
        -11   -1    0    0    0    0  0.00000000000E+00  0.00000000000E+00  0.45593999997E+02  0.45594000000E+02  0.51100000000E-03 0. -1.
         11   -1    0    0    0    0 -0.00000000000E+00 -0.00000000000E+00 -0.45593999997E+02  0.45594000000E+02  0.51100000000E-03 0.  1.
    9900012    2    1    2    0    0 -0.24597674534E-01  0.60946611889E+00  0.10103980440E+01  0.90007763497E+02  0.90000025175E+02 0.  0.
        -12    1    1    2    0    0  0.24597674534E-01 -0.60946611889E+00 -0.10103980440E+01  0.11802365030E+01  0.00000000000E+00 0.  1.
         11    1    3    3    0    0 -0.49008429533E+01  0.17184669509E+01 -0.92247110501E+01  0.10586155323E+02  0.51100000000E-03 0. -1.
        -11    1    3    3    0    0  0.14496054697E+02 -0.95409838909E+01 -0.31394054564E+02  0.35871334484E+02  0.51100000000E-03 0.  1.
         12    1    3    3    0    0 -0.96198094181E+01  0.84319830589E+01  0.41629163659E+02  0.43550273690E+02  0.00000000000E+00 0. -1.
</event>
<event>
 7    1  0.3662489E-015  0.9000773E+02  0.7816164E-02  0.1186339E+00
        -11   -1    0    0    0    0  0.00000000000E+00  0.00000000000E+00  0.45593999997E+02  0.45594000000E+02  0.51100000000E-03 0.  1.
         11   -1    0    0    0    0 -0.00000000000E+00 -0.00000000000E+00 -0.45593999997E+02  0.45594000000E+02  0.51100000000E-03 0. -1.
    9900012    2    1    2    0    0 -0.96543508010E+00  0.64877851877E+00 -0.20014329197E+00  0.90007730625E+02  0.89999991869E+02 0.  0.
        -12    1    1    2    0    0  0.96543508010E+00 -0.64877851877E+00  0.20014329197E+00  0.11802693750E+01  0.00000000000E+00 0.  1.
         11    1    3    3    0    0  0.12242314324E+01 -0.39729788908E+02 -0.48267178273E+01  0.40040630296E+02  0.51100000000E-03 0. -1.
        -11    1    3    3    0    0 -0.10233715253E+02  0.18880280101E+01  0.33915802603E+00  0.10411945355E+02  0.51100000000E-03 0.  1.
        -12    1    3    3    0    0  0.80440487408E+01  0.38490539416E+02  0.42874165093E+01  0.39555154974E+02  0.00000000000E+00 0.  1.
</event>
<event>
 7    1  0.3662489E-015  0.9000763E+02  0.7816164E-02  0.1186339E+00
        -11   -1    0    0    0    0  0.00000000000E+00  0.00000000000E+00  0.45593999997E+02  0.45594000000E+02  0.51100000000E-03 0.  1.
         11   -1    0    0    0    0 -0.00000000000E+00 -0.00000000000E+00 -0.45593999997E+02  0.45594000000E+02  0.51100000000E-03 0. -1.
    9900012    2    1    2    0    0 -0.60189318685E+00  0.83864148033E+00 -0.57242446389E+00  0.90007633655E+02  0.89999893619E+02 0.  0.
        -12    1    1    2    0    0  0.60189318685E+00 -0.83864148033E+00  0.57242446389E+00  0.11803663447E+01  0.00000000000E+00 0.  1.
         11    1    3    3    0    0  0.12267486875E+01  0.25505167945E+01  0.99134686432E+01  0.10309554261E+02  0.51100000000E-03 0. -1.
        -11    1    3    3    0    0  0.23439291727E+02  0.23615583122E+02 -0.24452771973E+02  0.41292060015E+02  0.51100000000E-03 0.  1.
         12    1    3    3    0    0 -0.25267933601E+02 -0.25327458436E+02  0.13966878866E+02  0.38406019379E+02  0.00000000000E+00 0. -1.
</event>
<event>
 7    1  0.3662489E-015  0.9000773E+02  0.7816164E-02  0.1186339E+00
        -11   -1    0    0    0    0  0.00000000000E+00  0.00000000000E+00  0.45593999997E+02  0.45594000000E+02  0.51100000000E-03 0.  1.
         11   -1    0    0    0    0 -0.00000000000E+00 -0.00000000000E+00 -0.45593999997E+02  0.45594000000E+02  0.51100000000E-03 0. -1.
    9900012    2    1    2    0    0 -0.79950099888E+00 -0.17158128714E+00 -0.85111685154E+00  0.90007728048E+02  0.89999989258E+02 0.  0.
        -12    1    1    2    0    0  0.79950099888E+00  0.17158128714E+00  0.85111685154E+00  0.11802719518E+01  0.00000000000E+00 0.  1.
         11    1    3    3    0    0  0.17609117461E+02  0.17359521832E+02 -0.32886127083E+02  0.41145247244E+02  0.51100000000E-03 0. -1.
        -11    1    3    3    0    0  0.58832336373E+01  0.12916241137E+01  0.69201687245E+01  0.91743918773E+01  0.51100000000E-03 0.  1.
        -12    1    3    3    0    0 -0.24291852097E+02 -0.18822727233E+02  0.25114841507E+02  0.39688088927E+02  0.00000000000E+00 0.  1.
</event>
<event>
 7    1  0.3662489E-015  0.9000796E+02  0.7816164E-02  0.1186339E+00
        -11   -1    0    0    0    0  0.00000000000E+00  0.00000000000E+00  0.45593999997E+02  0.45594000000E+02  0.51100000000E-03 0. -1.
         11   -1    0    0    0    0 -0.00000000000E+00 -0.00000000000E+00 -0.45593999997E+02  0.45594000000E+02  0.51100000000E-03 0.  1.
    9900012    2    1    2    0    0  0.36660400863E+00 -0.11064183353E+01 -0.18422238760E+00  0.90007958509E+02  0.90000222761E+02 0.  0.
        -12    1    1    2    0    0 -0.36660400863E+00  0.11064183353E+01  0.18422238760E+00  0.11800414908E+01  0.00000000000E+00 0.  1.
         11    1    3    3    0    0 -0.19841729263E+02 -0.30401031842E+02  0.10485621186E+02  0.37787103741E+02  0.51100000000E-03 0. -1.
        -11    1    3    3    0    0  0.52423346500E+01 -0.84293065399E+01  0.10407559349E+01  0.99809044932E+01  0.51100000000E-03 0.  1.
        -12    1    3    3    0    0  0.14965998622E+02  0.37723920046E+02 -0.11710599508E+02  0.42239950275E+02  0.00000000000E+00 0.  1.
</event>
<event>
 7    1  0.3662489E-015  0.9000772E+02  0.7816164E-02  0.1186339E+00
        -11   -1    0    0    0    0  0.00000000000E+00  0.00000000000E+00  0.45593999997E+02  0.45594000000E+02  0.51100000000E-03 0.  1.
         11   -1    0    0    0    0 -0.00000000000E+00 -0.00000000000E+00 -0.45593999997E+02  0.45594000000E+02  0.51100000000E-03 0. -1.
    9900012    2    1    2    0    0  0.10993421955E+01 -0.41297834450E+00 -0.11809727175E+00  0.90007724040E+02  0.89999985197E+02 0.  0.
        -12    1    1    2    0    0 -0.10993421955E+01  0.41297834450E+00  0.11809727175E+00  0.11802759598E+01  0.00000000000E+00 0.  1.
         11    1    3    3    0    0  0.62430933921E+01  0.35837854131E+02 -0.21671125670E+02  0.42343425604E+02  0.51100000000E-03 0. -1.
        -11    1    3    3    0    0  0.53027955984E+01 -0.69626232368E+01 -0.15984418023E+01  0.88967848099E+01  0.51100000000E-03 0.  1.
        -12    1    3    3    0    0 -0.10446546795E+02 -0.29288209238E+02  0.23151470201E+02  0.38767513627E+02  0.00000000000E+00 0.  1.
</event>
<event>
 7    1  0.3662489E-015  0.9000784E+02  0.7816164E-02  0.1186339E+00
        -11   -1    0    0    0    0  0.00000000000E+00  0.00000000000E+00  0.45593999997E+02  0.45594000000E+02  0.51100000000E-03 0. -1.
         11   -1    0    0    0    0 -0.00000000000E+00 -0.00000000000E+00 -0.45593999997E+02  0.45594000000E+02  0.51100000000E-03 0.  1.
    9900012    2    1    2    0    0 -0.71951534577E+00 -0.87023007960E+00  0.34319506516E+00  0.90007836631E+02  0.90000099275E+02 0.  0.
        -12    1    1    2    0    0  0.71951534577E+00  0.87023007960E+00 -0.34319506516E+00  0.11801633688E+01  0.00000000000E+00 0.  1.
         11    1    3    3    0    0  0.13690396102E+02 -0.35985659587E+02 -0.56002551421E+01  0.38907036629E+02  0.51100000000E-03 0. -1.
        -11    1    3    3    0    0 -0.33171774050E+01 -0.60138564262E+01  0.49931911983E+01  0.84912951694E+01  0.51100000000E-03 0.  1.
        -12    1    3    3    0    0 -0.11092734043E+02  0.41129285933E+02  0.95025900891E+00  0.42609504833E+02  0.00000000000E+00 0.  1.
</event>
<event>
 7    1  0.3662489E-015  0.9000769E+02  0.7816164E-02  0.1186339E+00
        -11   -1    0    0    0    0  0.00000000000E+00  0.00000000000E+00  0.45593999997E+02  0.45594000000E+02  0.51100000000E-03 0.  1.
         11   -1    0    0    0    0 -0.00000000000E+00 -0.00000000000E+00 -0.45593999997E+02  0.45594000000E+02  0.51100000000E-03 0. -1.
    9900012    2    1    2    0    0 -0.92819887190E+00 -0.89821699592E-01 -0.72354058667E+00  0.90007689844E+02  0.89999950550E+02 0.  0.
        -12    1    1    2    0    0  0.92819887190E+00  0.89821699592E-01  0.72354058667E+00  0.11803101559E+01  0.00000000000E+00 0.  1.
         11    1    3    3    0    0 -0.18034673106E+01  0.10593849039E+02  0.69455124299E+00  0.10768682997E+02  0.51100000000E-03 0. -1.
        -11    1    3    3    0    0 -0.20471354525E+01 -0.13035181289E+02  0.37699519609E+02  0.39941964070E+02  0.51100000000E-03 0.  1.
         12    1    3    3    0    0  0.29224038912E+01  0.23515105503E+01 -0.39117611438E+02  0.39297042777E+02  0.00000000000E+00 0. -1.
</event>
<event>
 7    1  0.3662489E-015  0.9000774E+02  0.7816164E-02  0.1186339E+00
        -11   -1    0    0    0    0  0.00000000000E+00  0.00000000000E+00  0.45593999997E+02  0.45594000000E+02  0.51100000000E-03 0.  1.
         11   -1    0    0    0    0 -0.00000000000E+00 -0.00000000000E+00 -0.45593999997E+02  0.45594000000E+02  0.51100000000E-03 0. -1.
    9900012    2    1    2    0    0 -0.26008091967E+00 -0.78166337943E+00 -0.84521011956E+00  0.90007737373E+02  0.89999998706E+02 0.  0.
        -12    1    1    2    0    0  0.26008091967E+00  0.78166337943E+00  0.84521011956E+00  0.11802626274E+01  0.00000000000E+00 0.  1.
         11    1    3    3    0    0 -0.38271209965E+01 -0.13351748146E+02 -0.33180575717E+02  0.35970357780E+02  0.51100000000E-03 0. -1.
        -11    1    3    3    0    0 -0.11812581299E+01  0.17480634479E+01 -0.99296106203E+01  0.10151269079E+02  0.51100000000E-03 0.  1.
        -12    1    3    3    0    0  0.47482982067E+01  0.10822021318E+02  0.42264976218E+02  0.43886110513E+02  0.00000000000E+00 0.  1.
</event>
<event>
 7    1  0.3662489E-015  0.9000769E+02  0.7816164E-02  0.1186339E+00
        -11   -1    0    0    0    0  0.00000000000E+00  0.00000000000E+00  0.45593999997E+02  0.45594000000E+02  0.51100000000E-03 0. -1.
         11   -1    0    0    0    0 -0.00000000000E+00 -0.00000000000E+00 -0.45593999997E+02  0.45594000000E+02  0.51100000000E-03 0.  1.
    9900012    2    1    2    0    0  0.11463542097E+01  0.27534755166E+00 -0.56364900614E-01  0.90007694425E+02  0.89999955191E+02 0.  0.
        -12    1    1    2    0    0 -0.11463542097E+01 -0.27534755166E+00  0.56364900614E-01  0.11803055750E+01  0.00000000000E+00 0.  1.
         11    1    3    3    0    0 -0.25187455175E+02 -0.15752192161E+02 -0.21713144299E+02  0.36796740231E+02  0.51100000000E-03 0. -1.
        -11    1    3    3    0    0  0.96285524886E+01 -0.27051809383E+01 -0.90936918574E+01  0.13517479750E+02  0.51100000000E-03 0.  1.
        -12    1    3    3    0    0  0.16705256896E+02  0.18732720651E+02  0.30750471256E+02  0.39693474443E+02  0.00000000000E+00 0.  1.
</event>
<event>
 7    1  0.3662489E-015  0.9000777E+02  0.7816164E-02  0.1186339E+00
        -11   -1    0    0    0    0  0.00000000000E+00  0.00000000000E+00  0.45593999997E+02  0.45594000000E+02  0.51100000000E-03 0. -1.
         11   -1    0    0    0    0 -0.00000000000E+00 -0.00000000000E+00 -0.45593999997E+02  0.45594000000E+02  0.51100000000E-03 0.  1.
    9900012    2    1    2    0    0  0.89553965455E+00  0.12089152484E+00  0.75917587181E+00  0.90007765261E+02  0.90000026963E+02 0.  0.
        -12    1    1    2    0    0 -0.89553965455E+00 -0.12089152484E+00 -0.75917587181E+00  0.11802347385E+01  0.00000000000E+00 0.  1.
         11    1    3    3    0    0 -0.26836348675E+02 -0.21497180413E+02  0.20805491496E+02  0.40189387313E+02  0.51100000000E-03 0. -1.
        -11    1    3    3    0    0  0.77464959158E+01 -0.68605557718E+01 -0.17014249274E+01  0.10486671136E+02  0.51100000000E-03 0.  1.
        -12    1    3    3    0    0  0.19985392414E+02  0.28478627709E+02 -0.18344890697E+02  0.39331706813E+02  0.00000000000E+00 0.  1.
</event>
<event>
 7    1  0.3662489E-015  0.9000732E+02  0.7816164E-02  0.1186340E+00
        -11   -1    0    0    0    0  0.00000000000E+00  0.00000000000E+00  0.45593999997E+02  0.45594000000E+02  0.51100000000E-03 0. -1.
         11   -1    0    0    0    0 -0.00000000000E+00 -0.00000000000E+00 -0.45593999997E+02  0.45594000000E+02  0.51100000000E-03 0.  1.
    9900012    2    1    2    0    0  0.11119793101E+01  0.39498235724E+00 -0.38688193345E-01  0.90007319762E+02  0.89999575582E+02 0.  0.
        -12    1    1    2    0    0 -0.11119793101E+01 -0.39498235724E+00  0.38688193345E-01  0.11806802382E+01  0.00000000000E+00 0.  1.
         11    1    3    3    0    0  0.32592706808E+02 -0.17698534033E+02  0.16370219925E+02  0.40540186786E+02  0.51100000000E-03 0. -1.
        -11    1    3    3    0    0 -0.43832090189E+01  0.17048588237E+01  0.81381692674E+01  0.93994076514E+01  0.51100000000E-03 0.  1.
        -12    1    3    3    0    0 -0.27097518479E+02  0.16388657567E+02 -0.24547077385E+02  0.40067725325E+02  0.00000000000E+00 0.  1.
</event>
<event>
 7    1  0.3662489E-015  0.9000781E+02  0.7816164E-02  0.1186339E+00
        -11   -1    0    0    0    0  0.00000000000E+00  0.00000000000E+00  0.45593999997E+02  0.45594000000E+02  0.51100000000E-03 0. -1.
         11   -1    0    0    0    0 -0.00000000000E+00 -0.00000000000E+00 -0.45593999997E+02  0.45594000000E+02  0.51100000000E-03 0.  1.
    9900012    2    1    2    0    0 -0.69761486677E+00  0.90385531321E+00 -0.29872392987E+00  0.90007806407E+02  0.90000068652E+02 0.  0.
        -12    1    1    2    0    0  0.69761486677E+00 -0.90385531321E+00  0.29872392987E+00  0.11801935925E+01  0.00000000000E+00 0.  1.
         11    1    3    3    0    0  0.19166092599E+02 -0.27721546098E+02  0.16199287223E+02  0.37393049226E+02  0.51100000000E-03 0. -1.
        -11    1    3    3    0    0 -0.50823715653E+01 -0.84418613562E+01 -0.51942114449E+01  0.11138911827E+02  0.51100000000E-03 0.  1.
        -12    1    3    3    0    0 -0.14781335900E+02  0.37067262768E+02 -0.11303799708E+02  0.41475845355E+02  0.00000000000E+00 0.  1.
</event>
<event>
 7    1  0.3662489E-015  0.9000777E+02  0.7816164E-02  0.1186339E+00
        -11   -1    0    0    0    0  0.00000000000E+00  0.00000000000E+00  0.45593999997E+02  0.45594000000E+02  0.51100000000E-03 0. -1.
         11   -1    0    0    0    0 -0.00000000000E+00 -0.00000000000E+00 -0.45593999997E+02  0.45594000000E+02  0.51100000000E-03 0.  1.
    9900012    2    1    2    0    0 -0.41537804323E+00 -0.11046305714E+01  0.13681812587E-01  0.90007773407E+02  0.90000035216E+02 0.  0.
        -12    1    1    2    0    0  0.41537804323E+00  0.11046305714E+01 -0.13681812587E-01  0.11802265927E+01  0.00000000000E+00 0.  1.
         11    1    3    3    0    0 -0.80445595901E+01  0.41062372333E+01 -0.41536308873E+01  0.99412661681E+01  0.51100000000E-03 0. -1.
        -11    1    3    3    0    0 -0.25006912972E+02 -0.22484069806E+02 -0.16812786022E+02  0.37597192255E+02  0.51100000000E-03 0.  1.
         12    1    3    3    0    0  0.32636094519E+02  0.17273202001E+02  0.20980098722E+02  0.42469314984E+02  0.00000000000E+00 0. -1.
</event>
<event>
 7    1  0.3662489E-015  0.9000773E+02  0.7816164E-02  0.1186339E+00
        -11   -1    0    0    0    0  0.00000000000E+00  0.00000000000E+00  0.45593999997E+02  0.45594000000E+02  0.51100000000E-03 0.  1.
         11   -1    0    0    0    0 -0.00000000000E+00 -0.00000000000E+00 -0.45593999997E+02  0.45594000000E+02  0.51100000000E-03 0. -1.
    9900012    2    1    2    0    0  0.24878191671E+00 -0.86371925659E+00 -0.76494126882E+00  0.90007729463E+02  0.89999990692E+02 0.  0.
        -12    1    1    2    0    0 -0.24878191671E+00  0.86371925659E+00  0.76494126882E+00  0.11802705372E+01  0.00000000000E+00 0.  1.
         11    1    3    3    0    0 -0.35316148711E+02 -0.11942653949E+02 -0.14794648637E+02  0.40109088392E+02  0.51100000000E-03 0. -1.
        -11    1    3    3    0    0  0.25377396036E+01 -0.75761810736E+01 -0.27107036238E+01  0.84372125938E+01  0.51100000000E-03 0.  1.
        -12    1    3    3    0    0  0.33027191024E+02  0.18655115766E+02  0.16740410992E+02  0.41461428477E+02  0.00000000000E+00 0.  1.
</event>
<event>
 7    1  0.3662489E-015  0.9000823E+02  0.7816164E-02  0.1186338E+00
        -11   -1    0    0    0    0  0.00000000000E+00  0.00000000000E+00  0.45593999997E+02  0.45594000000E+02  0.51100000000E-03 0.  1.
         11   -1    0    0    0    0 -0.00000000000E+00 -0.00000000000E+00 -0.45593999997E+02  0.45594000000E+02  0.51100000000E-03 0. -1.
    9900012    2    1    2    0    0 -0.90114786428E+00  0.74184680763E+00 -0.17164435218E+00  0.90008226317E+02  0.90000494103E+02 0.  0.
        -12    1    1    2    0    0  0.90114786428E+00 -0.74184680763E+00  0.17164435218E+00  0.11797736829E+01  0.00000000000E+00 0.  1.
         11    1    3    3    0    0 -0.82003440260E+01 -0.10295402397E+01  0.11653749421E+02  0.14286898582E+02  0.51100000000E-03 0. -1.
        -11    1    3    3    0    0  0.25881165898E+02  0.22947609773E+01  0.23993152983E+02  0.35366256043E+02  0.51100000000E-03 0.  1.
         12    1    3    3    0    0 -0.18581969736E+02 -0.52337393001E+00 -0.35818546756E+02  0.40355071692E+02  0.00000000000E+00 0. -1.
</event>
<event>
 7    1  0.3662489E-015  0.9000770E+02  0.7816164E-02  0.1186339E+00
        -11   -1    0    0    0    0  0.00000000000E+00  0.00000000000E+00  0.45593999997E+02  0.45594000000E+02  0.51100000000E-03 0. -1.
         11   -1    0    0    0    0 -0.00000000000E+00 -0.00000000000E+00 -0.45593999997E+02  0.45594000000E+02  0.51100000000E-03 0.  1.
    9900012    2    1    2    0    0 -0.85437645666E+00  0.13370763232E+00  0.80328289241E+00  0.90007703314E+02  0.89999964198E+02 0.  0.
        -12    1    1    2    0    0  0.85437645666E+00 -0.13370763232E+00 -0.80328289241E+00  0.11802966855E+01  0.00000000000E+00 0.  1.
         11    1    3    3    0    0 -0.33563799873E+02 -0.14006581175E+02 -0.29312992357E+01  0.36487059262E+02  0.51100000000E-03 0. -1.
        -11    1    3    3    0    0 -0.61871321407E+01 -0.52818880302E+01 -0.44625212135E+01  0.92786335811E+01  0.51100000000E-03 0.  1.
        -12    1    3    3    0    0  0.38896555557E+02  0.19422176838E+02  0.81971033416E+01  0.44242010471E+02  0.00000000000E+00 0.  1.
</event>
<event>
 7    1  0.3662489E-015  0.9000770E+02  0.7816164E-02  0.1186339E+00
        -11   -1    0    0    0    0  0.00000000000E+00  0.00000000000E+00  0.45593999997E+02  0.45594000000E+02  0.51100000000E-03 0.  1.
         11   -1    0    0    0    0 -0.00000000000E+00 -0.00000000000E+00 -0.45593999997E+02  0.45594000000E+02  0.51100000000E-03 0. -1.
    9900012    2    1    2    0    0  0.49406631399E+00  0.55857621920E+00 -0.91487392616E+00  0.90007702065E+02  0.89999962932E+02 0.  0.
        -12    1    1    2    0    0 -0.49406631399E+00 -0.55857621920E+00  0.91487392616E+00  0.11802979353E+01  0.00000000000E+00 0.  1.
         11    1    3    3    0    0 -0.11073236857E+02 -0.89552441161E+01 -0.47653112171E+01  0.15017362049E+02  0.51100000000E-03 0. -1.
        -11    1    3    3    0    0  0.19618264269E+01 -0.74282430624E+01  0.36322232235E+02  0.37125895446E+02  0.51100000000E-03 0.  1.
         12    1    3    3    0    0  0.96054767437E+01  0.16942063398E+02 -0.32471794944E+02  0.37864444569E+02  0.00000000000E+00 0. -1.
</event>
<event>
 7    1  0.3662489E-015  0.9000781E+02  0.7816164E-02  0.1186339E+00
        -11   -1    0    0    0    0  0.00000000000E+00  0.00000000000E+00  0.45593999997E+02  0.45594000000E+02  0.51100000000E-03 0. -1.
         11   -1    0    0    0    0 -0.00000000000E+00 -0.00000000000E+00 -0.45593999997E+02  0.45594000000E+02  0.51100000000E-03 0.  1.
    9900012    2    1    2    0    0  0.11572680037E+01  0.21754557560E+00 -0.79133241912E-01  0.90007806211E+02  0.90000068453E+02 0.  0.
        -12    1    1    2    0    0 -0.11572680037E+01 -0.21754557560E+00  0.79133241912E-01  0.11801937891E+01  0.00000000000E+00 0.  1.
         11    1    3    3    0    0 -0.21366282832E+02  0.32219240420E+02 -0.33471525684E+01  0.38804650828E+02  0.51100000000E-03 0. -1.
        -11    1    3    3    0    0  0.39294075114E+01  0.69128256387E+01  0.10095025220E+01  0.80153912758E+01  0.51100000000E-03 0.  1.
        -12    1    3    3    0    0  0.18594143325E+02 -0.38914520483E+02  0.22585168045E+01  0.43187764107E+02  0.00000000000E+00 0.  1.
</event>
<event>
 7    1  0.3662489E-015  0.9000773E+02  0.7816164E-02  0.1186339E+00
        -11   -1    0    0    0    0  0.00000000000E+00  0.00000000000E+00  0.45593999997E+02  0.45594000000E+02  0.51100000000E-03 0.  1.
         11   -1    0    0    0    0 -0.00000000000E+00 -0.00000000000E+00 -0.45593999997E+02  0.45594000000E+02  0.51100000000E-03 0. -1.
    9900012    2    1    2    0    0  0.11031464723E+01 -0.21467873962E+00 -0.36056716410E+00  0.90007734021E+02  0.89999995310E+02 0.  0.
        -12    1    1    2    0    0 -0.11031464723E+01  0.21467873962E+00  0.36056716410E+00  0.11802659787E+01  0.00000000000E+00 0.  1.
         11    1    3    3    0    0  0.27802884858E+02  0.24691556487E+02  0.92933983626E+01  0.38328065716E+02  0.51100000000E-03 0. -1.
        -11    1    3    3    0    0 -0.25791117835E+01  0.84990960769E+01 -0.50571687960E+01  0.10220636390E+02  0.51100000000E-03 0.  1.
        -12    1    3    3    0    0 -0.24120626602E+02 -0.33405331303E+02 -0.45967967307E+01  0.41459031915E+02  0.00000000000E+00 0.  1.
</event>
<event>
 7    1  0.3662489E-015  0.9000776E+02  0.7816164E-02  0.1186339E+00
        -11   -1    0    0    0    0  0.00000000000E+00  0.00000000000E+00  0.45593999997E+02  0.45594000000E+02  0.51100000000E-03 0. -1.
         11   -1    0    0    0    0 -0.00000000000E+00 -0.00000000000E+00 -0.45593999997E+02  0.45594000000E+02  0.51100000000E-03 0.  1.
    9900012    2    1    2    0    0 -0.98487761105E+00  0.28154239034E+00 -0.58626711414E+00  0.90007763094E+02  0.90000024766E+02 0.  0.
        -12    1    1    2    0    0  0.98487761105E+00 -0.28154239034E+00  0.58626711414E+00  0.11802369065E+01  0.00000000000E+00 0.  1.
         11    1    3    3    0    0  0.49168622746E+01  0.16365832036E+02 -0.52317887621E+01  0.17871418712E+02  0.51100000000E-03 0. -1.
        -11    1    3    3    0    0  0.29568606438E+02 -0.91639114421E+01  0.15201390233E+02  0.34487128395E+02  0.51100000000E-03 0.  1.
         12    1    3    3    0    0 -0.35470346324E+02 -0.69203782040E+01 -0.10555868585E+02  0.37649215987E+02  0.00000000000E+00 0. -1.
</event>
<event>
 7    1  0.3662489E-015  0.9000786E+02  0.7816164E-02  0.1186339E+00
        -11   -1    0    0    0    0  0.00000000000E+00  0.00000000000E+00  0.45593999997E+02  0.45594000000E+02  0.51100000000E-03 0.  1.
         11   -1    0    0    0    0 -0.00000000000E+00 -0.00000000000E+00 -0.45593999997E+02  0.45594000000E+02  0.51100000000E-03 0. -1.
    9900012    2    1    2    0    0 -0.54897751962E-01 -0.11775975582E+01 -0.54651798982E-01  0.90007857385E+02  0.90000120303E+02 0.  0.
        -12    1    1    2    0    0  0.54897751962E-01  0.11775975582E+01  0.54651798982E-01  0.11801426148E+01  0.00000000000E+00 0.  1.
         11    1    3    3    0    0 -0.75618570532E+01 -0.22775290525E+01  0.56260872728E+01  0.96964776563E+01  0.51100000000E-03 0. -1.
        -11    1    3    3    0    0  0.12161999197E+02 -0.18469419032E+02  0.31235031247E+02  0.38270887645E+02  0.51100000000E-03 0.  1.
         12    1    3    3    0    0 -0.46550398953E+01  0.19569350526E+02 -0.36915770319E+02  0.42040492084E+02  0.00000000000E+00 0. -1.
</event>
<event>
 7    1  0.3662489E-015  0.9000779E+02  0.7816164E-02  0.1186339E+00
        -11   -1    0    0    0    0  0.00000000000E+00  0.00000000000E+00  0.45593999997E+02  0.45594000000E+02  0.51100000000E-03 0. -1.
         11   -1    0    0    0    0 -0.00000000000E+00 -0.00000000000E+00 -0.45593999997E+02  0.45594000000E+02  0.51100000000E-03 0.  1.
    9900012    2    1    2    0    0  0.89256199356E+00 -0.58785243532E+00 -0.50066694891E+00  0.90007786125E+02  0.90000048101E+02 0.  0.
        -12    1    1    2    0    0 -0.89256199356E+00  0.58785243532E+00  0.50066694891E+00  0.11802138754E+01  0.00000000000E+00 0.  1.
         11    1    3    3    0    0 -0.99983369374E+01  0.80501929283E+00 -0.49847244121E+00  0.10043070876E+02  0.51100000000E-03 0. -1.
        -11    1    3    3    0    0 -0.32694626454E+02  0.10765783946E+02 -0.33921764367E+01  0.34588257605E+02  0.51100000000E-03 0.  1.
         12    1    3    3    0    0  0.43585525385E+02 -0.12158655674E+02  0.33899819290E+01  0.45376457644E+02  0.00000000000E+00 0. -1.
</event>
<event>
 7    1  0.3662489E-015  0.9000815E+02  0.7816164E-02  0.1186338E+00
        -11   -1    0    0    0    0  0.00000000000E+00  0.00000000000E+00  0.45593999997E+02  0.45594000000E+02  0.51100000000E-03 0.  1.
         11   -1    0    0    0    0 -0.00000000000E+00 -0.00000000000E+00 -0.45593999997E+02  0.45594000000E+02  0.51100000000E-03 0. -1.
    9900012    2    1    2    0    0 -0.25173157533E+00 -0.10922773632E+01 -0.36825363183E+00  0.90008148585E+02  0.90000415345E+02 0.  0.
        -12    1    1    2    0    0  0.25173157533E+00  0.10922773632E+01  0.36825363183E+00  0.11798514150E+01  0.00000000000E+00 0.  1.
         11    1    3    3    0    0  0.77368333592E+01 -0.14363532042E+02 -0.13072098310E+00  0.16315230044E+02  0.51100000000E-03 0. -1.
        -11    1    3    3    0    0 -0.61928448755E+01 -0.10539824333E+02  0.31607813247E+02  0.33889424355E+02  0.51100000000E-03 0.  1.
         12    1    3    3    0    0 -0.17957200590E+01  0.23811079012E+02 -0.31845345895E+02  0.39803494186E+02  0.00000000000E+00 0. -1.
</event>
<event>
 7    1  0.3662489E-015  0.9000784E+02  0.7816164E-02  0.1186339E+00
        -11   -1    0    0    0    0  0.00000000000E+00  0.00000000000E+00  0.45593999997E+02  0.45594000000E+02  0.51100000000E-03 0.  1.
         11   -1    0    0    0    0 -0.00000000000E+00 -0.00000000000E+00 -0.45593999997E+02  0.45594000000E+02  0.51100000000E-03 0. -1.
    9900012    2    1    2    0    0 -0.39341796901E+00 -0.10067831507E+01  0.47368759098E+00  0.90007843254E+02  0.90000105985E+02 0.  0.
        -12    1    1    2    0    0  0.39341796901E+00  0.10067831507E+01 -0.47368759098E+00  0.11801567458E+01  0.00000000000E+00 0.  1.
         11    1    3    3    0    0  0.30680533108E+01  0.10163757559E+02  0.35407551668E+01  0.11191598020E+02  0.51100000000E-03 0. -1.
        -11    1    3    3    0    0 -0.34221701765E+02 -0.96174262470E+01  0.19583310554E+02  0.40584797792E+02  0.51100000000E-03 0.  1.
         12    1    3    3    0    0  0.30760230486E+02 -0.15531144628E+01 -0.22650378130E+02  0.38231447442E+02  0.00000000000E+00 0. -1.
</event>
<event>
 7    1  0.3662489E-015  0.9000776E+02  0.7816164E-02  0.1186339E+00
        -11   -1    0    0    0    0  0.00000000000E+00  0.00000000000E+00  0.45593999997E+02  0.45594000000E+02  0.51100000000E-03 0. -1.
         11   -1    0    0    0    0 -0.00000000000E+00 -0.00000000000E+00 -0.45593999997E+02  0.45594000000E+02  0.51100000000E-03 0.  1.
    9900012    2    1    2    0    0  0.38213172894E+00  0.11351948509E+00  0.11108762361E+01  0.90007763861E+02  0.90000025544E+02 0.  0.
        -12    1    1    2    0    0 -0.38213172894E+00 -0.11351948509E+00 -0.11108762361E+01  0.11802361389E+01  0.00000000000E+00 0.  1.
         11    1    3    3    0    0  0.34290626861E+02  0.61220274469E+01 -0.22519689825E+02  0.41478461166E+02  0.51100000000E-03 0. -1.
        -11    1    3    3    0    0 -0.72591730999E+01 -0.92173614153E+01 -0.14146556539E+01  0.11817639207E+02  0.51100000000E-03 0.  1.
        -12    1    3    3    0    0 -0.26649322033E+02  0.32088534535E+01  0.25045221715E+02  0.36711663488E+02  0.00000000000E+00 0.  1.
</event>
<event>
 7    1  0.3662489E-015  0.9000763E+02  0.7816164E-02  0.1186339E+00
        -11   -1    0    0    0    0  0.00000000000E+00  0.00000000000E+00  0.45593999997E+02  0.45594000000E+02  0.51100000000E-03 0. -1.
         11   -1    0    0    0    0 -0.00000000000E+00 -0.00000000000E+00 -0.45593999997E+02  0.45594000000E+02  0.51100000000E-03 0.  1.
    9900012    2    1    2    0    0 -0.59990697430E+00 -0.33328014873E+00  0.96037137753E+00  0.90007628356E+02  0.89999888250E+02 0.  0.
        -12    1    1    2    0    0  0.59990697430E+00  0.33328014873E+00 -0.96037137753E+00  0.11803716441E+01  0.00000000000E+00 0.  1.
         11    1    3    3    0    0 -0.34810763895E+02 -0.20407894152E+02 -0.59463424313E+01  0.40787625761E+02  0.51100000000E-03 0. -1.
        -11    1    3    3    0    0  0.90979627629E+00 -0.29196551921E+00  0.10015579659E+02  0.10061054085E+02  0.51100000000E-03 0.  1.
        -12    1    3    3    0    0  0.33301060644E+02  0.20366579523E+02 -0.31088658506E+01  0.39158948509E+02  0.00000000000E+00 0.  1.
</event>
<event>
 7    1  0.3662489E-015  0.9000772E+02  0.7816164E-02  0.1186339E+00
        -11   -1    0    0    0    0  0.00000000000E+00  0.00000000000E+00  0.45593999997E+02  0.45594000000E+02  0.51100000000E-03 0.  1.
         11   -1    0    0    0    0 -0.00000000000E+00 -0.00000000000E+00 -0.45593999997E+02  0.45594000000E+02  0.51100000000E-03 0. -1.
    9900012    2    1    2    0    0  0.28406965326E+00  0.10560619633E+01 -0.44395522452E+00  0.90007720931E+02  0.89999982048E+02 0.  0.
        -12    1    1    2    0    0 -0.28406965326E+00 -0.10560619633E+01  0.44395522452E+00  0.11802790686E+01  0.00000000000E+00 0.  1.
         11    1    3    3    0    0  0.82116585297E+01 -0.52901655778E+01  0.21840093561E+01  0.10009349868E+02  0.51100000000E-03 0. -1.
        -11    1    3    3    0    0  0.24482126380E+02  0.24103927604E+02 -0.19355011904E+02  0.39433365620E+02  0.51100000000E-03 0.  1.
         12    1    3    3    0    0 -0.32409715256E+02 -0.17757700063E+02  0.16727047324E+02  0.40565005444E+02  0.00000000000E+00 0. -1.
</event>
<event>
 7    1  0.3662489E-015  0.9000764E+02  0.7816164E-02  0.1186339E+00
        -11   -1    0    0    0    0  0.00000000000E+00  0.00000000000E+00  0.45593999997E+02  0.45594000000E+02  0.51100000000E-03 0.  1.
         11   -1    0    0    0    0 -0.00000000000E+00 -0.00000000000E+00 -0.45593999997E+02  0.45594000000E+02  0.51100000000E-03 0. -1.
    9900012    2    1    2    0    0 -0.16108824636E+00 -0.11605590962E+01 -0.14286128017E+00  0.90007637266E+02  0.89999897278E+02 0.  0.
        -12    1    1    2    0    0  0.16108824636E+00  0.11605590962E+01  0.14286128017E+00  0.11803627342E+01  0.00000000000E+00 0.  1.
         11    1    3    3    0    0  0.24704713749E+02  0.12750422527E+02 -0.11264024987E+02  0.29996240018E+02  0.51100000000E-03 0. -1.
        -11    1    3    3    0    0  0.86808861130E+01 -0.77860132152E+01 -0.13583170803E+02  0.17902019853E+02  0.51100000000E-03 0.  1.
        -12    1    3    3    0    0 -0.33546688108E+02 -0.61249684082E+01  0.24704334510E+02  0.42109377395E+02  0.00000000000E+00 0.  1.
</event>
<event>
 7    1  0.3662489E-015  0.9000773E+02  0.7816164E-02  0.1186339E+00
        -11   -1    0    0    0    0  0.00000000000E+00  0.00000000000E+00  0.45593999997E+02  0.45594000000E+02  0.51100000000E-03 0.  1.
         11   -1    0    0    0    0 -0.00000000000E+00 -0.00000000000E+00 -0.45593999997E+02  0.45594000000E+02  0.51100000000E-03 0. -1.
    9900012    2    1    2    0    0  0.10528558176E+01 -0.50630588172E+00  0.16785333002E+00  0.90007734878E+02  0.89999996178E+02 0.  0.
        -12    1    1    2    0    0 -0.10528558176E+01  0.50630588172E+00 -0.16785333002E+00  0.11802651223E+01  0.00000000000E+00 0.  1.
         11    1    3    3    0    0 -0.21925471171E+01 -0.93529912909E+01 -0.29169369739E+01  0.10039632987E+02  0.51100000000E-03 0. -1.
        -11    1    3    3    0    0 -0.12535255679E+02  0.50058181662E+00  0.38399974996E+02  0.40397293189E+02  0.51100000000E-03 0.  1.
         12    1    3    3    0    0  0.15780658614E+02  0.83461035925E+01 -0.35315184692E+02  0.39570808701E+02  0.00000000000E+00 0. -1.
</event>
<event>
 7    1  0.3662489E-015  0.9000774E+02  0.7816164E-02  0.1186339E+00
        -11   -1    0    0    0    0  0.00000000000E+00  0.00000000000E+00  0.45593999997E+02  0.45594000000E+02  0.51100000000E-03 0.  1.
         11   -1    0    0    0    0 -0.00000000000E+00 -0.00000000000E+00 -0.45593999997E+02  0.45594000000E+02  0.51100000000E-03 0. -1.
    9900012    2    1    2    0    0  0.11108528435E+01 -0.34012486793E+00  0.20816586645E+00  0.90007740709E+02  0.90000002087E+02 0.  0.
        -12    1    1    2    0    0 -0.11108528435E+01  0.34012486793E+00 -0.20816586645E+00  0.11802592909E+01  0.00000000000E+00 0.  1.
         11    1    3    3    0    0 -0.32654851529E+02 -0.35065822158E+01 -0.24232804277E+02  0.40815000314E+02  0.51100000000E-03 0. -1.
        -11    1    3    3    0    0 -0.25124085807E+01 -0.38601147915E+01  0.68814106511E+01  0.82804888679E+01  0.51100000000E-03 0.  1.
        -12    1    3    3    0    0  0.36278112953E+02  0.70265721394E+01  0.17559559492E+02  0.40912251528E+02  0.00000000000E+00 0.  1.
</event>
<event>
 7    1  0.3662489E-015  0.9000775E+02  0.7816164E-02  0.1186339E+00
        -11   -1    0    0    0    0  0.00000000000E+00  0.00000000000E+00  0.45593999997E+02  0.45594000000E+02  0.51100000000E-03 0.  1.
         11   -1    0    0    0    0 -0.00000000000E+00 -0.00000000000E+00 -0.45593999997E+02  0.45594000000E+02  0.51100000000E-03 0. -1.
    9900012    2    1    2    0    0 -0.86947304413E+00 -0.79801943104E+00 -0.13120157441E-01  0.90007749804E+02  0.90000011301E+02 0.  0.
        -12    1    1    2    0    0  0.86947304413E+00  0.79801943104E+00  0.13120157441E-01  0.11802501961E+01  0.00000000000E+00 0.  1.
         11    1    3    3    0    0  0.13989154004E+02 -0.20624879512E+02  0.18844099510E+02  0.31243914148E+02  0.51100000000E-03 0. -1.
        -11    1    3    3    0    0 -0.61462400268E+01  0.19395274731E+00  0.16379975426E+02  0.17496213286E+02  0.51100000000E-03 0.  1.
        -12    1    3    3    0    0 -0.87123870219E+01  0.19632907334E+02 -0.35237195094E+02  0.41267622370E+02  0.00000000000E+00 0.  1.
</event>
<event>
 7    1  0.3662489E-015  0.9000749E+02  0.7816164E-02  0.1186340E+00
        -11   -1    0    0    0    0  0.00000000000E+00  0.00000000000E+00  0.45593999997E+02  0.45594000000E+02  0.51100000000E-03 0. -1.
         11   -1    0    0    0    0 -0.00000000000E+00 -0.00000000000E+00 -0.45593999997E+02  0.45594000000E+02  0.51100000000E-03 0.  1.
    9900012    2    1    2    0    0 -0.63101683088E+00  0.67240741514E+00 -0.73708749872E+00  0.90007486572E+02  0.89999744594E+02 0.  0.
        -12    1    1    2    0    0  0.63101683088E+00 -0.67240741514E+00  0.73708749872E+00  0.11805134279E+01  0.00000000000E+00 0.  1.
         11    1    3    3    0    0  0.30056651267E+02 -0.12795029050E+02  0.15609609194E+02  0.36204626130E+02  0.51100000000E-03 0. -1.
        -11    1    3    3    0    0  0.36912035669E+01  0.18866541261E+00  0.85585264394E+01  0.93224971700E+01  0.51100000000E-03 0.  1.
        -12    1    3    3    0    0 -0.34378871664E+02  0.13278771053E+02 -0.24905223132E+02  0.44480363272E+02  0.00000000000E+00 0.  1.
</event>
<event>
 7    1  0.3662489E-015  0.9000760E+02  0.7816164E-02  0.1186339E+00
        -11   -1    0    0    0    0  0.00000000000E+00  0.00000000000E+00  0.45593999997E+02  0.45594000000E+02  0.51100000000E-03 0.  1.
         11   -1    0    0    0    0 -0.00000000000E+00 -0.00000000000E+00 -0.45593999997E+02  0.45594000000E+02  0.51100000000E-03 0. -1.
    9900012    2    1    2    0    0 -0.13057975189E+00  0.46945797407E+00 -0.10751312783E+01  0.90007597896E+02  0.89999857388E+02 0.  0.
        -12    1    1    2    0    0  0.13057975189E+00 -0.46945797407E+00  0.10751312783E+01  0.11804021037E+01  0.00000000000E+00 0.  1.
         11    1    3    3    0    0 -0.36094266065E-01  0.97305341568E+01  0.59961338704E+01  0.11429707758E+02  0.51100000000E-03 0. -1.
        -11    1    3    3    0    0  0.25357378576E+01  0.30377032268E+01  0.34715081594E+02  0.34939869744E+02  0.51100000000E-03 0.  1.
         12    1    3    3    0    0 -0.26302233434E+01 -0.12298779410E+02 -0.41786346743E+02  0.43638020394E+02  0.00000000000E+00 0. -1.
</event>
<event>
 7    1  0.3662489E-015  0.9000767E+02  0.7816164E-02  0.1186339E+00
        -11   -1    0    0    0    0  0.00000000000E+00  0.00000000000E+00  0.45593999997E+02  0.45594000000E+02  0.51100000000E-03 0. -1.
         11   -1    0    0    0    0 -0.00000000000E+00 -0.00000000000E+00 -0.45593999997E+02  0.45594000000E+02  0.51100000000E-03 0.  1.
    9900012    2    1    2    0    0  0.10761287044E+01  0.42060431753E+00 -0.24129137771E+00  0.90007668475E+02  0.89999928899E+02 0.  0.
        -12    1    1    2    0    0 -0.10761287044E+01 -0.42060431753E+00  0.24129137771E+00  0.11803315252E+01  0.00000000000E+00 0.  1.
         11    1    3    3    0    0  0.15992906697E+02 -0.51785414521E+01  0.19939330483E+02  0.26080016422E+02  0.51100000000E-03 0. -1.
        -11    1    3    3    0    0 -0.19345082657E+02  0.63901822989E+01  0.16964262040E+02  0.26511371893E+02  0.51100000000E-03 0.  1.
        -12    1    3    3    0    0  0.44283046643E+01 -0.79103652923E+00 -0.37144883901E+02  0.37416280160E+02  0.00000000000E+00 0.  1.
</event>
<event>
 7    1  0.3662489E-015  0.9000770E+02  0.7816164E-02  0.1186339E+00
        -11   -1    0    0    0    0  0.00000000000E+00  0.00000000000E+00  0.45593999997E+02  0.45594000000E+02  0.51100000000E-03 0.  1.
         11   -1    0    0    0    0 -0.00000000000E+00 -0.00000000000E+00 -0.45593999997E+02  0.45594000000E+02  0.51100000000E-03 0. -1.
    9900012    2    1    2    0    0 -0.10725237440E+01 -0.48859924615E+00  0.63885858324E-01  0.90007695883E+02  0.89999956669E+02 0.  0.
        -12    1    1    2    0    0  0.10725237440E+01  0.48859924615E+00 -0.63885858324E-01  0.11803041166E+01  0.00000000000E+00 0.  1.
         11    1    3    3    0    0 -0.60035550267E+01 -0.58334861044E+01  0.65353100420E+01  0.10619911049E+02  0.51100000000E-03 0. -1.
        -11    1    3    3    0    0 -0.32383766344E+02 -0.14949826207E+02  0.32407213659E+01  0.35814911719E+02  0.51100000000E-03 0.  1.
         12    1    3    3    0    0  0.37314797626E+02  0.20294713065E+02 -0.97121455496E+01  0.43572873115E+02  0.00000000000E+00 0. -1.
</event>
<event>
 7    1  0.3662489E-015  0.9000750E+02  0.7816164E-02  0.1186340E+00
        -11   -1    0    0    0    0  0.00000000000E+00  0.00000000000E+00  0.45593999997E+02  0.45594000000E+02  0.51100000000E-03 0.  1.
         11   -1    0    0    0    0 -0.00000000000E+00 -0.00000000000E+00 -0.45593999997E+02  0.45594000000E+02  0.51100000000E-03 0. -1.
    9900012    2    1    2    0    0  0.53851332797E+00  0.12501595434E+00  0.10430526452E+01  0.90007498236E+02  0.89999756413E+02 0.  0.
        -12    1    1    2    0    0 -0.53851332797E+00 -0.12501595434E+00 -0.10430526452E+01  0.11805017637E+01  0.00000000000E+00 0.  1.
         11    1    3    3    0    0  0.45668061507E+01 -0.38647740150E+01 -0.80491783445E+01  0.10029031304E+02  0.51100000000E-03 0. -1.
        -11    1    3    3    0    0  0.29231629736E+02 -0.11142820938E+02  0.25077753158E+02  0.40094193335E+02  0.51100000000E-03 0.  1.
         12    1    3    3    0    0 -0.33259922558E+02  0.15132610907E+02 -0.15985522168E+02  0.39884273598E+02  0.00000000000E+00 0. -1.
</event>
<event>
 7    1  0.3662489E-015  0.9000762E+02  0.7816164E-02  0.1186339E+00
        -11   -1    0    0    0    0  0.00000000000E+00  0.00000000000E+00  0.45593999997E+02  0.45594000000E+02  0.51100000000E-03 0.  1.
         11   -1    0    0    0    0 -0.00000000000E+00 -0.00000000000E+00 -0.45593999997E+02  0.45594000000E+02  0.51100000000E-03 0. -1.
    9900012    2    1    2    0    0 -0.22240311762E-02  0.10811047535E+01  0.47382631011E+00  0.90007617093E+02  0.89999876839E+02 0.  0.
        -12    1    1    2    0    0  0.22240311762E-02 -0.10811047535E+01 -0.47382631011E+00  0.11803829067E+01  0.00000000000E+00 0.  1.
         11    1    3    3    0    0 -0.84748804440E+01  0.26053232924E+02 -0.29164669018E+02  0.40014653110E+02  0.51100000000E-03 0. -1.
        -11    1    3    3    0    0 -0.51446461475E+00  0.48740915980E+01 -0.22571220392E+01  0.53959283637E+01  0.51100000000E-03 0.  1.
        -12    1    3    3    0    0  0.89871210276E+01 -0.29846219769E+02  0.31895617367E+02  0.44597035620E+02  0.00000000000E+00 0.  1.
</event>
<event>
 7    1  0.3662489E-015  0.9000765E+02  0.7816164E-02  0.1186339E+00
        -11   -1    0    0    0    0  0.00000000000E+00  0.00000000000E+00  0.45593999997E+02  0.45594000000E+02  0.51100000000E-03 0. -1.
         11   -1    0    0    0    0 -0.00000000000E+00 -0.00000000000E+00 -0.45593999997E+02  0.45594000000E+02  0.51100000000E-03 0.  1.
    9900012    2    1    2    0    0 -0.79028487243E+00  0.87049235143E+00  0.10449828872E+00  0.90007649626E+02  0.89999909801E+02 0.  0.
        -12    1    1    2    0    0  0.79028487243E+00 -0.87049235143E+00 -0.10449828872E+00  0.11803503742E+01  0.00000000000E+00 0.  1.
         11    1    3    3    0    0 -0.47172684017E+00  0.93265769481E+01  0.32430947447E+01  0.98856070914E+01  0.51100000000E-03 0. -1.
        -11    1    3    3    0    0 -0.14456694769E+02  0.23978886031E+02 -0.25825323935E+02  0.38091079737E+02  0.51100000000E-03 0.  1.
         12    1    3    3    0    0  0.14138136736E+02 -0.32434970628E+02  0.22686727479E+02  0.42030962798E+02  0.00000000000E+00 0. -1.
</event>
<event>
 7    1  0.3662489E-015  0.9000691E+02  0.7816164E-02  0.1186341E+00
        -11   -1    0    0    0    0  0.00000000000E+00  0.00000000000E+00  0.45593999997E+02  0.45594000000E+02  0.51100000000E-03 0. -1.
         11   -1    0    0    0    0 -0.00000000000E+00 -0.00000000000E+00 -0.45593999997E+02  0.45594000000E+02  0.51100000000E-03 0.  1.
    9900012    2    1    2    0    0 -0.82515619718E+00 -0.84483216779E+00 -0.18421589770E-01  0.90006914272E+02  0.89999164737E+02 0.  0.
        -12    1    1    2    0    0  0.82515619718E+00  0.84483216779E+00  0.18421589770E-01  0.11810857278E+01  0.00000000000E+00 0.  1.
         11    1    3    3    0    0 -0.45119274417E+01  0.38392504801E+02  0.52443413135E+01  0.39010832216E+02  0.51100000000E-03 0. -1.
        -11    1    3    3    0    0  0.98991552034E+01  0.62693394770E+00 -0.38067394244E+01  0.10624386346E+02  0.51100000000E-03 0.  1.
        -12    1    3    3    0    0 -0.62123839589E+01 -0.39864270916E+02 -0.14560234788E+01  0.40371695710E+02  0.00000000000E+00 0.  1.
</event>
<event>
 7    1  0.3662489E-015  0.9000738E+02  0.7816164E-02  0.1186340E+00
        -11   -1    0    0    0    0  0.00000000000E+00  0.00000000000E+00  0.45593999997E+02  0.45594000000E+02  0.51100000000E-03 0.  1.
         11   -1    0    0    0    0 -0.00000000000E+00 -0.00000000000E+00 -0.45593999997E+02  0.45594000000E+02  0.51100000000E-03 0. -1.
    9900012    2    1    2    0    0  0.99690929304E+00  0.59803501753E+00 -0.20587123841E+00  0.90007382794E+02  0.89999639446E+02 0.  0.
        -12    1    1    2    0    0 -0.99690929304E+00 -0.59803501753E+00  0.20587123841E+00  0.11806172062E+01  0.00000000000E+00 0.  1.
         11    1    3    3    0    0  0.39800583734E+00  0.26764986993E+01  0.44674085114E+01  0.52230061270E+01  0.51100000000E-03 0. -1.
        -11    1    3    3    0    0  0.32501919395E+02  0.17915280062E+02  0.17562486806E+02  0.41058165657E+02  0.51100000000E-03 0.  1.
         12    1    3    3    0    0 -0.31903015939E+02 -0.19993743744E+02 -0.22235766556E+02  0.43726211010E+02  0.00000000000E+00 0. -1.
</event>
<event>
 7    1  0.3662489E-015  0.9000768E+02  0.7816164E-02  0.1186339E+00
        -11   -1    0    0    0    0  0.00000000000E+00  0.00000000000E+00  0.45593999997E+02  0.45594000000E+02  0.51100000000E-03 0.  1.
         11   -1    0    0    0    0 -0.00000000000E+00 -0.00000000000E+00 -0.45593999997E+02  0.45594000000E+02  0.51100000000E-03 0. -1.
    9900012    2    1    2    0    0  0.89594936995E+00  0.75255886537E+00  0.15522649509E+00  0.90007675729E+02  0.89999936249E+02 0.  0.
        -12    1    1    2    0    0 -0.89594936995E+00 -0.75255886537E+00 -0.15522649509E+00  0.11803242708E+01  0.00000000000E+00 0.  1.
         11    1    3    3    0    0  0.92079870611E+01 -0.31898459269E+01 -0.41268093545E+00  0.97535864465E+01  0.51100000000E-03 0. -1.
        -11    1    3    3    0    0  0.33673193938E+02  0.14766191827E+02 -0.19757005961E+01  0.36821567107E+02  0.51100000000E-03 0.  1.
         12    1    3    3    0    0 -0.41985231630E+02 -0.10823787035E+02  0.25436080266E+01  0.43432522176E+02  0.00000000000E+00 0. -1.
</event>
<event>
 7    1  0.3662489E-015  0.9000813E+02  0.7816164E-02  0.1186338E+00
        -11   -1    0    0    0    0  0.00000000000E+00  0.00000000000E+00  0.45593999997E+02  0.45594000000E+02  0.51100000000E-03 0.  1.
         11   -1    0    0    0    0 -0.00000000000E+00 -0.00000000000E+00 -0.45593999997E+02  0.45594000000E+02  0.51100000000E-03 0. -1.
    9900012    2    1    2    0    0  0.28927508288E+00 -0.10811530483E+00 -0.11387408388E+01  0.90008127257E+02  0.90000393735E+02 0.  0.
        -12    1    1    2    0    0 -0.28927508288E+00  0.10811530483E+00  0.11387408388E+01  0.11798727435E+01  0.00000000000E+00 0.  1.
         11    1    3    3    0    0  0.94607421537E+01 -0.34799392498E+02 -0.15018834820E+00  0.36062805175E+02  0.51100000000E-03 0. -1.
        -11    1    3    3    0    0  0.91932918110E+01  0.81508725479E+01  0.13771583578E+02  0.18455618444E+02  0.51100000000E-03 0.  1.
         12    1    3    3    0    0 -0.18364758882E+02  0.26540404645E+02 -0.14760136069E+02  0.35489703638E+02  0.00000000000E+00 0. -1.
</event>
<event>
 7    1  0.3662489E-015  0.9000774E+02  0.7816164E-02  0.1186339E+00
        -11   -1    0    0    0    0  0.00000000000E+00  0.00000000000E+00  0.45593999997E+02  0.45594000000E+02  0.51100000000E-03 0. -1.
         11   -1    0    0    0    0 -0.00000000000E+00 -0.00000000000E+00 -0.45593999997E+02  0.45594000000E+02  0.51100000000E-03 0.  1.
    9900012    2    1    2    0    0  0.25769527286E+00  0.23726217550E+00  0.11270837977E+01  0.90007738131E+02  0.89999999474E+02 0.  0.
        -12    1    1    2    0    0 -0.25769527286E+00 -0.23726217550E+00 -0.11270837977E+01  0.11802618695E+01  0.00000000000E+00 0.  1.
         11    1    3    3    0    0  0.20221809097E+02 -0.17569442580E+02  0.19077460634E+02  0.32887024496E+02  0.51100000000E-03 0. -1.
        -11    1    3    3    0    0 -0.57521068633E+01 -0.16018138158E+02 -0.20805555912E+01  0.17146317250E+02  0.51100000000E-03 0.  1.
        -12    1    3    3    0    0 -0.14212006960E+02  0.33824842913E+02 -0.15869821245E+02  0.39974396384E+02  0.00000000000E+00 0.  1.
</event>
<event>
 7    1  0.3662489E-015  0.9000773E+02  0.7816164E-02  0.1186339E+00
        -11   -1    0    0    0    0  0.00000000000E+00  0.00000000000E+00  0.45593999997E+02  0.45594000000E+02  0.51100000000E-03 0.  1.
         11   -1    0    0    0    0 -0.00000000000E+00 -0.00000000000E+00 -0.45593999997E+02  0.45594000000E+02  0.51100000000E-03 0. -1.
    9900012    2    1    2    0    0  0.63921802152E+00  0.75669236976E+00 -0.64175245642E+00  0.90007733404E+02  0.89999994685E+02 0.  0.
        -12    1    1    2    0    0 -0.63921802152E+00 -0.75669236976E+00  0.64175245642E+00  0.11802665957E+01  0.00000000000E+00 0.  1.
         11    1    3    3    0    0  0.13677306851E+02 -0.61465607826E+01 -0.38178841942E+02  0.41017958316E+02  0.51100000000E-03 0. -1.
        -11    1    3    3    0    0  0.54933898702E+01 -0.53517646013E+01  0.37110625678E+01  0.85200177380E+01  0.51100000000E-03 0.  1.
        -12    1    3    3    0    0 -0.18531478699E+02  0.12255017754E+02  0.33826026918E+02  0.40469757350E+02  0.00000000000E+00 0.  1.
</event>
<event>
 7    1  0.3662489E-015  0.9000754E+02  0.7816164E-02  0.1186339E+00
        -11   -1    0    0    0    0  0.00000000000E+00  0.00000000000E+00  0.45593999997E+02  0.45594000000E+02  0.51100000000E-03 0. -1.
         11   -1    0    0    0    0 -0.00000000000E+00 -0.00000000000E+00 -0.45593999997E+02  0.45594000000E+02  0.51100000000E-03 0.  1.
    9900012    2    1    2    0    0  0.10808216958E+01  0.46669385129E+00 -0.86643822584E-01  0.90007539988E+02  0.89999798715E+02 0.  0.
        -12    1    1    2    0    0 -0.10808216958E+01 -0.46669385129E+00  0.86643822584E-01  0.11804600125E+01  0.00000000000E+00 0.  1.
         11    1    3    3    0    0 -0.49969628425E+01  0.35485128948E+01  0.29963130193E+02  0.30583504584E+02  0.51100000000E-03 0. -1.
        -11    1    3    3    0    0 -0.10404058490E+02 -0.95189651175E+01  0.88779937307E+01  0.16663550129E+02  0.51100000000E-03 0.  1.
        -12    1    3    3    0    0  0.16481843028E+02  0.64371460741E+01 -0.38927767746E+02  0.42760485274E+02  0.00000000000E+00 0.  1.
</event>
<event>
 7    1  0.3662489E-015  0.9000716E+02  0.7816164E-02  0.1186340E+00
        -11   -1    0    0    0    0  0.00000000000E+00  0.00000000000E+00  0.45593999997E+02  0.45594000000E+02  0.51100000000E-03 0. -1.
         11   -1    0    0    0    0 -0.00000000000E+00 -0.00000000000E+00 -0.45593999997E+02  0.45594000000E+02  0.51100000000E-03 0.  1.
    9900012    2    1    2    0    0 -0.11379077329E+01 -0.21438552226E+00  0.23150074071E+00  0.90007158032E+02  0.89999411716E+02 0.  0.
        -12    1    1    2    0    0  0.11379077329E+01  0.21438552226E+00 -0.23150074071E+00  0.11808419682E+01  0.00000000000E+00 0.  1.
         11    1    3    3    0    0 -0.18745912484E+02  0.18122102627E+02  0.30812316635E+02  0.40363581298E+02  0.51100000000E-03 0. -1.
        -11    1    3    3    0    0  0.54436019194E+01  0.61738964497E+01  0.48500726531E+00  0.82453036049E+01  0.51100000000E-03 0.  1.
        -12    1    3    3    0    0  0.12164402832E+02 -0.24510384599E+02 -0.31065823160E+02  0.41398273129E+02  0.00000000000E+00 0.  1.
</event>
<event>
 7    1  0.3662489E-015  0.9000781E+02  0.7816164E-02  0.1186339E+00
        -11   -1    0    0    0    0  0.00000000000E+00  0.00000000000E+00  0.45593999997E+02  0.45594000000E+02  0.51100000000E-03 0.  1.
         11   -1    0    0    0    0 -0.00000000000E+00 -0.00000000000E+00 -0.45593999997E+02  0.45594000000E+02  0.51100000000E-03 0. -1.
    9900012    2    1    2    0    0  0.24339978619E-01  0.11457578989E+01  0.28196032500E+00  0.90007807125E+02  0.90000069379E+02 0.  0.
        -12    1    1    2    0    0 -0.24339978619E-01 -0.11457578989E+01 -0.28196032500E+00  0.11801928750E+01  0.00000000000E+00 0.  1.
         11    1    3    3    0    0 -0.24313482320E+02  0.72848256848E+01  0.52573879782E+00  0.25386817629E+02  0.51100000000E-03 0. -1.
        -11    1    3    3    0    0 -0.76515819293E+01 -0.79644282614E+01  0.22678250027E+02  0.25224627809E+02  0.51100000000E-03 0.  1.
        -12    1    3    3    0    0  0.31989404228E+02  0.18253604755E+01 -0.22922028499E+02  0.39396361688E+02  0.00000000000E+00 0.  1.
</event>
<event>
 7    1  0.3662489E-015  0.9000729E+02  0.7816164E-02  0.1186340E+00
        -11   -1    0    0    0    0  0.00000000000E+00  0.00000000000E+00  0.45593999997E+02  0.45594000000E+02  0.51100000000E-03 0.  1.
         11   -1    0    0    0    0 -0.00000000000E+00 -0.00000000000E+00 -0.45593999997E+02  0.45594000000E+02  0.51100000000E-03 0. -1.
    9900012    2    1    2    0    0 -0.40979126741E+00 -0.78816416396E+00 -0.77778405156E+00  0.90007288493E+02  0.89999543900E+02 0.  0.
        -12    1    1    2    0    0  0.40979126741E+00  0.78816416396E+00  0.77778405156E+00  0.11807115071E+01  0.00000000000E+00 0.  1.
         11    1    3    3    0    0  0.66413678693E+01  0.29980901575E+01 -0.38303687279E+02  0.38990624145E+02  0.51100000000E-03 0. -1.
        -11    1    3    3    0    0 -0.12835960380E+01  0.74738460327E+01 -0.33039063900E+01  0.82717465511E+01  0.51100000000E-03 0.  1.
        -12    1    3    3    0    0 -0.57675630987E+01 -0.11260100354E+02  0.40829809617E+02  0.42744917797E+02  0.00000000000E+00 0.  1.
</event>
<event>
 7    1  0.3662489E-015  0.9000775E+02  0.7816164E-02  0.1186339E+00
        -11   -1    0    0    0    0  0.00000000000E+00  0.00000000000E+00  0.45593999997E+02  0.45594000000E+02  0.51100000000E-03 0.  1.
         11   -1    0    0    0    0 -0.00000000000E+00 -0.00000000000E+00 -0.45593999997E+02  0.45594000000E+02  0.51100000000E-03 0. -1.
    9900012    2    1    2    0    0 -0.10241523749E+01 -0.52040786328E-01 -0.58429307818E+00  0.90007748022E+02  0.90000009496E+02 0.  0.
        -12    1    1    2    0    0  0.10241523749E+01  0.52040786328E-01  0.58429307818E+00  0.11802519780E+01  0.00000000000E+00 0.  1.
         11    1    3    3    0    0 -0.63992121450E+00 -0.15772229538E+01 -0.10918378082E+02  0.11050253916E+02  0.51100000000E-03 0. -1.
        -11    1    3    3    0    0 -0.16202988185E+02 -0.22419811634E+02  0.32512635777E+02  0.42687893662E+02  0.51100000000E-03 0.  1.
         12    1    3    3    0    0  0.15818757025E+02  0.23944993801E+02 -0.22178550774E+02  0.36269600444E+02  0.00000000000E+00 0. -1.
</event>
<event>
 7    1  0.3662489E-015  0.9000777E+02  0.7816164E-02  0.1186339E+00
        -11   -1    0    0    0    0  0.00000000000E+00  0.00000000000E+00  0.45593999997E+02  0.45594000000E+02  0.51100000000E-03 0. -1.
         11   -1    0    0    0    0 -0.00000000000E+00 -0.00000000000E+00 -0.45593999997E+02  0.45594000000E+02  0.51100000000E-03 0.  1.
    9900012    2    1    2    0    0 -0.10545624684E+01 -0.28782531388E+00  0.44496318578E+00  0.90007772205E+02  0.90000033998E+02 0.  0.
        -12    1    1    2    0    0  0.10545624684E+01  0.28782531388E+00 -0.44496318578E+00  0.11802277949E+01  0.00000000000E+00 0.  1.
         11    1    3    3    0    0  0.34122898456E+01 -0.81906635533E+01 -0.43534919591E+01  0.98835005910E+01  0.51100000000E-03 0. -1.
        -11    1    3    3    0    0  0.31492420250E+02  0.15766055692E+02 -0.15056334935E+02  0.38301883338E+02  0.51100000000E-03 0.  1.
         12    1    3    3    0    0 -0.35959272564E+02 -0.78632174524E+01  0.19854790080E+02  0.41822388276E+02  0.00000000000E+00 0. -1.
</event>
<event>
 7    1  0.3662489E-015  0.9000774E+02  0.7816164E-02  0.1186339E+00
        -11   -1    0    0    0    0  0.00000000000E+00  0.00000000000E+00  0.45593999997E+02  0.45594000000E+02  0.51100000000E-03 0.  1.
         11   -1    0    0    0    0 -0.00000000000E+00 -0.00000000000E+00 -0.45593999997E+02  0.45594000000E+02  0.51100000000E-03 0. -1.
    9900012    2    1    2    0    0  0.11548703026E+01  0.23514392978E+00  0.63254423852E-01  0.90007737654E+02  0.89999998991E+02 0.  0.
        -12    1    1    2    0    0 -0.11548703026E+01 -0.23514392978E+00 -0.63254423852E-01  0.11802623462E+01  0.00000000000E+00 0.  1.
         11    1    3    3    0    0 -0.22079826501E+02 -0.74834186341E+01 -0.35108464318E+02  0.42144092822E+02  0.51100000000E-03 0. -1.
        -11    1    3    3    0    0 -0.14446788755E+01 -0.40526064787E+01  0.16578517806E+01  0.46107688201E+01  0.51100000000E-03 0.  1.
        -12    1    3    3    0    0  0.24679375679E+02  0.11771169043E+02  0.33513866962E+02  0.43252876011E+02  0.00000000000E+00 0.  1.
</event>
<event>
 7    1  0.3662489E-015  0.9000772E+02  0.7816164E-02  0.1186339E+00
        -11   -1    0    0    0    0  0.00000000000E+00  0.00000000000E+00  0.45593999997E+02  0.45594000000E+02  0.51100000000E-03 0.  1.
         11   -1    0    0    0    0 -0.00000000000E+00 -0.00000000000E+00 -0.45593999997E+02  0.45594000000E+02  0.51100000000E-03 0. -1.
    9900012    2    1    2    0    0 -0.47806547745E+00  0.10425556470E+01  0.27856038053E+00  0.90007718354E+02  0.89999979436E+02 0.  0.
        -12    1    1    2    0    0  0.47806547745E+00 -0.10425556470E+01 -0.27856038053E+00  0.11802816458E+01  0.00000000000E+00 0.  1.
         11    1    3    3    0    0  0.16522215461E+02  0.26703266362E+02 -0.21606489421E+02  0.38116773519E+02  0.51100000000E-03 0. -1.
        -11    1    3    3    0    0  0.92586822586E+01 -0.36152530604E+01 -0.19565653137E+01  0.10130222107E+02  0.51100000000E-03 0.  1.
        -12    1    3    3    0    0 -0.26258963197E+02 -0.22045457655E+02  0.23841615115E+02  0.41760722727E+02  0.00000000000E+00 0.  1.
</event>
<event>
 7    1  0.3662489E-015  0.9000778E+02  0.7816164E-02  0.1186339E+00
        -11   -1    0    0    0    0  0.00000000000E+00  0.00000000000E+00  0.45593999997E+02  0.45594000000E+02  0.51100000000E-03 0. -1.
         11   -1    0    0    0    0 -0.00000000000E+00 -0.00000000000E+00 -0.45593999997E+02  0.45594000000E+02  0.51100000000E-03 0.  1.
    9900012    2    1    2    0    0  0.37643060573E+00 -0.35134847983E+00  0.10619669463E+01  0.90007779872E+02  0.90000041766E+02 0.  0.
        -12    1    1    2    0    0 -0.37643060573E+00  0.35134847983E+00 -0.10619669463E+01  0.11802201279E+01  0.00000000000E+00 0.  1.
         11    1    3    3    0    0 -0.55103957710E+00 -0.33715684871E+02 -0.82629169121E+01  0.34717817430E+02  0.51100000000E-03 0. -1.
        -11    1    3    3    0    0  0.13943126209E+02 -0.27724580141E+01 -0.37739581380E+01  0.14708502718E+02  0.51100000000E-03 0.  1.
        -12    1    3    3    0    0 -0.13015656026E+02  0.36136794405E+02  0.13098841997E+02  0.40581459724E+02  0.00000000000E+00 0.  1.
</event>
<event>
 7    1  0.3662489E-015  0.9000772E+02  0.7816164E-02  0.1186339E+00
        -11   -1    0    0    0    0  0.00000000000E+00  0.00000000000E+00  0.45593999997E+02  0.45594000000E+02  0.51100000000E-03 0.  1.
         11   -1    0    0    0    0 -0.00000000000E+00 -0.00000000000E+00 -0.45593999997E+02  0.45594000000E+02  0.51100000000E-03 0. -1.
    9900012    2    1    2    0    0  0.30140995299E+00 -0.11406132623E+01  0.34721507678E-01  0.90007723695E+02  0.89999984847E+02 0.  0.
        -12    1    1    2    0    0 -0.30140995299E+00  0.11406132623E+01 -0.34721507678E-01  0.11802763054E+01  0.00000000000E+00 0.  1.
         11    1    3    3    0    0  0.42538209340E+01 -0.24802189162E+02  0.27563906038E+02  0.37323082618E+02  0.51100000000E-03 0. -1.
        -11    1    3    3    0    0 -0.74145195427E+01 -0.89937758540E+01 -0.41448345804E+01  0.12371045151E+02  0.51100000000E-03 0.  1.
        -12    1    3    3    0    0  0.34621085616E+01  0.32655351754E+02 -0.23384349950E+02  0.40313595926E+02  0.00000000000E+00 0.  1.
</event>
<event>
 7    1  0.3662489E-015  0.9000773E+02  0.7816164E-02  0.1186339E+00
        -11   -1    0    0    0    0  0.00000000000E+00  0.00000000000E+00  0.45593999997E+02  0.45594000000E+02  0.51100000000E-03 0.  1.
         11   -1    0    0    0    0 -0.00000000000E+00 -0.00000000000E+00 -0.45593999997E+02  0.45594000000E+02  0.51100000000E-03 0. -1.
    9900012    2    1    2    0    0 -0.59867800737E+00 -0.99073745803E+00 -0.23033715528E+00  0.90007732542E+02  0.89999993812E+02 0.  0.
        -12    1    1    2    0    0  0.59867800737E+00  0.99073745803E+00  0.23033715528E+00  0.11802674580E+01  0.00000000000E+00 0.  1.
         11    1    3    3    0    0 -0.98296761305E+01  0.31833007299E+01  0.74216230299E+01  0.12721494607E+02  0.51100000000E-03 0. -1.
        -11    1    3    3    0    0 -0.12587757830E+02 -0.33090947849E+02  0.10279177970E+02  0.36866298658E+02  0.51100000000E-03 0.  1.
         12    1    3    3    0    0  0.21818755953E+02  0.28916909661E+02 -0.17931138156E+02  0.40419939278E+02  0.00000000000E+00 0. -1.
</event>
<event>
 7    1  0.3662489E-015  0.9000772E+02  0.7816164E-02  0.1186339E+00
        -11   -1    0    0    0    0  0.00000000000E+00  0.00000000000E+00  0.45593999997E+02  0.45594000000E+02  0.51100000000E-03 0. -1.
         11   -1    0    0    0    0 -0.00000000000E+00 -0.00000000000E+00 -0.45593999997E+02  0.45594000000E+02  0.51100000000E-03 0.  1.
    9900012    2    1    2    0    0 -0.76296839380E+00  0.25115155072E+00 -0.86479746055E+00  0.90007715069E+02  0.89999976108E+02 0.  0.
        -12    1    1    2    0    0  0.76296839380E+00 -0.25115155072E+00  0.86479746055E+00  0.11802849313E+01  0.00000000000E+00 0.  1.
         11    1    3    3    0    0  0.81534085592E+01 -0.57086962367E+01 -0.29554204699E+01  0.10382764289E+02  0.51100000000E-03 0. -1.
        -11    1    3    3    0    0 -0.42939583126E+01 -0.29873801204E+02 -0.20980323147E+02  0.36756714162E+02  0.51100000000E-03 0.  1.
         12    1    3    3    0    0 -0.46224186404E+01  0.35833648992E+02  0.23070946156E+02  0.42868236618E+02  0.00000000000E+00 0. -1.
</event>
<event>
 7    1  0.3662489E-015  0.9000708E+02  0.7816164E-02  0.1186340E+00
        -11   -1    0    0    0    0  0.00000000000E+00  0.00000000000E+00  0.45593999997E+02  0.45594000000E+02  0.51100000000E-03 0. -1.
         11   -1    0    0    0    0 -0.00000000000E+00 -0.00000000000E+00 -0.45593999997E+02  0.45594000000E+02  0.51100000000E-03 0.  1.
    9900012    2    1    2    0    0  0.50047517832E+00  0.11936330882E+00  0.10629395804E+01  0.90007083595E+02  0.89999336296E+02 0.  0.
        -12    1    1    2    0    0 -0.50047517832E+00 -0.11936330882E+00 -0.10629395804E+01  0.11809164048E+01  0.00000000000E+00 0.  1.
         11    1    3    3    0    0  0.61660849350E+01 -0.28387159225E+01  0.46372226354E+01  0.82208725538E+01  0.51100000000E-03 0. -1.
        -11    1    3    3    0    0  0.32208841757E+02 -0.14039266242E+02 -0.15778440751E+02  0.38515836700E+02  0.51100000000E-03 0.  1.
         12    1    3    3    0    0 -0.37874451513E+02  0.16997345473E+02  0.12204157696E+02  0.43270374341E+02  0.00000000000E+00 0. -1.
</event>
<event>
 7    1  0.3662489E-015  0.9000785E+02  0.7816164E-02  0.1186339E+00
        -11   -1    0    0    0    0  0.00000000000E+00  0.00000000000E+00  0.45593999997E+02  0.45594000000E+02  0.51100000000E-03 0.  1.
         11   -1    0    0    0    0 -0.00000000000E+00 -0.00000000000E+00 -0.45593999997E+02  0.45594000000E+02  0.51100000000E-03 0. -1.
    9900012    2    1    2    0    0  0.19517699043E+00 -0.11059898771E+01  0.36256610236E+00  0.90007846686E+02  0.90000109462E+02 0.  0.
        -12    1    1    2    0    0 -0.19517699043E+00  0.11059898771E+01 -0.36256610236E+00  0.11801533140E+01  0.00000000000E+00 0.  1.
         11    1    3    3    0    0  0.12233246526E+02 -0.15523280304E+02 -0.35669346840E+02  0.40779000187E+02  0.51100000000E-03 0. -1.
        -11    1    3    3    0    0  0.39941549648E+01  0.74804644269E+01 -0.74640619000E+00  0.85127988574E+01  0.51100000000E-03 0.  1.
        -12    1    3    3    0    0 -0.16032224500E+02  0.69368260000E+01  0.36778319132E+02  0.40716047642E+02  0.00000000000E+00 0.  1.
</event>
<event>
 7    1  0.3662489E-015  0.9000778E+02  0.7816164E-02  0.1186339E+00
        -11   -1    0    0    0    0  0.00000000000E+00  0.00000000000E+00  0.45593999997E+02  0.45594000000E+02  0.51100000000E-03 0.  1.
         11   -1    0    0    0    0 -0.00000000000E+00 -0.00000000000E+00 -0.45593999997E+02  0.45594000000E+02  0.51100000000E-03 0. -1.
    9900012    2    1    2    0    0 -0.38865286556E+00 -0.85595107628E+00 -0.71359966777E+00  0.90007776385E+02  0.90000038234E+02 0.  0.
        -12    1    1    2    0    0  0.38865286556E+00  0.85595107628E+00  0.71359966777E+00  0.11802236147E+01  0.00000000000E+00 0.  1.
         11    1    3    3    0    0 -0.79612015811E+01  0.32612944710E+02 -0.92440818564E+01  0.34820079593E+02  0.51100000000E-03 0. -1.
        -11    1    3    3    0    0 -0.58073256367E+01  0.73597875316E+01 -0.43475978888E+01  0.10334075248E+02  0.51100000000E-03 0.  1.
        -12    1    3    3    0    0  0.13379874352E+02 -0.40828683318E+02  0.12878080077E+02  0.44853621544E+02  0.00000000000E+00 0.  1.
</event>
<event>
 7    1  0.3662489E-015  0.9000779E+02  0.7816164E-02  0.1186339E+00
        -11   -1    0    0    0    0  0.00000000000E+00  0.00000000000E+00  0.45593999997E+02  0.45594000000E+02  0.51100000000E-03 0. -1.
         11   -1    0    0    0    0 -0.00000000000E+00 -0.00000000000E+00 -0.45593999997E+02  0.45594000000E+02  0.51100000000E-03 0.  1.
    9900012    2    1    2    0    0  0.10922729020E+01  0.15526818874E+00 -0.41919434303E+00  0.90007791459E+02  0.90000053506E+02 0.  0.
        -12    1    1    2    0    0 -0.10922729020E+01 -0.15526818874E+00  0.41919434303E+00  0.11802085410E+01  0.00000000000E+00 0.  1.
         11    1    3    3    0    0  0.96721676023E+00  0.69645260194E+01 -0.69702978340E+01  0.99007667931E+01  0.51100000000E-03 0. -1.
        -11    1    3    3    0    0  0.17624887511E+02  0.13235657885E+02 -0.28544851396E+02  0.36064218291E+02  0.51100000000E-03 0.  1.
         12    1    3    3    0    0 -0.17499831370E+02 -0.20044915716E+02  0.35095954887E+02  0.44042806375E+02  0.00000000000E+00 0. -1.
</event>
<event>
 7    1  0.3662489E-015  0.9000769E+02  0.7816164E-02  0.1186339E+00
        -11   -1    0    0    0    0  0.00000000000E+00  0.00000000000E+00  0.45593999997E+02  0.45594000000E+02  0.51100000000E-03 0.  1.
         11   -1    0    0    0    0 -0.00000000000E+00 -0.00000000000E+00 -0.45593999997E+02  0.45594000000E+02  0.51100000000E-03 0. -1.
    9900012    2    1    2    0    0  0.47743522730E+00  0.47003479768E+00 -0.97173169960E+00  0.90007686650E+02  0.89999947314E+02 0.  0.
        -12    1    1    2    0    0 -0.47743522730E+00 -0.47003479768E+00  0.97173169960E+00  0.11803133496E+01  0.00000000000E+00 0.  1.
         11    1    3    3    0    0  0.24493724588E+01 -0.32836291746E+01 -0.10248121831E+02  0.11036559578E+02  0.51100000000E-03 0. -1.
        -11    1    3    3    0    0 -0.22702970498E+02 -0.30716678822E+02  0.41088854737E+01  0.38416430956E+02  0.51100000000E-03 0.  1.
         12    1    3    3    0    0  0.20731033267E+02  0.34470342794E+02  0.51675046580E+01  0.40554696116E+02  0.00000000000E+00 0. -1.
</event>
<event>
 7    1  0.3662489E-015  0.9000796E+02  0.7816164E-02  0.1186339E+00
        -11   -1    0    0    0    0  0.00000000000E+00  0.00000000000E+00  0.45593999997E+02  0.45594000000E+02  0.51100000000E-03 0. -1.
         11   -1    0    0    0    0 -0.00000000000E+00 -0.00000000000E+00 -0.45593999997E+02  0.45594000000E+02  0.51100000000E-03 0.  1.
    9900012    2    1    2    0    0 -0.11315724394E+01  0.28136874229E+00  0.18133147794E+00  0.90007955230E+02  0.90000219439E+02 0.  0.
        -12    1    1    2    0    0  0.11315724394E+01 -0.28136874229E+00 -0.18133147794E+00  0.11800447702E+01  0.00000000000E+00 0.  1.
         11    1    3    3    0    0  0.77480893966E+00  0.87833930258E+01 -0.17350381432E+00  0.88192077747E+01  0.51100000000E-03 0. -1.
        -11    1    3    3    0    0 -0.33228280248E+02 -0.23064493823E+02 -0.15325495692E+02  0.43254598623E+02  0.51100000000E-03 0.  1.
         12    1    3    3    0    0  0.31321898869E+02  0.14562469539E+02  0.15680330984E+02  0.37934148832E+02  0.00000000000E+00 0. -1.
</event>
<event>
 7    1  0.3662489E-015  0.9000780E+02  0.7816164E-02  0.1186339E+00
        -11   -1    0    0    0    0  0.00000000000E+00  0.00000000000E+00  0.45593999997E+02  0.45594000000E+02  0.51100000000E-03 0. -1.
         11   -1    0    0    0    0 -0.00000000000E+00 -0.00000000000E+00 -0.45593999997E+02  0.45594000000E+02  0.51100000000E-03 0.  1.
    9900012    2    1    2    0    0 -0.11792400541E+01  0.19630150169E-02  0.47554198463E-01  0.90007799864E+02  0.90000062022E+02 0.  0.
        -12    1    1    2    0    0  0.11792400541E+01 -0.19630150169E-02 -0.47554198463E-01  0.11802001358E+01  0.00000000000E+00 0.  1.
         11    1    3    3    0    0 -0.31385840970E+02 -0.14409594189E+01 -0.15119966648E+02  0.34867761172E+02  0.51100000000E-03 0. -1.
        -11    1    3    3    0    0 -0.11153068924E+02 -0.99885027467E+00  0.57071242770E+00  0.11212241579E+02  0.51100000000E-03 0.  1.
        -12    1    3    3    0    0  0.41359669840E+02  0.24417727086E+01  0.14596808419E+02  0.43927797113E+02  0.00000000000E+00 0.  1.
</event>
<event>
 7    1  0.3662489E-015  0.9000780E+02  0.7816164E-02  0.1186339E+00
        -11   -1    0    0    0    0  0.00000000000E+00  0.00000000000E+00  0.45593999997E+02  0.45594000000E+02  0.51100000000E-03 0.  1.
         11   -1    0    0    0    0 -0.00000000000E+00 -0.00000000000E+00 -0.45593999997E+02  0.45594000000E+02  0.51100000000E-03 0. -1.
    9900012    2    1    2    0    0  0.53515840551E+00  0.70700210462E+00 -0.77886370328E+00  0.90007798677E+02  0.90000060819E+02 0.  0.
        -12    1    1    2    0    0 -0.53515840551E+00 -0.70700210462E+00  0.77886370328E+00  0.11802013232E+01  0.00000000000E+00 0.  1.
         11    1    3    3    0    0 -0.46234595253E+01  0.26556694170E+01 -0.73669117880E+01  0.90939731464E+01  0.51100000000E-03 0. -1.
        -11    1    3    3    0    0  0.32396365802E+02  0.59437643179E+01  0.29684753577E+02  0.44340020824E+02  0.51100000000E-03 0.  1.
         12    1    3    3    0    0 -0.27237747871E+02 -0.78924316303E+01 -0.23096705492E+02  0.36573804707E+02  0.00000000000E+00 0. -1.
</event>
<event>
 7    1  0.3662489E-015  0.9000771E+02  0.7816164E-02  0.1186339E+00
        -11   -1    0    0    0    0  0.00000000000E+00  0.00000000000E+00  0.45593999997E+02  0.45594000000E+02  0.51100000000E-03 0. -1.
         11   -1    0    0    0    0 -0.00000000000E+00 -0.00000000000E+00 -0.45593999997E+02  0.45594000000E+02  0.51100000000E-03 0.  1.
    9900012    2    1    2    0    0  0.47826067539E+00  0.87087167453E+00  0.63712665097E+00  0.90007711427E+02  0.89999972417E+02 0.  0.
        -12    1    1    2    0    0 -0.47826067539E+00 -0.87087167453E+00 -0.63712665097E+00  0.11802885734E+01  0.00000000000E+00 0.  1.
         11    1    3    3    0    0 -0.73518130667E+01 -0.32686994735E+01 -0.48625970463E+01  0.94009787741E+01  0.51100000000E-03 0. -1.
        -11    1    3    3    0    0  0.20117122717E+02 -0.32768439300E+02  0.13761944038E+02  0.40839445938E+02  0.51100000000E-03 0.  1.
         12    1    3    3    0    0 -0.12287048974E+02  0.36908010448E+02 -0.82622203407E+01  0.39767286715E+02  0.00000000000E+00 0. -1.
</event>
<event>
 7    1  0.3662489E-015  0.9000776E+02  0.7816164E-02  0.1186339E+00
        -11   -1    0    0    0    0  0.00000000000E+00  0.00000000000E+00  0.45593999997E+02  0.45594000000E+02  0.51100000000E-03 0.  1.
         11   -1    0    0    0    0 -0.00000000000E+00 -0.00000000000E+00 -0.45593999997E+02  0.45594000000E+02  0.51100000000E-03 0. -1.
    9900012    2    1    2    0    0  0.77535447260E+00  0.13704710855E+00 -0.87921297140E+00  0.90007757687E+02  0.90000019289E+02 0.  0.
        -12    1    1    2    0    0 -0.77535447260E+00 -0.13704710855E+00  0.87921297140E+00  0.11802423129E+01  0.00000000000E+00 0.  1.
         11    1    3    3    0    0  0.10138927122E+01  0.44625694252E+01  0.95866059649E+01  0.10622877129E+02  0.51100000000E-03 0. -1.
        -11    1    3    3    0    0  0.36474042053E+02 -0.49048517208E+01  0.89148299654E+01  0.37866707114E+02  0.51100000000E-03 0.  1.
         12    1    3    3    0    0 -0.36712580293E+02  0.57932940413E+00 -0.19380648902E+02  0.41518173444E+02  0.00000000000E+00 0. -1.
</event>
<event>
 7    1  0.3662489E-015  0.9000667E+02  0.7816164E-02  0.1186341E+00
        -11   -1    0    0    0    0  0.00000000000E+00  0.00000000000E+00  0.45593999997E+02  0.45594000000E+02  0.51100000000E-03 0. -1.
         11   -1    0    0    0    0 -0.00000000000E+00 -0.00000000000E+00 -0.45593999997E+02  0.45594000000E+02  0.51100000000E-03 0.  1.
    9900012    2    1    2    0    0 -0.54710998802E+00  0.98378487072E+00  0.35830718696E+00  0.90006667680E+02  0.89998914886E+02 0.  0.
        -12    1    1    2    0    0  0.54710998802E+00 -0.98378487072E+00 -0.35830718696E+00  0.11813323203E+01  0.00000000000E+00 0.  1.
         11    1    3    3    0    0  0.24606820339E+02  0.91997772002E+01  0.28352904921E+02  0.38652538409E+02  0.51100000000E-03 0. -1.
        -11    1    3    3    0    0  0.74505767422E+01  0.37154691382E+01 -0.58134669318E+01  0.10154417893E+02  0.51100000000E-03 0.  1.
        -12    1    3    3    0    0 -0.32604507069E+02 -0.11931461468E+02 -0.22181130802E+02  0.41199711378E+02  0.00000000000E+00 0.  1.
</event>
<event>
 7    1  0.3662489E-015  0.9000783E+02  0.7816164E-02  0.1186339E+00
        -11   -1    0    0    0    0  0.00000000000E+00  0.00000000000E+00  0.45593999997E+02  0.45594000000E+02  0.51100000000E-03 0.  1.
         11   -1    0    0    0    0 -0.00000000000E+00 -0.00000000000E+00 -0.45593999997E+02  0.45594000000E+02  0.51100000000E-03 0. -1.
    9900012    2    1    2    0    0  0.10060034938E+01  0.54389989567E+00  0.29142630806E+00  0.90007830767E+02  0.90000093333E+02 0.  0.
        -12    1    1    2    0    0 -0.10060034938E+01 -0.54389989567E+00 -0.29142630806E+00  0.11801692333E+01  0.00000000000E+00 0.  1.
         11    1    3    3    0    0 -0.28580055492E+02 -0.15652540932E+01 -0.17947224785E+02  0.33784204446E+02  0.51100000000E-03 0. -1.
        -11    1    3    3    0    0 -0.85240391228E+01 -0.36998498637E+01 -0.56466830657E+01  0.10873507341E+02  0.51100000000E-03 0.  1.
        -12    1    3    3    0    0  0.38110098109E+02  0.58090038526E+01  0.23885334159E+02  0.45350118980E+02  0.00000000000E+00 0.  1.
</event>
<event>
 7    1  0.3662489E-015  0.9000771E+02  0.7816164E-02  0.1186339E+00
        -11   -1    0    0    0    0  0.00000000000E+00  0.00000000000E+00  0.45593999997E+02  0.45594000000E+02  0.51100000000E-03 0. -1.
         11   -1    0    0    0    0 -0.00000000000E+00 -0.00000000000E+00 -0.45593999997E+02  0.45594000000E+02  0.51100000000E-03 0.  1.
    9900012    2    1    2    0    0  0.15843356962E+00  0.94428669260E+00  0.69015057508E+00  0.90007709201E+02  0.89999970162E+02 0.  0.
        -12    1    1    2    0    0 -0.15843356962E+00 -0.94428669260E+00 -0.69015057508E+00  0.11802907990E+01  0.00000000000E+00 0.  1.
         11    1    3    3    0    0  0.36775331366E-03 -0.30247719538E+02  0.13565756993E+02  0.33150479641E+02  0.51100000000E-03 0. -1.
        -11    1    3    3    0    0  0.16391279246E+02 -0.36604793396E+01 -0.20836390486E+01  0.16923790836E+02  0.51100000000E-03 0.  1.
        -12    1    3    3    0    0 -0.16233213430E+02  0.34852485570E+02 -0.10791967369E+02  0.39933438724E+02  0.00000000000E+00 0.  1.
</event>
<event>
 7    1  0.3662489E-015  0.9000774E+02  0.7816164E-02  0.1186339E+00
        -11   -1    0    0    0    0  0.00000000000E+00  0.00000000000E+00  0.45593999997E+02  0.45594000000E+02  0.51100000000E-03 0.  1.
         11   -1    0    0    0    0 -0.00000000000E+00 -0.00000000000E+00 -0.45593999997E+02  0.45594000000E+02  0.51100000000E-03 0. -1.
    9900012    2    1    2    0    0 -0.82967821164E+00  0.36656399511E+00 -0.75516558592E+00  0.90007741486E+02  0.90000002874E+02 0.  0.
        -12    1    1    2    0    0  0.82967821164E+00 -0.36656399511E+00  0.75516558592E+00  0.11802585139E+01  0.00000000000E+00 0.  1.
         11    1    3    3    0    0  0.25187927023E+02  0.24519706084E+02 -0.12544701145E+02  0.37323145383E+02  0.51100000000E-03 0. -1.
        -11    1    3    3    0    0  0.34066229463E+00  0.89789010309E+01  0.14382538165E+01  0.90997411404E+01  0.51100000000E-03 0.  1.
        -12    1    3    3    0    0 -0.26358267529E+02 -0.33132043120E+02  0.10351281743E+02  0.43584854963E+02  0.00000000000E+00 0.  1.
</event>
<event>
 7    1  0.3662489E-015  0.9000777E+02  0.7816164E-02  0.1186339E+00
        -11   -1    0    0    0    0  0.00000000000E+00  0.00000000000E+00  0.45593999997E+02  0.45594000000E+02  0.51100000000E-03 0.  1.
         11   -1    0    0    0    0 -0.00000000000E+00 -0.00000000000E+00 -0.45593999997E+02  0.45594000000E+02  0.51100000000E-03 0. -1.
    9900012    2    1    2    0    0 -0.11333505562E+01  0.26516201113E+00  0.19530715016E+00  0.90007771523E+02  0.90000033307E+02 0.  0.
        -12    1    1    2    0    0  0.11333505562E+01 -0.26516201113E+00 -0.19530715016E+00  0.11802284771E+01  0.00000000000E+00 0.  1.
         11    1    3    3    0    0 -0.33823049630E+02 -0.12418313169E+01 -0.21262270166E+02  0.39970301027E+02  0.51100000000E-03 0. -1.
        -11    1    3    3    0    0  0.39173729460E+01  0.55753150185E+01 -0.67131758873E+01  0.95653896475E+01  0.51100000000E-03 0.  1.
        -12    1    3    3    0    0  0.28772326128E+02 -0.40683216905E+01  0.28170753203E+02  0.40472080849E+02  0.00000000000E+00 0.  1.
</event>
<event>
 7    1  0.3662489E-015  0.9000769E+02  0.7816164E-02  0.1186339E+00
        -11   -1    0    0    0    0  0.00000000000E+00  0.00000000000E+00  0.45593999997E+02  0.45594000000E+02  0.51100000000E-03 0. -1.
         11   -1    0    0    0    0 -0.00000000000E+00 -0.00000000000E+00 -0.45593999997E+02  0.45594000000E+02  0.51100000000E-03 0.  1.
    9900012    2    1    2    0    0 -0.28010360166E+00 -0.10917244075E+01 -0.35045120518E+00  0.90007688068E+02  0.89999948750E+02 0.  0.
        -12    1    1    2    0    0  0.28010360166E+00  0.10917244075E+01  0.35045120518E+00  0.11803119320E+01  0.00000000000E+00 0.  1.
         11    1    3    3    0    0  0.39186750190E+02 -0.16256646322E+02  0.10241553299E+02  0.43643663393E+02  0.51100000000E-03 0. -1.
        -11    1    3    3    0    0  0.31516185552E+00 -0.17822426555E+01  0.12561830576E+00  0.18142480807E+01  0.51100000000E-03 0.  1.
        -12    1    3    3    0    0 -0.39782015647E+02  0.16947164570E+02 -0.10717622810E+02  0.44549776595E+02  0.00000000000E+00 0.  1.
</event>
<event>
 7    1  0.3662489E-015  0.9000736E+02  0.7816164E-02  0.1186340E+00
        -11   -1    0    0    0    0  0.00000000000E+00  0.00000000000E+00  0.45593999997E+02  0.45594000000E+02  0.51100000000E-03 0.  1.
         11   -1    0    0    0    0 -0.00000000000E+00 -0.00000000000E+00 -0.45593999997E+02  0.45594000000E+02  0.51100000000E-03 0. -1.
    9900012    2    1    2    0    0  0.57153828522E+00  0.85549936770E+00 -0.57912525158E+00  0.90007355584E+02  0.89999611877E+02 0.  0.
        -12    1    1    2    0    0 -0.57153828522E+00 -0.85549936770E+00  0.57912525158E+00  0.11806444158E+01  0.00000000000E+00 0.  1.
         11    1    3    3    0    0 -0.26932297081E+01  0.10708942729E+02 -0.40910272473E+02  0.42374347602E+02  0.51100000000E-03 0. -1.
        -11    1    3    3    0    0 -0.79286081685E+01 -0.13894731274E+01  0.46606157224E+01  0.93013333579E+01  0.51100000000E-03 0.  1.
        -12    1    3    3    0    0  0.11193376162E+02 -0.84639702340E+01  0.35670531499E+02  0.38331674624E+02  0.00000000000E+00 0.  1.
</event>
<event>
 7    1  0.3662489E-015  0.9000789E+02  0.7816164E-02  0.1186339E+00
        -11   -1    0    0    0    0  0.00000000000E+00  0.00000000000E+00  0.45593999997E+02  0.45594000000E+02  0.51100000000E-03 0. -1.
         11   -1    0    0    0    0 -0.00000000000E+00 -0.00000000000E+00 -0.45593999997E+02  0.45594000000E+02  0.51100000000E-03 0.  1.
    9900012    2    1    2    0    0 -0.62466921127E+00  0.29349437504E-01  0.10007957495E+01  0.90007887656E+02  0.90000150973E+02 0.  0.
        -12    1    1    2    0    0  0.62466921127E+00 -0.29349437504E-01 -0.10007957495E+01  0.11801123443E+01  0.00000000000E+00 0.  1.
         11    1    3    3    0    0  0.44566267955E+01  0.74940082985E+00 -0.90135096968E+01  0.10082979783E+02  0.51100000000E-03 0. -1.
        -11    1    3    3    0    0  0.29331012431E+02  0.22732655419E+02  0.93788178993E+01  0.38275895000E+02  0.51100000000E-03 0.  1.
         12    1    3    3    0    0 -0.34412308438E+02 -0.23452706811E+02  0.63548754696E+00  0.41649012872E+02  0.00000000000E+00 0. -1.
</event>
<event>
 7    1  0.3662489E-015  0.9000778E+02  0.7816164E-02  0.1186339E+00
        -11   -1    0    0    0    0  0.00000000000E+00  0.00000000000E+00  0.45593999997E+02  0.45594000000E+02  0.51100000000E-03 0.  1.
         11   -1    0    0    0    0 -0.00000000000E+00 -0.00000000000E+00 -0.45593999997E+02  0.45594000000E+02  0.51100000000E-03 0. -1.
    9900012    2    1    2    0    0  0.28658823691E+00  0.88600510703E+00 -0.72510037818E+00  0.90007784585E+02  0.90000046542E+02 0.  0.
        -12    1    1    2    0    0 -0.28658823691E+00 -0.88600510703E+00  0.72510037818E+00  0.11802154149E+01  0.00000000000E+00 0.  1.
         11    1    3    3    0    0 -0.41688268854E-01 -0.15277707072E+02 -0.33632372304E+02  0.36939769062E+02  0.51100000000E-03 0. -1.
        -11    1    3    3    0    0 -0.77943775199E+01 -0.90139355284E+01  0.15112903267E+01  0.12011967089E+02  0.51100000000E-03 0.  1.
        -12    1    3    3    0    0  0.81226540257E+01  0.25177647707E+02  0.31395981599E+02  0.41056048434E+02  0.00000000000E+00 0.  1.
</event>
<event>
 7    1  0.3662489E-015  0.9000774E+02  0.7816164E-02  0.1186339E+00
        -11   -1    0    0    0    0  0.00000000000E+00  0.00000000000E+00  0.45593999997E+02  0.45594000000E+02  0.51100000000E-03 0. -1.
         11   -1    0    0    0    0 -0.00000000000E+00 -0.00000000000E+00 -0.45593999997E+02  0.45594000000E+02  0.51100000000E-03 0.  1.
    9900012    2    1    2    0    0  0.10779643742E+01 -0.43901294902E+00  0.19563267477E+00  0.90007740831E+02  0.90000002210E+02 0.  0.
        -12    1    1    2    0    0 -0.10779643742E+01  0.43901294902E+00 -0.19563267477E+00  0.11802591685E+01  0.00000000000E+00 0.  1.
         11    1    3    3    0    0  0.61197409932E+01  0.41434602327E+02  0.94759610087E+01  0.42942651724E+02  0.51100000000E-03 0. -1.
        -11    1    3    3    0    0 -0.26538779613E+01 -0.49650461087E+01 -0.83463214603E+01  0.10067563423E+02  0.51100000000E-03 0.  1.
        -12    1    3    3    0    0 -0.23878986577E+01 -0.36908569167E+02 -0.93400687365E+00  0.36997525685E+02  0.00000000000E+00 0.  1.
</event>
<event>
 7    1  0.3662489E-015  0.9000767E+02  0.7816164E-02  0.1186339E+00
        -11   -1    0    0    0    0  0.00000000000E+00  0.00000000000E+00  0.45593999997E+02  0.45594000000E+02  0.51100000000E-03 0. -1.
         11   -1    0    0    0    0 -0.00000000000E+00 -0.00000000000E+00 -0.45593999997E+02  0.45594000000E+02  0.51100000000E-03 0.  1.
    9900012    2    1    2    0    0 -0.61130056376E+00 -0.93198429557E+00  0.38846139643E+00  0.90007667266E+02  0.89999927674E+02 0.  0.
        -12    1    1    2    0    0  0.61130056376E+00  0.93198429557E+00 -0.38846139643E+00  0.11803327340E+01  0.00000000000E+00 0.  1.
         11    1    3    3    0    0  0.30026934348E+02  0.70090478639E+01  0.20053397069E+02  0.36781547990E+02  0.51100000000E-03 0. -1.
        -11    1    3    3    0    0  0.73792008306E+01 -0.62604193576E+01  0.13238384417E+01  0.97671901748E+01  0.51100000000E-03 0.  1.
        -12    1    3    3    0    0 -0.38017435742E+02 -0.16806128019E+01 -0.20988774114E+02  0.43458929101E+02  0.00000000000E+00 0.  1.
</event>
<event>
 7    1  0.3662489E-015  0.9000772E+02  0.7816164E-02  0.1186339E+00
        -11   -1    0    0    0    0  0.00000000000E+00  0.00000000000E+00  0.45593999997E+02  0.45594000000E+02  0.51100000000E-03 0.  1.
         11   -1    0    0    0    0 -0.00000000000E+00 -0.00000000000E+00 -0.45593999997E+02  0.45594000000E+02  0.51100000000E-03 0. -1.
    9900012    2    1    2    0    0  0.40353249264E+00  0.75817618173E-01 -0.11065625848E+01  0.90007717179E+02  0.89999978246E+02 0.  0.
        -12    1    1    2    0    0 -0.40353249264E+00 -0.75817618173E-01  0.11065625848E+01  0.11802828212E+01  0.00000000000E+00 0.  1.
         11    1    3    3    0    0 -0.21490890797E+02 -0.27505924874E+02 -0.11711029128E+02  0.36818235888E+02  0.51100000000E-03 0. -1.
        -11    1    3    3    0    0 -0.97099450778E+01 -0.58592860006E+00  0.10018032077E+01  0.97790569927E+01  0.51100000000E-03 0.  1.
        -12    1    3    3    0    0  0.31604368367E+02  0.28167671092E+02  0.96026633354E+01  0.43410424298E+02  0.00000000000E+00 0.  1.
</event>
<event>
 7    1  0.3662489E-015  0.9000786E+02  0.7816164E-02  0.1186339E+00
        -11   -1    0    0    0    0  0.00000000000E+00  0.00000000000E+00  0.45593999997E+02  0.45594000000E+02  0.51100000000E-03 0.  1.
         11   -1    0    0    0    0 -0.00000000000E+00 -0.00000000000E+00 -0.45593999997E+02  0.45594000000E+02  0.51100000000E-03 0. -1.
    9900012    2    1    2    0    0  0.79664436129E+00  0.42891260402E+00  0.75770834757E+00  0.90007860093E+02  0.90000123046E+02 0.  0.
        -12    1    1    2    0    0 -0.79664436129E+00 -0.42891260402E+00 -0.75770834757E+00  0.11801399071E+01  0.00000000000E+00 0.  1.
         11    1    3    3    0    0 -0.36708122907E+01  0.93615746892E+01  0.37529304914E+01  0.10733053204E+02  0.51100000000E-03 0. -1.
        -11    1    3    3    0    0 -0.13784160673E+02 -0.18854388057E+02  0.31375300513E+02  0.39113942744E+02  0.51100000000E-03 0.  1.
         12    1    3    3    0    0  0.18251617325E+02  0.99217259720E+01 -0.34370522656E+02  0.40160864145E+02  0.00000000000E+00 0. -1.
</event>
<event>
 7    1  0.3662489E-015  0.9000788E+02  0.7816164E-02  0.1186339E+00
        -11   -1    0    0    0    0  0.00000000000E+00  0.00000000000E+00  0.45593999997E+02  0.45594000000E+02  0.51100000000E-03 0.  1.
         11   -1    0    0    0    0 -0.00000000000E+00 -0.00000000000E+00 -0.45593999997E+02  0.45594000000E+02  0.51100000000E-03 0. -1.
    9900012    2    1    2    0    0 -0.62863723294E+00  0.84525558111E+00 -0.53202198339E+00  0.90007877481E+02  0.90000140664E+02 0.  0.
        -12    1    1    2    0    0  0.62863723294E+00 -0.84525558111E+00  0.53202198339E+00  0.11801225186E+01  0.00000000000E+00 0.  1.
         11    1    3    3    0    0 -0.10604743999E+02 -0.34557803221E+01  0.65580920463E+00  0.11172873350E+02  0.51100000000E-03 0. -1.
        -11    1    3    3    0    0  0.22983095169E+02 -0.30662666206E+02  0.10517198544E+02  0.39737051071E+02  0.51100000000E-03 0.  1.
         12    1    3    3    0    0 -0.13006988403E+02  0.34963702109E+02 -0.11705029732E+02  0.39097953060E+02  0.00000000000E+00 0. -1.
</event>
<event>
 7    1  0.3662489E-015  0.9000769E+02  0.7816164E-02  0.1186339E+00
        -11   -1    0    0    0    0  0.00000000000E+00  0.00000000000E+00  0.45593999997E+02  0.45594000000E+02  0.51100000000E-03 0.  1.
         11   -1    0    0    0    0 -0.00000000000E+00 -0.00000000000E+00 -0.45593999997E+02  0.45594000000E+02  0.51100000000E-03 0. -1.
    9900012    2    1    2    0    0 -0.22090459784E+00  0.29388617431E+00 -0.11215847393E+01  0.90007694848E+02  0.89999955620E+02 0.  0.
        -12    1    1    2    0    0  0.22090459784E+00 -0.29388617431E+00  0.11215847393E+01  0.11803051521E+01  0.00000000000E+00 0.  1.
         11    1    3    3    0    0  0.17751849997E+02 -0.52765780166E+01 -0.29523409734E+02  0.34851143116E+02  0.51100000000E-03 0. -1.
        -11    1    3    3    0    0 -0.20295320546E+01 -0.83296708692E+01 -0.88479694303E+01  0.12320267061E+02  0.51100000000E-03 0.  1.
        -12    1    3    3    0    0 -0.15943222541E+02  0.13900135060E+02  0.37249794425E+02  0.42836284671E+02  0.00000000000E+00 0.  1.
</event>
<event>
 7    1  0.3662489E-015  0.9000793E+02  0.7816164E-02  0.1186339E+00
        -11   -1    0    0    0    0  0.00000000000E+00  0.00000000000E+00  0.45593999997E+02  0.45594000000E+02  0.51100000000E-03 0.  1.
         11   -1    0    0    0    0 -0.00000000000E+00 -0.00000000000E+00 -0.45593999997E+02  0.45594000000E+02  0.51100000000E-03 0. -1.
    9900012    2    1    2    0    0  0.32677164523E+00  0.67616983266E+00 -0.91026768567E+00  0.90007926862E+02  0.90000190697E+02 0.  0.
        -12    1    1    2    0    0 -0.32677164523E+00 -0.67616983266E+00  0.91026768567E+00  0.11800731377E+01  0.00000000000E+00 0.  1.
         11    1    3    3    0    0  0.27605686015E+01 -0.36170860223E+02 -0.15413777394E+02  0.39414926133E+02  0.51100000000E-03 0. -1.
        -11    1    3    3    0    0  0.59183262204E+01  0.87987733870E+00 -0.59029692321E+01  0.84051065072E+01  0.51100000000E-03 0.  1.
        -12    1    3    3    0    0 -0.83521231766E+01  0.35967152717E+02  0.20406478940E+02  0.42187894222E+02  0.00000000000E+00 0.  1.
</event>
<event>
 7    1  0.3662489E-015  0.9000775E+02  0.7816164E-02  0.1186339E+00
        -11   -1    0    0    0    0  0.00000000000E+00  0.00000000000E+00  0.45593999997E+02  0.45594000000E+02  0.51100000000E-03 0.  1.
         11   -1    0    0    0    0 -0.00000000000E+00 -0.00000000000E+00 -0.45593999997E+02  0.45594000000E+02  0.51100000000E-03 0. -1.
    9900012    2    1    2    0    0  0.32241036447E+00  0.88808722134E+00 -0.70735630648E+00  0.90007745663E+02  0.90000007106E+02 0.  0.
        -12    1    1    2    0    0 -0.32241036447E+00 -0.88808722134E+00  0.70735630648E+00  0.11802543371E+01  0.00000000000E+00 0.  1.
         11    1    3    3    0    0  0.20486615559E+02 -0.81941697614E+01 -0.26043896292E+02  0.34134006057E+02  0.51100000000E-03 0. -1.
        -11    1    3    3    0    0  0.70947093315E+01  0.30896443545E+01 -0.88403283494E+01  0.11748710922E+02  0.51100000000E-03 0.  1.
        -12    1    3    3    0    0 -0.27258914526E+02  0.59926126282E+01  0.34176868335E+02  0.44125028685E+02  0.00000000000E+00 0.  1.
</event>
<event>
 7    1  0.3662489E-015  0.9000765E+02  0.7816164E-02  0.1186339E+00
        -11   -1    0    0    0    0  0.00000000000E+00  0.00000000000E+00  0.45593999997E+02  0.45594000000E+02  0.51100000000E-03 0.  1.
         11   -1    0    0    0    0 -0.00000000000E+00 -0.00000000000E+00 -0.45593999997E+02  0.45594000000E+02  0.51100000000E-03 0. -1.
    9900012    2    1    2    0    0 -0.41689397524E-01  0.11766295249E+01  0.83819710070E-01  0.90007652259E+02  0.89999912469E+02 0.  0.
        -12    1    1    2    0    0  0.41689397524E-01 -0.11766295249E+01 -0.83819710070E-01  0.11803477405E+01  0.00000000000E+00 0.  1.
         11    1    3    3    0    0  0.62640203474E+01  0.87141643479E+01 -0.36575861039E+02  0.38117820271E+02  0.51100000000E-03 0. -1.
        -11    1    3    3    0    0 -0.55083626997E+01 -0.38343132058E+01 -0.60359741247E+01  0.90264611719E+01  0.51100000000E-03 0.  1.
        -12    1    3    3    0    0 -0.79734704524E+00 -0.37032216172E+01  0.42695654874E+02  0.42863370817E+02  0.00000000000E+00 0.  1.
</event>
<event>
 7    1  0.3662489E-015  0.9000714E+02  0.7816164E-02  0.1186340E+00
        -11   -1    0    0    0    0  0.00000000000E+00  0.00000000000E+00  0.45593999997E+02  0.45594000000E+02  0.51100000000E-03 0. -1.
         11   -1    0    0    0    0 -0.00000000000E+00 -0.00000000000E+00 -0.45593999997E+02  0.45594000000E+02  0.51100000000E-03 0.  1.
    9900012    2    1    2    0    0  0.20925067735E+00 -0.11349825332E+01 -0.24990826570E+00  0.90007142118E+02  0.89999395592E+02 0.  0.
        -12    1    1    2    0    0 -0.20925067735E+00  0.11349825332E+01  0.24990826570E+00  0.11808578821E+01  0.00000000000E+00 0.  1.
         11    1    3    3    0    0  0.26081613186E+02  0.20969572866E+02 -0.23029517875E+02  0.40624281242E+02  0.51100000000E-03 0. -1.
        -11    1    3    3    0    0 -0.69027931646E+01 -0.27554059863E+01 -0.62216160203E+01  0.96927458332E+01  0.51100000000E-03 0.  1.
        -12    1    3    3    0    0 -0.18969569344E+02 -0.19349149413E+02  0.29001225630E+02  0.39690115043E+02  0.00000000000E+00 0.  1.
</event>
<event>
 7    1  0.3662489E-015  0.9000781E+02  0.7816164E-02  0.1186339E+00
        -11   -1    0    0    0    0  0.00000000000E+00  0.00000000000E+00  0.45593999997E+02  0.45594000000E+02  0.51100000000E-03 0.  1.
         11   -1    0    0    0    0 -0.00000000000E+00 -0.00000000000E+00 -0.45593999997E+02  0.45594000000E+02  0.51100000000E-03 0. -1.
    9900012    2    1    2    0    0 -0.88584367236E+00  0.28934197579E+00 -0.72416375164E+00  0.90007808943E+02  0.90000071221E+02 0.  0.
        -12    1    1    2    0    0  0.88584367236E+00 -0.28934197579E+00  0.72416375164E+00  0.11801910566E+01  0.00000000000E+00 0.  1.
         11    1    3    3    0    0 -0.18114297800E+02  0.32073027550E+02 -0.61972497423E+01  0.37352547244E+02  0.51100000000E-03 0. -1.
        -11    1    3    3    0    0 -0.84088087879E+01  0.46702147251E+00  0.76789155311E+01  0.11397013569E+02  0.51100000000E-03 0.  1.
        -12    1    3    3    0    0  0.25637262916E+02 -0.32250707047E+02 -0.22058295404E+01  0.41258248130E+02  0.00000000000E+00 0.  1.
</event>
<event>
 7    1  0.3810942E-015  0.9000788E+02  0.7816164E-02  0.1186339E+00
        -11   -1    0    0    0    0  0.00000000000E+00  0.00000000000E+00  0.45593999997E+02  0.45594000000E+02  0.51100000000E-03 0.  1.
         11   -1    0    0    0    0 -0.00000000000E+00 -0.00000000000E+00 -0.45593999997E+02  0.45594000000E+02  0.51100000000E-03 0. -1.
    9900012    2    1    2    0    0 -0.73145243548E+00 -0.49866073976E+00 -0.78038055851E+00  0.90007881779E+02  0.90000145019E+02 0.  0.
        -12    1    1    2    0    0  0.73145243548E+00  0.49866073976E+00  0.78038055851E+00  0.11801182207E+01  0.00000000000E+00 0.  1.
         11    1    3    3    0    0  0.23978303332E+02  0.17776405887E+02 -0.19806281003E+02  0.35822456705E+02  0.51100000000E-03 0. -1.
        -11    1    3    3    0    0  0.86037499143E+01  0.74752213514E+00 -0.39204619367E+01  0.94843726197E+01  0.51100000000E-03 0.  1.
        -12    1    3    3    0    0 -0.33313505682E+02 -0.19022588762E+02  0.22946362381E+02  0.44701052455E+02  0.00000000000E+00 0.  1.
</event>
<event>
 7    1  0.3662489E-015  0.9000771E+02  0.7816164E-02  0.1186339E+00
        -11   -1    0    0    0    0  0.00000000000E+00  0.00000000000E+00  0.45593999997E+02  0.45594000000E+02  0.51100000000E-03 0. -1.
         11   -1    0    0    0    0 -0.00000000000E+00 -0.00000000000E+00 -0.45593999997E+02  0.45594000000E+02  0.51100000000E-03 0.  1.
    9900012    2    1    2    0    0 -0.88647517834E+00  0.77424373502E+00  0.88294151979E-01  0.90007708739E+02  0.89999969695E+02 0.  0.
        -12    1    1    2    0    0  0.88647517834E+00 -0.77424373502E+00 -0.88294151979E-01  0.11802912608E+01  0.00000000000E+00 0.  1.
         11    1    3    3    0    0 -0.16926951522E+02 -0.21142285812E+02 -0.15679954183E+02  0.31295029967E+02  0.51100000000E-03 0. -1.
        -11    1    3    3    0    0 -0.42539997367E+01 -0.96871250671E+01 -0.88595578765E+01  0.13799589554E+02  0.51100000000E-03 0.  1.
        -12    1    3    3    0    0  0.20294476080E+02  0.31603654615E+02  0.24627806211E+02  0.44913089218E+02  0.00000000000E+00 0.  1.
</event>
<event>
 7    1  0.3662489E-015  0.9000763E+02  0.7816164E-02  0.1186339E+00
        -11   -1    0    0    0    0  0.00000000000E+00  0.00000000000E+00  0.45593999997E+02  0.45594000000E+02  0.51100000000E-03 0.  1.
         11   -1    0    0    0    0 -0.00000000000E+00 -0.00000000000E+00 -0.45593999997E+02  0.45594000000E+02  0.51100000000E-03 0. -1.
    9900012    2    1    2    0    0  0.30208618053E+00 -0.99697232495E+00 -0.55504301176E+00  0.90007626067E+02  0.89999885931E+02 0.  0.
        -12    1    1    2    0    0 -0.30208618053E+00  0.99697232495E+00  0.55504301176E+00  0.11803739332E+01  0.00000000000E+00 0.  1.
         11    1    3    3    0    0  0.10726871788E+02 -0.41939755634E+01  0.78465211412E+01  0.13936394930E+02  0.51100000000E-03 0. -1.
        -11    1    3    3    0    0  0.18610160708E+02 -0.27593628776E+02 -0.34416963651E+01  0.33460300428E+02  0.51100000000E-03 0.  1.
         12    1    3    3    0    0 -0.29034946315E+02  0.30790632015E+02 -0.49598677879E+01  0.42610930708E+02  0.00000000000E+00 0. -1.
</event>
<event>
 7    1  0.3662489E-015  0.9000775E+02  0.7816164E-02  0.1186339E+00
        -11   -1    0    0    0    0  0.00000000000E+00  0.00000000000E+00  0.45593999997E+02  0.45594000000E+02  0.51100000000E-03 0.  1.
         11   -1    0    0    0    0 -0.00000000000E+00 -0.00000000000E+00 -0.45593999997E+02  0.45594000000E+02  0.51100000000E-03 0. -1.
    9900012    2    1    2    0    0  0.29748927815E+00 -0.58492462073E+00 -0.98099438575E+00  0.90007751438E+02  0.90000012957E+02 0.  0.
        -12    1    1    2    0    0 -0.29748927815E+00  0.58492462073E+00  0.98099438575E+00  0.11802485617E+01  0.00000000000E+00 0.  1.
         11    1    3    3    0    0  0.13921132916E+02 -0.32370881488E+02 -0.16912252205E+02  0.39085754245E+02  0.51100000000E-03 0. -1.
        -11    1    3    3    0    0  0.86806876895E+01 -0.41478473835E+00  0.15122195765E+00  0.86919073559E+01  0.51100000000E-03 0.  1.
        -12    1    3    3    0    0 -0.22304331328E+02  0.32200741605E+02  0.15780035862E+02  0.42230089838E+02  0.00000000000E+00 0.  1.
</event>
<event>
 7    1  0.3662489E-015  0.9000780E+02  0.7816164E-02  0.1186339E+00
        -11   -1    0    0    0    0  0.00000000000E+00  0.00000000000E+00  0.45593999997E+02  0.45594000000E+02  0.51100000000E-03 0.  1.
         11   -1    0    0    0    0 -0.00000000000E+00 -0.00000000000E+00 -0.45593999997E+02  0.45594000000E+02  0.51100000000E-03 0. -1.
    9900012    2    1    2    0    0 -0.86041805529E+00 -0.79067223544E+00  0.16553207878E+00  0.90007795491E+02  0.90000057592E+02 0.  0.
        -12    1    1    2    0    0  0.86041805529E+00  0.79067223544E+00 -0.16553207878E+00  0.11802045089E+01  0.00000000000E+00 0.  1.
         11    1    3    3    0    0 -0.25562077807E+02  0.21855334785E+02  0.77024903900E+01  0.34502229476E+02  0.51100000000E-03 0. -1.
        -11    1    3    3    0    0 -0.84018370582E+01 -0.47520355798E+01  0.10079435108E+02  0.13955920624E+02  0.51100000000E-03 0.  1.
        -12    1    3    3    0    0  0.33103496810E+02 -0.17893971440E+02 -0.17616393420E+02  0.41549645391E+02  0.00000000000E+00 0.  1.
</event>
<event>
 7    1  0.3662489E-015  0.9000773E+02  0.7816164E-02  0.1186339E+00
        -11   -1    0    0    0    0  0.00000000000E+00  0.00000000000E+00  0.45593999997E+02  0.45594000000E+02  0.51100000000E-03 0.  1.
         11   -1    0    0    0    0 -0.00000000000E+00 -0.00000000000E+00 -0.45593999997E+02  0.45594000000E+02  0.51100000000E-03 0. -1.
    9900012    2    1    2    0    0 -0.52658595095E+00  0.53486004613E+00  0.91085631396E+00  0.90007734243E+02  0.89999995535E+02 0.  0.
        -12    1    1    2    0    0  0.52658595095E+00 -0.53486004613E+00 -0.91085631396E+00  0.11802657571E+01  0.00000000000E+00 0.  1.
         11    1    3    3    0    0  0.18965106379E+02  0.10233936850E+02 -0.33022900273E+02  0.39432482373E+02  0.51100000000E-03 0. -1.
        -11    1    3    3    0    0  0.77740497136E+01 -0.39268320483E+01  0.37209540021E+01  0.94710800774E+01  0.51100000000E-03 0.  1.
        -12    1    3    3    0    0 -0.27265742044E+02 -0.57722447553E+01  0.30212802585E+02  0.41104171792E+02  0.00000000000E+00 0.  1.
</event>
<event>
 7    1  0.3662489E-015  0.9000769E+02  0.7816164E-02  0.1186339E+00
        -11   -1    0    0    0    0  0.00000000000E+00  0.00000000000E+00  0.45593999997E+02  0.45594000000E+02  0.51100000000E-03 0.  1.
         11   -1    0    0    0    0 -0.00000000000E+00 -0.00000000000E+00 -0.45593999997E+02  0.45594000000E+02  0.51100000000E-03 0. -1.
    9900012    2    1    2    0    0 -0.53935133208E-01  0.82844319064E+00 -0.83898944119E+00  0.90007690549E+02  0.89999951264E+02 0.  0.
        -12    1    1    2    0    0  0.53935133208E-01 -0.82844319064E+00  0.83898944119E+00  0.11803094514E+01  0.00000000000E+00 0.  1.
         11    1    3    3    0    0 -0.28735968347E+02 -0.94597011807E+01 -0.23463793793E+02  0.38285655835E+02  0.51100000000E-03 0. -1.
        -11    1    3    3    0    0 -0.15647856372E+01  0.75615535956E+01 -0.61606317153E+01  0.98782098714E+01  0.51100000000E-03 0.  1.
        -12    1    3    3    0    0  0.30246818851E+02  0.27265907758E+01  0.28785436067E+02  0.41843824842E+02  0.00000000000E+00 0.  1.
</event>
<event>
 7    1  0.3887606E-015  0.9000773E+02  0.7816164E-02  0.1186339E+00
        -11   -1    0    0    0    0  0.00000000000E+00  0.00000000000E+00  0.45593999997E+02  0.45594000000E+02  0.51100000000E-03 0. -1.
         11   -1    0    0    0    0 -0.00000000000E+00 -0.00000000000E+00 -0.45593999997E+02  0.45594000000E+02  0.51100000000E-03 0.  1.
    9900012    2    1    2    0    0  0.98501924393E+00 -0.51526763235E+00  0.39659020949E+00  0.90007725694E+02  0.89999986873E+02 0.  0.
        -12    1    1    2    0    0 -0.98501924393E+00  0.51526763235E+00 -0.39659020949E+00  0.11802743063E+01  0.00000000000E+00 0.  1.
         11    1    3    3    0    0 -0.25549528594E+01  0.27460567245E+01  0.35533522089E+02  0.35730936232E+02  0.51100000000E-03 0. -1.
        -11    1    3    3    0    0 -0.36475570660E+01  0.10592905783E+00  0.88535047052E+01  0.95760346355E+01  0.51100000000E-03 0.  1.
        -12    1    3    3    0    0  0.71875291693E+01 -0.33672534147E+01 -0.43990436585E+02  0.44700754827E+02  0.00000000000E+00 0.  1.
</event>
<event>
 7    1  0.3662489E-015  0.9000774E+02  0.7816164E-02  0.1186339E+00
        -11   -1    0    0    0    0  0.00000000000E+00  0.00000000000E+00  0.45593999997E+02  0.45594000000E+02  0.51100000000E-03 0. -1.
         11   -1    0    0    0    0 -0.00000000000E+00 -0.00000000000E+00 -0.45593999997E+02  0.45594000000E+02  0.51100000000E-03 0.  1.
    9900012    2    1    2    0    0  0.15028720510E+00 -0.87000935623E+00  0.78326391687E+00  0.90007743720E+02  0.90000005137E+02 0.  0.
        -12    1    1    2    0    0 -0.15028720510E+00  0.87000935623E+00 -0.78326391687E+00  0.11802562804E+01  0.00000000000E+00 0.  1.
         11    1    3    3    0    0 -0.22294836973E+01 -0.29263593196E+02  0.22526075942E+02  0.36996656361E+02  0.51100000000E-03 0. -1.
        -11    1    3    3    0    0 -0.52108187117E+01  0.45953033976E+01  0.10273982315E+02  0.12402586740E+02  0.51100000000E-03 0.  1.
        -12    1    3    3    0    0  0.75905896141E+01  0.23798280443E+02 -0.32016794340E+02  0.40608500619E+02  0.00000000000E+00 0.  1.
</event>
<event>
 7    1  0.3662489E-015  0.9000789E+02  0.7816164E-02  0.1186339E+00
        -11   -1    0    0    0    0  0.00000000000E+00  0.00000000000E+00  0.45593999997E+02  0.45594000000E+02  0.51100000000E-03 0.  1.
         11   -1    0    0    0    0 -0.00000000000E+00 -0.00000000000E+00 -0.45593999997E+02  0.45594000000E+02  0.51100000000E-03 0. -1.
    9900012    2    1    2    0    0  0.47533623812E+00  0.90860973604E+00 -0.58408316786E+00  0.90007885879E+02  0.90000149172E+02 0.  0.
        -12    1    1    2    0    0 -0.47533623812E+00 -0.90860973604E+00  0.58408316786E+00  0.11801141210E+01  0.00000000000E+00 0.  1.
         11    1    3    3    0    0 -0.18344221056E+02  0.50689891670E+01 -0.32696471654E+02  0.37832054612E+02  0.51100000000E-03 0. -1.
        -11    1    3    3    0    0  0.21883103721E+01 -0.68150379120E+01 -0.67390961332E+01  0.98310152568E+01  0.51100000000E-03 0.  1.
        -12    1    3    3    0    0  0.16631246922E+02  0.26546584811E+01  0.38851484619E+02  0.42344816010E+02  0.00000000000E+00 0.  1.
</event>
<event>
 7    1  0.3662489E-015  0.9000774E+02  0.7816164E-02  0.1186339E+00
        -11   -1    0    0    0    0  0.00000000000E+00  0.00000000000E+00  0.45593999997E+02  0.45594000000E+02  0.51100000000E-03 0.  1.
         11   -1    0    0    0    0 -0.00000000000E+00 -0.00000000000E+00 -0.45593999997E+02  0.45594000000E+02  0.51100000000E-03 0. -1.
    9900012    2    1    2    0    0  0.13916336259E+00  0.11132005234E+01 -0.36664620794E+00  0.90007741008E+02  0.90000002389E+02 0.  0.
        -12    1    1    2    0    0 -0.13916336259E+00 -0.11132005234E+01  0.36664620794E+00  0.11802589922E+01  0.00000000000E+00 0.  1.
         11    1    3    3    0    0  0.13203991850E+01 -0.26877660576E+02  0.25605854537E+02  0.37145819130E+02  0.51100000000E-03 0. -1.
        -11    1    3    3    0    0 -0.69883428833E+01 -0.69838964871E+01 -0.20444564084E+01  0.10089179782E+02  0.51100000000E-03 0.  1.
        -12    1    3    3    0    0  0.58071070609E+01  0.34974757587E+02 -0.23928044336E+02  0.42772742096E+02  0.00000000000E+00 0.  1.
</event>
<event>
 7    1  0.3662489E-015  0.9000770E+02  0.7816164E-02  0.1186339E+00
        -11   -1    0    0    0    0  0.00000000000E+00  0.00000000000E+00  0.45593999997E+02  0.45594000000E+02  0.51100000000E-03 0. -1.
         11   -1    0    0    0    0 -0.00000000000E+00 -0.00000000000E+00 -0.45593999997E+02  0.45594000000E+02  0.51100000000E-03 0.  1.
    9900012    2    1    2    0    0  0.11604201903E+01  0.27103461861E-01  0.21403102746E+00  0.90007695422E+02  0.89999956202E+02 0.  0.
        -12    1    1    2    0    0 -0.11604201903E+01 -0.27103461861E-01 -0.21403102746E+00  0.11803045778E+01  0.00000000000E+00 0.  1.
         11    1    3    3    0    0  0.72097525235E+01 -0.65645548752E+01 -0.42447629365E+01  0.10634468713E+02  0.51100000000E-03 0. -1.
        -11    1    3    3    0    0  0.29195255579E+02 -0.59965001401E+01  0.22961733594E+02  0.37623957423E+02  0.51100000000E-03 0.  1.
         12    1    3    3    0    0 -0.35244587912E+02  0.12588158477E+02 -0.18502939630E+02  0.41749269286E+02  0.00000000000E+00 0. -1.
</event>
<event>
 7    1  0.3662489E-015  0.9000768E+02  0.7816164E-02  0.1186339E+00
        -11   -1    0    0    0    0  0.00000000000E+00  0.00000000000E+00  0.45593999997E+02  0.45594000000E+02  0.51100000000E-03 0.  1.
         11   -1    0    0    0    0 -0.00000000000E+00 -0.00000000000E+00 -0.45593999997E+02  0.45594000000E+02  0.51100000000E-03 0. -1.
    9900012    2    1    2    0    0  0.74897158813E+00  0.84976058904E+00 -0.33182975815E+00  0.90007676957E+02  0.89999937492E+02 0.  0.
        -12    1    1    2    0    0 -0.74897158813E+00 -0.84976058904E+00  0.33182975815E+00  0.11803230435E+01  0.00000000000E+00 0.  1.
         11    1    3    3    0    0 -0.87133921031E+01 -0.25043784781E+01  0.30949980618E+01  0.95798813546E+01  0.51100000000E-03 0. -1.
        -11    1    3    3    0    0 -0.20326357343E+02 -0.13160331501E+02  0.25918145021E+02  0.35469781077E+02  0.51100000000E-03 0.  1.
         12    1    3    3    0    0  0.29788721035E+02  0.16514470568E+02 -0.29344972841E+02  0.44958014525E+02  0.00000000000E+00 0. -1.
</event>
<event>
 7    1  0.3662489E-015  0.9000776E+02  0.7816164E-02  0.1186339E+00
        -11   -1    0    0    0    0  0.00000000000E+00  0.00000000000E+00  0.45593999997E+02  0.45594000000E+02  0.51100000000E-03 0.  1.
         11   -1    0    0    0    0 -0.00000000000E+00 -0.00000000000E+00 -0.45593999997E+02  0.45594000000E+02  0.51100000000E-03 0. -1.
    9900012    2    1    2    0    0  0.84272466298E+00 -0.33468652183E+00  0.75549724274E+00  0.90007755954E+02  0.90000017532E+02 0.  0.
        -12    1    1    2    0    0 -0.84272466298E+00  0.33468652183E+00 -0.75549724274E+00  0.11802440465E+01  0.00000000000E+00 0.  1.
         11    1    3    3    0    0  0.17150761678E+02 -0.33274648017E+02 -0.20320214874E+02  0.42594154054E+02  0.51100000000E-03 0. -1.
        -11    1    3    3    0    0 -0.49452804826E+00  0.18139470749E+00  0.91029829999E+01  0.91182104488E+01  0.51100000000E-03 0.  1.
        -12    1    3    3    0    0 -0.15813508966E+02  0.32758566788E+02  0.11972729117E+02  0.38295391450E+02  0.00000000000E+00 0.  1.
</event>
<event>
 7    1  0.3662489E-015  0.9000773E+02  0.7816164E-02  0.1186339E+00
        -11   -1    0    0    0    0  0.00000000000E+00  0.00000000000E+00  0.45593999997E+02  0.45594000000E+02  0.51100000000E-03 0.  1.
         11   -1    0    0    0    0 -0.00000000000E+00 -0.00000000000E+00 -0.45593999997E+02  0.45594000000E+02  0.51100000000E-03 0. -1.
    9900012    2    1    2    0    0  0.23971666441E+00 -0.11361516697E+01 -0.21150401843E+00  0.90007729418E+02  0.89999990647E+02 0.  0.
        -12    1    1    2    0    0 -0.23971666441E+00  0.11361516697E+01  0.21150401843E+00  0.11802705815E+01  0.00000000000E+00 0.  1.
         11    1    3    3    0    0 -0.10758357534E+01 -0.64183413326E+01  0.89502104304E+01  0.11066110204E+02  0.51100000000E-03 0. -1.
        -11    1    3    3    0    0 -0.28218580254E+02  0.82646366300E+01  0.21376861548E+02  0.36353303840E+02  0.51100000000E-03 0.  1.
         12    1    3    3    0    0  0.29534132671E+02 -0.29824469671E+01 -0.30538575997E+02  0.42588315375E+02  0.00000000000E+00 0. -1.
</event>
<event>
 7    1  0.3662489E-015  0.9000770E+02  0.7816164E-02  0.1186339E+00
        -11   -1    0    0    0    0  0.00000000000E+00  0.00000000000E+00  0.45593999997E+02  0.45594000000E+02  0.51100000000E-03 0.  1.
         11   -1    0    0    0    0 -0.00000000000E+00 -0.00000000000E+00 -0.45593999997E+02  0.45594000000E+02  0.51100000000E-03 0. -1.
    9900012    2    1    2    0    0 -0.37357744272E+00 -0.38307951097E+00 -0.10520414235E+01  0.90007702930E+02  0.89999963808E+02 0.  0.
        -12    1    1    2    0    0  0.37357744272E+00  0.38307951097E+00  0.10520414235E+01  0.11802970703E+01  0.00000000000E+00 0.  1.
         11    1    3    3    0    0  0.93228723249E+01 -0.32570228998E+02 -0.18326404206E+02  0.38517435750E+02  0.51100000000E-03 0. -1.
        -11    1    3    3    0    0  0.40773066310E+01  0.29957153696E+01 -0.86967044479E+01  0.10061382035E+02  0.51100000000E-03 0.  1.
        -12    1    3    3    0    0 -0.13773756399E+02  0.29191434118E+02  0.25971067231E+02  0.41428885144E+02  0.00000000000E+00 0.  1.
</event>
<event>
 7    1  0.3662489E-015  0.9000751E+02  0.7816164E-02  0.1186340E+00
        -11   -1    0    0    0    0  0.00000000000E+00  0.00000000000E+00  0.45593999997E+02  0.45594000000E+02  0.51100000000E-03 0. -1.
         11   -1    0    0    0    0 -0.00000000000E+00 -0.00000000000E+00 -0.45593999997E+02  0.45594000000E+02  0.51100000000E-03 0.  1.
    9900012    2    1    2    0    0 -0.70891132278E+00 -0.84901657626E+00 -0.41251757943E+00  0.90007510625E+02  0.89999768965E+02 0.  0.
        -12    1    1    2    0    0  0.70891132278E+00  0.84901657626E+00  0.41251757943E+00  0.11804893747E+01  0.00000000000E+00 0.  1.
         11    1    3    3    0    0 -0.23807619473E+02 -0.95066166771E+01  0.18657013217E+02  0.31705877185E+02  0.51100000000E-03 0. -1.
        -11    1    3    3    0    0  0.14826546023E+02 -0.14296188801E+00  0.15639677235E+02  0.21551018755E+02  0.51100000000E-03 0.  1.
        -12    1    3    3    0    0  0.82721621265E+01  0.88005619889E+01 -0.34709208032E+02  0.36750614686E+02  0.00000000000E+00 0.  1.
</event>
<event>
 7    1  0.3662489E-015  0.9000779E+02  0.7816164E-02  0.1186339E+00
        -11   -1    0    0    0    0  0.00000000000E+00  0.00000000000E+00  0.45593999997E+02  0.45594000000E+02  0.51100000000E-03 0.  1.
         11   -1    0    0    0    0 -0.00000000000E+00 -0.00000000000E+00 -0.45593999997E+02  0.45594000000E+02  0.51100000000E-03 0. -1.
    9900012    2    1    2    0    0  0.52835142040E+00 -0.17314476179E+00 -0.10410356259E+01  0.90007792600E+02  0.90000054663E+02 0.  0.
        -12    1    1    2    0    0 -0.52835142040E+00  0.17314476179E+00  0.10410356259E+01  0.11802073997E+01  0.00000000000E+00 0.  1.
         11    1    3    3    0    0  0.27019925531E+02  0.13922069624E+01  0.12494845436E+02  0.29801606981E+02  0.51100000000E-03 0. -1.
        -11    1    3    3    0    0  0.94102345765E+01 -0.16944015964E+02 -0.20189391206E+01  0.19486618671E+02  0.51100000000E-03 0.  1.
         12    1    3    3    0    0 -0.35901808687E+02  0.15378664240E+02 -0.11516941942E+02  0.40719566949E+02  0.00000000000E+00 0. -1.
</event>
<event>
 7    1  0.3662489E-015  0.9000777E+02  0.7816164E-02  0.1186339E+00
        -11   -1    0    0    0    0  0.00000000000E+00  0.00000000000E+00  0.45593999997E+02  0.45594000000E+02  0.51100000000E-03 0.  1.
         11   -1    0    0    0    0 -0.00000000000E+00 -0.00000000000E+00 -0.45593999997E+02  0.45594000000E+02  0.51100000000E-03 0. -1.
    9900012    2    1    2    0    0  0.85120374197E+00  0.49488542394E+00 -0.65076493990E+00  0.90007765108E+02  0.90000026807E+02 0.  0.
        -12    1    1    2    0    0 -0.85120374197E+00 -0.49488542394E+00  0.65076493990E+00  0.11802348919E+01  0.00000000000E+00 0.  1.
         11    1    3    3    0    0  0.42233336841E+01 -0.12160397900E+01 -0.93066844532E+01  0.10292214337E+02  0.51100000000E-03 0. -1.
        -11    1    3    3    0    0  0.11245518404E+02  0.30992601648E+02 -0.17948521104E+02  0.37538679401E+02  0.51100000000E-03 0.  1.
         12    1    3    3    0    0 -0.14617648346E+02 -0.29281676435E+02  0.26604440617E+02  0.42176871370E+02  0.00000000000E+00 0. -1.
</event>
<event>
 7    1  0.3662489E-015  0.9000773E+02  0.7816164E-02  0.1186339E+00
        -11   -1    0    0    0    0  0.00000000000E+00  0.00000000000E+00  0.45593999997E+02  0.45594000000E+02  0.51100000000E-03 0.  1.
         11   -1    0    0    0    0 -0.00000000000E+00 -0.00000000000E+00 -0.45593999997E+02  0.45594000000E+02  0.51100000000E-03 0. -1.
    9900012    2    1    2    0    0 -0.10862523025E+01  0.40485407925E+00 -0.22179536053E+00  0.90007727120E+02  0.89999988318E+02 0.  0.
        -12    1    1    2    0    0  0.10862523025E+01 -0.40485407925E+00  0.22179536053E+00  0.11802728804E+01  0.00000000000E+00 0.  1.
         11    1    3    3    0    0 -0.51643009875E+01 -0.33106109779E+02 -0.13838769802E+02  0.36251842151E+02  0.51100000000E-03 0. -1.
        -11    1    3    3    0    0 -0.60944934404E+01 -0.66252577253E+01 -0.24708705981E+01  0.93349928760E+01  0.51100000000E-03 0.  1.
        -12    1    3    3    0    0  0.10172542125E+02  0.40136221584E+02  0.16087845039E+02  0.44420892093E+02  0.00000000000E+00 0.  1.
</event>
<event>
 7    1  0.3662489E-015  0.9000772E+02  0.7816164E-02  0.1186339E+00
        -11   -1    0    0    0    0  0.00000000000E+00  0.00000000000E+00  0.45593999997E+02  0.45594000000E+02  0.51100000000E-03 0. -1.
         11   -1    0    0    0    0 -0.00000000000E+00 -0.00000000000E+00 -0.45593999997E+02  0.45594000000E+02  0.51100000000E-03 0.  1.
    9900012    2    1    2    0    0 -0.11533058532E+01 -0.13840894089E+00 -0.20925596764E+00  0.90007720590E+02  0.89999981702E+02 0.  0.
        -12    1    1    2    0    0  0.11533058532E+01  0.13840894089E+00  0.20925596764E+00  0.11802794101E+01  0.00000000000E+00 0.  1.
         11    1    3    3    0    0  0.36861034840E+01  0.42681843083E+01  0.68139700245E+01  0.88450519467E+01  0.51100000000E-03 0. -1.
        -11    1    3    3    0    0  0.36017515356E+02 -0.87457120890E+01 -0.13743225312E+02  0.39530053562E+02  0.51100000000E-03 0.  1.
         12    1    3    3    0    0 -0.40856924693E+02  0.43391188397E+01  0.67199993201E+01  0.41632615082E+02  0.00000000000E+00 0. -1.
</event>
<event>
 7    1  0.3662489E-015  0.9000769E+02  0.7816164E-02  0.1186339E+00
        -11   -1    0    0    0    0  0.00000000000E+00  0.00000000000E+00  0.45593999997E+02  0.45594000000E+02  0.51100000000E-03 0.  1.
         11   -1    0    0    0    0 -0.00000000000E+00 -0.00000000000E+00 -0.45593999997E+02  0.45594000000E+02  0.51100000000E-03 0. -1.
    9900012    2    1    2    0    0  0.68584755864E+00  0.10485076475E+00 -0.95485447514E+00  0.90007691724E+02  0.89999952455E+02 0.  0.
        -12    1    1    2    0    0 -0.68584755864E+00 -0.10485076475E+00  0.95485447514E+00  0.11803082755E+01  0.00000000000E+00 0.  1.
         11    1    3    3    0    0 -0.12063081036E+02  0.78934258047E+00 -0.28500547843E+02  0.30958394877E+02  0.51100000000E-03 0. -1.
        -11    1    3    3    0    0  0.26476947250E+02 -0.11371668442E+02  0.30113691191E+01  0.28972606425E+02  0.51100000000E-03 0.  1.
        -12    1    3    3    0    0 -0.13728018655E+02  0.10687176626E+02  0.24534324248E+02  0.30076690422E+02  0.00000000000E+00 0.  1.
</event>
<event>
 7    1  0.3662489E-015  0.9000774E+02  0.7816164E-02  0.1186339E+00
        -11   -1    0    0    0    0  0.00000000000E+00  0.00000000000E+00  0.45593999997E+02  0.45594000000E+02  0.51100000000E-03 0. -1.
         11   -1    0    0    0    0 -0.00000000000E+00 -0.00000000000E+00 -0.45593999997E+02  0.45594000000E+02  0.51100000000E-03 0.  1.
    9900012    2    1    2    0    0  0.80451342815E+00 -0.69865643690E+00  0.50758411294E+00  0.90007743967E+02  0.90000005387E+02 0.  0.
        -12    1    1    2    0    0 -0.80451342815E+00  0.69865643690E+00 -0.50758411294E+00  0.11802560335E+01  0.00000000000E+00 0.  1.
         11    1    3    3    0    0 -0.28948525262E+01 -0.79390459475E+01 -0.11723292507E+02  0.14451443152E+02  0.51100000000E-03 0. -1.
        -11    1    3    3    0    0 -0.69445294361E+01  0.70647027275E+01 -0.30214133890E+02  0.31796704243E+02  0.51100000000E-03 0.  1.
         12    1    3    3    0    0  0.10643895390E+02  0.17568678314E+00  0.42445010510E+02  0.43759596572E+02  0.00000000000E+00 0. -1.
</event>
<event>
 7    1  0.3662489E-015  0.9000821E+02  0.7816164E-02  0.1186338E+00
        -11   -1    0    0    0    0  0.00000000000E+00  0.00000000000E+00  0.45593999997E+02  0.45594000000E+02  0.51100000000E-03 0.  1.
         11   -1    0    0    0    0 -0.00000000000E+00 -0.00000000000E+00 -0.45593999997E+02  0.45594000000E+02  0.51100000000E-03 0. -1.
    9900012    2    1    2    0    0 -0.27588120491E+00 -0.11467020573E+01 -0.29385104869E-01  0.90008212082E+02  0.90000479680E+02 0.  0.
        -12    1    1    2    0    0  0.27588120491E+00  0.11467020573E+01  0.29385104869E-01  0.11797879181E+01  0.00000000000E+00 0.  1.
         11    1    3    3    0    0  0.20577032243E+02  0.72289483383E+01 -0.28627248705E+02  0.35988766562E+02  0.51100000000E-03 0. -1.
        -11    1    3    3    0    0  0.10743041404E+02 -0.52124725081E+00  0.10731906261E+00  0.10756214713E+02  0.51100000000E-03 0.  1.
        -12    1    3    3    0    0 -0.31595954852E+02 -0.78544031448E+01  0.28490544538E+02  0.43263230806E+02  0.00000000000E+00 0.  1.
</event>
<event>
 7    1  0.3662489E-015  0.9000773E+02  0.7816164E-02  0.1186339E+00
        -11   -1    0    0    0    0  0.00000000000E+00  0.00000000000E+00  0.45593999997E+02  0.45594000000E+02  0.51100000000E-03 0.  1.
         11   -1    0    0    0    0 -0.00000000000E+00 -0.00000000000E+00 -0.45593999997E+02  0.45594000000E+02  0.51100000000E-03 0. -1.
    9900012    2    1    2    0    0 -0.66604531324E+00  0.33539762501E+00 -0.91483460242E+00  0.90007732964E+02  0.89999994239E+02 0.  0.
        -12    1    1    2    0    0  0.66604531324E+00 -0.33539762501E+00  0.91483460242E+00  0.11802670359E+01  0.00000000000E+00 0.  1.
         11    1    3    3    0    0  0.35471218780E+02 -0.35359625200E+01 -0.45106162706E+01  0.35931268445E+02  0.51100000000E-03 0. -1.
        -11    1    3    3    0    0  0.84909907960E+01  0.21346986133E+01 -0.22335070399E+01  0.90356193382E+01  0.51100000000E-03 0.  1.
        -12    1    3    3    0    0 -0.44628254889E+02  0.17366615317E+01  0.58292887081E+01  0.45040845181E+02  0.00000000000E+00 0.  1.
</event>
<event>
 7    1  0.3662489E-015  0.9000768E+02  0.7816164E-02  0.1186339E+00
        -11   -1    0    0    0    0  0.00000000000E+00  0.00000000000E+00  0.45593999997E+02  0.45594000000E+02  0.51100000000E-03 0.  1.
         11   -1    0    0    0    0 -0.00000000000E+00 -0.00000000000E+00 -0.45593999997E+02  0.45594000000E+02  0.51100000000E-03 0. -1.
    9900012    2    1    2    0    0  0.86753205555E+00  0.53599505814E+00  0.59434658190E+00  0.90007682064E+02  0.89999942668E+02 0.  0.
        -12    1    1    2    0    0 -0.86753205555E+00 -0.53599505814E+00 -0.59434658190E+00  0.11803179356E+01  0.00000000000E+00 0.  1.
         11    1    3    3    0    0  0.32644369400E+01  0.30684025114E+02 -0.21524689670E+02  0.37622841618E+02  0.51100000000E-03 0. -1.
        -11    1    3    3    0    0 -0.25818804455E+00  0.53000286741E+01 -0.53145741886E+01  0.75101041325E+01  0.51100000000E-03 0.  1.
        -12    1    3    3    0    0 -0.21387168399E+01 -0.35448058730E+02  0.27433610440E+02  0.44874736314E+02  0.00000000000E+00 0.  1.
</event>
<event>
 7    1  0.3662489E-015  0.9000772E+02  0.7816164E-02  0.1186339E+00
        -11   -1    0    0    0    0  0.00000000000E+00  0.00000000000E+00  0.45593999997E+02  0.45594000000E+02  0.51100000000E-03 0.  1.
         11   -1    0    0    0    0 -0.00000000000E+00 -0.00000000000E+00 -0.45593999997E+02  0.45594000000E+02  0.51100000000E-03 0. -1.
    9900012    2    1    2    0    0  0.10912405818E+01  0.13111839186E+00  0.43017960313E+00  0.90007723536E+02  0.89999984687E+02 0.  0.
        -12    1    1    2    0    0 -0.10912405818E+01 -0.13111839186E+00 -0.43017960313E+00  0.11802764638E+01  0.00000000000E+00 0.  1.
         11    1    3    3    0    0 -0.21601489300E+02 -0.89025994814E+01 -0.25119542622E+02  0.34305568634E+02  0.51100000000E-03 0. -1.
        -11    1    3    3    0    0 -0.61919619482E+01  0.95610758952E+01 -0.60408458095E+01  0.12893656712E+02  0.51100000000E-03 0.  1.
        -12    1    3    3    0    0  0.28884691830E+02 -0.52735802189E+00  0.31590568035E+02  0.42808498191E+02  0.00000000000E+00 0.  1.
</event>
<event>
 7    1  0.3662489E-015  0.9000783E+02  0.7816164E-02  0.1186339E+00
        -11   -1    0    0    0    0  0.00000000000E+00  0.00000000000E+00  0.45593999997E+02  0.45594000000E+02  0.51100000000E-03 0.  1.
         11   -1    0    0    0    0 -0.00000000000E+00 -0.00000000000E+00 -0.45593999997E+02  0.45594000000E+02  0.51100000000E-03 0. -1.
    9900012    2    1    2    0    0  0.11603463090E+01 -0.71758765834E-01  0.20311892752E+00  0.90007826209E+02  0.90000088715E+02 0.  0.
        -12    1    1    2    0    0 -0.11603463090E+01  0.71758765834E-01 -0.20311892752E+00  0.11801737906E+01  0.00000000000E+00 0.  1.
         11    1    3    3    0    0 -0.28133688959E+01 -0.10201777469E+02 -0.25677302441E+01  0.10889653206E+02  0.51100000000E-03 0. -1.
        -11    1    3    3    0    0 -0.13798376354E+02 -0.31034736699E+02  0.44211773640E+01  0.34250501916E+02  0.51100000000E-03 0.  1.
         12    1    3    3    0    0  0.17772091559E+02  0.41164755402E+02 -0.16503281925E+01  0.44867671088E+02  0.00000000000E+00 0. -1.
</event>
<event>
 7    1  0.3662489E-015  0.9000774E+02  0.7816164E-02  0.1186339E+00
        -11   -1    0    0    0    0  0.00000000000E+00  0.00000000000E+00  0.45593999997E+02  0.45594000000E+02  0.51100000000E-03 0.  1.
         11   -1    0    0    0    0 -0.00000000000E+00 -0.00000000000E+00 -0.45593999997E+02  0.45594000000E+02  0.51100000000E-03 0. -1.
    9900012    2    1    2    0    0  0.53752596128E+00  0.60174359567E+00  0.86138362215E+00  0.90007741021E+02  0.90000002402E+02 0.  0.
        -12    1    1    2    0    0 -0.53752596128E+00 -0.60174359567E+00 -0.86138362215E+00  0.11802589794E+01  0.00000000000E+00 0.  1.
         11    1    3    3    0    0  0.27194451650E+01 -0.60454259337E+01 -0.44291141742E+01  0.79724280714E+01  0.51100000000E-03 0. -1.
        -11    1    3    3    0    0 -0.41837114915E+01 -0.18809944111E+02  0.36762625168E+02  0.41506722935E+02  0.51100000000E-03 0.  1.
         12    1    3    3    0    0  0.20017922878E+01  0.25457113640E+02 -0.31472127371E+02  0.40528590014E+02  0.00000000000E+00 0. -1.
</event>
<event>
 7    1  0.3662489E-015  0.9000770E+02  0.7816164E-02  0.1186339E+00
        -11   -1    0    0    0    0  0.00000000000E+00  0.00000000000E+00  0.45593999997E+02  0.45594000000E+02  0.51100000000E-03 0.  1.
         11   -1    0    0    0    0 -0.00000000000E+00 -0.00000000000E+00 -0.45593999997E+02  0.45594000000E+02  0.51100000000E-03 0. -1.
    9900012    2    1    2    0    0 -0.31361893125E+00  0.42952039748E+00  0.10536946823E+01  0.90007696188E+02  0.89999956977E+02 0.  0.
        -12    1    1    2    0    0  0.31361893125E+00 -0.42952039748E+00 -0.10536946823E+01  0.11803038124E+01  0.00000000000E+00 0.  1.
         11    1    3    3    0    0 -0.29596889056E+02  0.35648858411E+01 -0.21130240793E+02  0.36539996293E+02  0.51100000000E-03 0. -1.
        -11    1    3    3    0    0 -0.54132770587E+01  0.84611700152E+01 -0.10978225325E+01  0.10104463425E+02  0.51100000000E-03 0.  1.
        -12    1    3    3    0    0  0.34696547184E+02 -0.11596535459E+02  0.23281758008E+02  0.43363236469E+02  0.00000000000E+00 0.  1.
</event>
<event>
 7    1  0.3662489E-015  0.9000775E+02  0.7816164E-02  0.1186339E+00
        -11   -1    0    0    0    0  0.00000000000E+00  0.00000000000E+00  0.45593999997E+02  0.45594000000E+02  0.51100000000E-03 0.  1.
         11   -1    0    0    0    0 -0.00000000000E+00 -0.00000000000E+00 -0.45593999997E+02  0.45594000000E+02  0.51100000000E-03 0. -1.
    9900012    2    1    2    0    0 -0.93538166748E+00 -0.35013136306E+00 -0.62884617685E+00  0.90007754962E+02  0.90000016528E+02 0.  0.
        -12    1    1    2    0    0  0.93538166748E+00  0.35013136306E+00  0.62884617685E+00  0.11802450379E+01  0.00000000000E+00 0.  1.
         11    1    3    3    0    0  0.55211851559E+01 -0.38677748276E+01  0.77185919745E+01  0.10247918324E+02  0.51100000000E-03 0. -1.
        -11    1    3    3    0    0 -0.35809525037E+02 -0.20248766398E+02 -0.27672732591E+00  0.41138925633E+02  0.51100000000E-03 0.  1.
         12    1    3    3    0    0  0.29352958213E+02  0.23766409863E+02 -0.80707108254E+01  0.38620911005E+02  0.00000000000E+00 0. -1.
</event>
<event>
 7    1  0.3662489E-015  0.9000788E+02  0.7816164E-02  0.1186339E+00
        -11   -1    0    0    0    0  0.00000000000E+00  0.00000000000E+00  0.45593999997E+02  0.45594000000E+02  0.51100000000E-03 0. -1.
         11   -1    0    0    0    0 -0.00000000000E+00 -0.00000000000E+00 -0.45593999997E+02  0.45594000000E+02  0.51100000000E-03 0.  1.
    9900012    2    1    2    0    0 -0.74973588695E+00  0.76841917616E+00  0.49001030010E+00  0.90007880504E+02  0.90000143727E+02 0.  0.
        -12    1    1    2    0    0  0.74973588695E+00 -0.76841917616E+00 -0.49001030010E+00  0.11801194959E+01  0.00000000000E+00 0.  1.
         11    1    3    3    0    0 -0.61608548850E+01 -0.28384371955E+01 -0.87140390145E+01  0.11042976720E+02  0.51100000000E-03 0. -1.
        -11    1    3    3    0    0  0.24753671077E+02  0.14124347313E+02 -0.25250367254E+02  0.38076534316E+02  0.51100000000E-03 0.  1.
         12    1    3    3    0    0 -0.19342552079E+02 -0.10517490941E+02  0.34454416569E+02  0.40888369468E+02  0.00000000000E+00 0. -1.
</event>
<event>
 7    1  0.3662489E-015  0.9000779E+02  0.7816164E-02  0.1186339E+00
        -11   -1    0    0    0    0  0.00000000000E+00  0.00000000000E+00  0.45593999997E+02  0.45594000000E+02  0.51100000000E-03 0.  1.
         11   -1    0    0    0    0 -0.00000000000E+00 -0.00000000000E+00 -0.45593999997E+02  0.45594000000E+02  0.51100000000E-03 0. -1.
    9900012    2    1    2    0    0 -0.66072782716E-01 -0.93083451796E+00  0.72254605761E+00  0.90007791833E+02  0.90000053885E+02 0.  0.
        -12    1    1    2    0    0  0.66072782716E-01  0.93083451796E+00 -0.72254605761E+00  0.11802081671E+01  0.00000000000E+00 0.  1.
         11    1    3    3    0    0  0.25857827079E+00  0.55093414844E+01 -0.93372533286E+01  0.10844538086E+02  0.51100000000E-03 0. -1.
        -11    1    3    3    0    0  0.15506950163E+02  0.13478555095E+02  0.36865703223E+02  0.42204466887E+02  0.51100000000E-03 0.  1.
         12    1    3    3    0    0 -0.15831601217E+02 -0.19918731097E+02 -0.26805903837E+02  0.36958786860E+02  0.00000000000E+00 0. -1.
</event>
<event>
 7    1  0.3662489E-015  0.9000773E+02  0.7816164E-02  0.1186339E+00
        -11   -1    0    0    0    0  0.00000000000E+00  0.00000000000E+00  0.45593999997E+02  0.45594000000E+02  0.51100000000E-03 0.  1.
         11   -1    0    0    0    0 -0.00000000000E+00 -0.00000000000E+00 -0.45593999997E+02  0.45594000000E+02  0.51100000000E-03 0. -1.
    9900012    2    1    2    0    0 -0.92904144857E+00  0.18340426236E+00 -0.70447552331E+00  0.90007728464E+02  0.89999989679E+02 0.  0.
        -12    1    1    2    0    0  0.92904144857E+00 -0.18340426236E+00  0.70447552331E+00  0.11802715364E+01  0.00000000000E+00 0.  1.
         11    1    3    3    0    0  0.47975771258E+01  0.63888129028E+01 -0.87030763830E+01  0.11814280146E+02  0.51100000000E-03 0. -1.
        -11    1    3    3    0    0  0.12243835146E+02  0.17819519008E+02  0.32788197652E+02  0.39274834974E+02  0.51100000000E-03 0.  1.
         12    1    3    3    0    0 -0.17970453720E+02 -0.24024927649E+02 -0.24789596792E+02  0.38918613343E+02  0.00000000000E+00 0. -1.
</event>
<event>
 7    1  0.3662489E-015  0.9000777E+02  0.7816164E-02  0.1186339E+00
        -11   -1    0    0    0    0  0.00000000000E+00  0.00000000000E+00  0.45593999997E+02  0.45594000000E+02  0.51100000000E-03 0.  1.
         11   -1    0    0    0    0 -0.00000000000E+00 -0.00000000000E+00 -0.45593999997E+02  0.45594000000E+02  0.51100000000E-03 0. -1.
    9900012    2    1    2    0    0 -0.97912155797E+00  0.53425891942E+00 -0.38578908746E+00  0.90007769159E+02  0.90000030912E+02 0.  0.
        -12    1    1    2    0    0  0.97912155797E+00 -0.53425891942E+00  0.38578908746E+00  0.11802308411E+01  0.00000000000E+00 0.  1.
         11    1    3    3    0    0 -0.91770680673E+01  0.87458653708E+01 -0.32214269586E+02  0.34618895196E+02  0.51100000000E-03 0. -1.
        -11    1    3    3    0    0 -0.13652656069E+01  0.12011690795E+02 -0.43541487310E+01  0.12849252016E+02  0.51100000000E-03 0.  1.
        -12    1    3    3    0    0  0.95632121162E+01 -0.20223297246E+02  0.36182629229E+02  0.42539621947E+02  0.00000000000E+00 0.  1.
</event>
<event>
 7    1  0.3662489E-015  0.9000781E+02  0.7816164E-02  0.1186339E+00
        -11   -1    0    0    0    0  0.00000000000E+00  0.00000000000E+00  0.45593999997E+02  0.45594000000E+02  0.51100000000E-03 0. -1.
         11   -1    0    0    0    0 -0.00000000000E+00 -0.00000000000E+00 -0.45593999997E+02  0.45594000000E+02  0.51100000000E-03 0.  1.
    9900012    2    1    2    0    0 -0.32427961985E+00  0.38521169169E+00  0.10673811386E+01  0.90007810263E+02  0.90000072559E+02 0.  0.
        -12    1    1    2    0    0  0.32427961985E+00 -0.38521169169E+00 -0.10673811386E+01  0.11801897366E+01  0.00000000000E+00 0.  1.
         11    1    3    3    0    0 -0.88444778345E+01 -0.53523684208E+01  0.41653472495E+02  0.42917180791E+02  0.51100000000E-03 0. -1.
        -11    1    3    3    0    0 -0.55258181963E+01 -0.20366049767E+01 -0.39491741878E+01  0.70907265916E+01  0.51100000000E-03 0.  1.
        -12    1    3    3    0    0  0.14046016411E+02  0.77741850892E+01 -0.36636917169E+02  0.39999902881E+02  0.00000000000E+00 0.  1.
</event>
<event>
 7    1  0.3662489E-015  0.9000758E+02  0.7816164E-02  0.1186339E+00
        -11   -1    0    0    0    0  0.00000000000E+00  0.00000000000E+00  0.45593999997E+02  0.45594000000E+02  0.51100000000E-03 0.  1.
         11   -1    0    0    0    0 -0.00000000000E+00 -0.00000000000E+00 -0.45593999997E+02  0.45594000000E+02  0.51100000000E-03 0. -1.
    9900012    2    1    2    0    0  0.23897871887E+00  0.66813814466E+00  0.94333267325E+00  0.90007578067E+02  0.89999837297E+02 0.  0.
        -12    1    1    2    0    0 -0.23897871887E+00 -0.66813814466E+00 -0.94333267325E+00  0.11804219334E+01  0.00000000000E+00 0.  1.
         11    1    3    3    0    0  0.56667117901E+01  0.32843814479E+02 -0.13788726127E+02  0.36068777918E+02  0.51100000000E-03 0. -1.
        -11    1    3    3    0    0  0.15073725225E+01  0.71257244504E+01 -0.55642470257E+01  0.91656405171E+01  0.51100000000E-03 0.  1.
        -12    1    3    3    0    0 -0.69351055937E+01 -0.39301400785E+02  0.20296305826E+02  0.44773159632E+02  0.00000000000E+00 0.  1.
</event>
<event>
 7    1  0.3662489E-015  0.9000773E+02  0.7816164E-02  0.1186339E+00
        -11   -1    0    0    0    0  0.00000000000E+00  0.00000000000E+00  0.45593999997E+02  0.45594000000E+02  0.51100000000E-03 0.  1.
         11   -1    0    0    0    0 -0.00000000000E+00 -0.00000000000E+00 -0.45593999997E+02  0.45594000000E+02  0.51100000000E-03 0. -1.
    9900012    2    1    2    0    0  0.92362101645E+00  0.12553601364E+00 -0.72402093548E+00  0.90007728257E+02  0.89999989470E+02 0.  0.
        -12    1    1    2    0    0 -0.92362101645E+00 -0.12553601364E+00  0.72402093548E+00  0.11802717432E+01  0.00000000000E+00 0.  1.
         11    1    3    3    0    0  0.14796536416E+01 -0.92699764958E+01  0.65192774136E+01  0.11429033966E+02  0.51100000000E-03 0. -1.
        -11    1    3    3    0    0  0.27650217924E+01 -0.15187257349E+02  0.30053302426E+02  0.33786078764E+02  0.51100000000E-03 0.  1.
         12    1    3    3    0    0 -0.33210544176E+01  0.24582769859E+02 -0.37296600775E+02  0.44792615527E+02  0.00000000000E+00 0. -1.
</event>
<event>
 7    1  0.3662489E-015  0.9000775E+02  0.7816164E-02  0.1186339E+00
        -11   -1    0    0    0    0  0.00000000000E+00  0.00000000000E+00  0.45593999997E+02  0.45594000000E+02  0.51100000000E-03 0.  1.
         11   -1    0    0    0    0 -0.00000000000E+00 -0.00000000000E+00 -0.45593999997E+02  0.45594000000E+02  0.51100000000E-03 0. -1.
    9900012    2    1    2    0    0  0.11714585701E+01 -0.49093099497E-01 -0.13513594923E+00  0.90007751281E+02  0.90000012798E+02 0.  0.
        -12    1    1    2    0    0 -0.11714585701E+01  0.49093099497E-01  0.13513594923E+00  0.11802487190E+01  0.00000000000E+00 0.  1.
         11    1    3    3    0    0 -0.51307247016E+01  0.64966084396E+01  0.35421010924E+01  0.90042621902E+01  0.51100000000E-03 0. -1.
        -11    1    3    3    0    0  0.34441297339E+02  0.71145573678E+01  0.21176537535E+02  0.41051986933E+02  0.51100000000E-03 0.  1.
         12    1    3    3    0    0 -0.28139114067E+02 -0.13660258907E+02 -0.24853774577E+02  0.39951502157E+02  0.00000000000E+00 0. -1.
</event>
<event>
 7    1  0.3662489E-015  0.9000764E+02  0.7816164E-02  0.1186339E+00
        -11   -1    0    0    0    0  0.00000000000E+00  0.00000000000E+00  0.45593999997E+02  0.45594000000E+02  0.51100000000E-03 0. -1.
         11   -1    0    0    0    0 -0.00000000000E+00 -0.00000000000E+00 -0.45593999997E+02  0.45594000000E+02  0.51100000000E-03 0.  1.
    9900012    2    1    2    0    0  0.41922588873E+00 -0.92834138265E+00  0.59638982355E+00  0.90007640356E+02  0.89999900408E+02 0.  0.
        -12    1    1    2    0    0 -0.41922588873E+00  0.92834138265E+00 -0.59638982355E+00  0.11803596444E+01  0.00000000000E+00 0.  1.
         11    1    3    3    0    0  0.12275080302E+00 -0.11174475675E+02 -0.34559720302E+01  0.11697338044E+02  0.51100000000E-03 0. -1.
        -11    1    3    3    0    0  0.24150151699E+02 -0.25567617008E+02  0.22559715254E+01  0.35242336392E+02  0.51100000000E-03 0.  1.
         12    1    3    3    0    0 -0.23853676613E+02  0.35813751301E+02  0.17963903283E+01  0.43067965920E+02  0.00000000000E+00 0. -1.
</event>
<event>
 7    1  0.3990012E-015  0.9000772E+02  0.7816164E-02  0.1186339E+00
        -11   -1    0    0    0    0  0.00000000000E+00  0.00000000000E+00  0.45593999997E+02  0.45594000000E+02  0.51100000000E-03 0. -1.
         11   -1    0    0    0    0 -0.00000000000E+00 -0.00000000000E+00 -0.45593999997E+02  0.45594000000E+02  0.51100000000E-03 0.  1.
    9900012    2    1    2    0    0  0.47252198753E+00 -0.10614139987E+01  0.20780870457E+00  0.90007719879E+02  0.89999980982E+02 0.  0.
        -12    1    1    2    0    0 -0.47252198753E+00  0.10614139987E+01 -0.20780870457E+00  0.11802801205E+01  0.00000000000E+00 0.  1.
         11    1    3    3    0    0  0.37667330521E+01  0.37815925301E+02  0.15771422121E+02  0.41145719586E+02  0.51100000000E-03 0. -1.
        -11    1    3    3    0    0  0.52520149361E+01 -0.11653973452E+01 -0.77147509224E+01  0.94052747922E+01  0.51100000000E-03 0.  1.
        -12    1    3    3    0    0 -0.85462260006E+01 -0.37711941955E+02 -0.78488624940E+01  0.39456725501E+02  0.00000000000E+00 0.  1.
</event>
<event>
 7    1  0.3662489E-015  0.9000747E+02  0.7816164E-02  0.1186340E+00
        -11   -1    0    0    0    0  0.00000000000E+00  0.00000000000E+00  0.45593999997E+02  0.45594000000E+02  0.51100000000E-03 0.  1.
         11   -1    0    0    0    0 -0.00000000000E+00 -0.00000000000E+00 -0.45593999997E+02  0.45594000000E+02  0.51100000000E-03 0. -1.
    9900012    2    1    2    0    0 -0.24463417264E+00  0.30944656070E+00 -0.11126724018E+01  0.90007473454E+02  0.89999731303E+02 0.  0.
        -12    1    1    2    0    0  0.24463417264E+00 -0.30944656070E+00  0.11126724018E+01  0.11805265461E+01  0.00000000000E+00 0.  1.
         11    1    3    3    0    0  0.15992863376E+00  0.23868803871E+01 -0.91983347158E+00  0.25629804967E+01  0.51100000000E-03 0. -1.
        -11    1    3    3    0    0  0.26858848419E+02 -0.32330746851E+02  0.14022874479E+02  0.44309321133E+02  0.51100000000E-03 0.  1.
         12    1    3    3    0    0 -0.27263411225E+02  0.30253313024E+02 -0.14215713409E+02  0.43135171825E+02  0.00000000000E+00 0. -1.
</event>
<event>
 7    1  0.3662489E-015  0.9000813E+02  0.7816164E-02  0.1186338E+00
        -11   -1    0    0    0    0  0.00000000000E+00  0.00000000000E+00  0.45593999997E+02  0.45594000000E+02  0.51100000000E-03 0.  1.
         11   -1    0    0    0    0 -0.00000000000E+00 -0.00000000000E+00 -0.45593999997E+02  0.45594000000E+02  0.51100000000E-03 0. -1.
    9900012    2    1    2    0    0  0.71137221249E+00 -0.18231435795E+00 -0.92347870308E+00  0.90008126335E+02  0.90000392802E+02 0.  0.
        -12    1    1    2    0    0 -0.71137221249E+00  0.18231435795E+00  0.92347870308E+00  0.11798736648E+01  0.00000000000E+00 0.  1.
         11    1    3    3    0    0 -0.84035357008E+01  0.68277992285E+01  0.61211239835E+01  0.12438103298E+02  0.51100000000E-03 0. -1.
        -11    1    3    3    0    0  0.16342710113E+02 -0.19544534483E+02  0.29076372031E+02  0.38658872368E+02  0.51100000000E-03 0.  1.
         12    1    3    3    0    0 -0.72278021996E+01  0.12534420896E+02 -0.36120974718E+02  0.38911150669E+02  0.00000000000E+00 0. -1.
</event>
<event>
 7    1  0.3662489E-015  0.9000779E+02  0.7816164E-02  0.1186339E+00
        -11   -1    0    0    0    0  0.00000000000E+00  0.00000000000E+00  0.45593999997E+02  0.45594000000E+02  0.51100000000E-03 0. -1.
         11   -1    0    0    0    0 -0.00000000000E+00 -0.00000000000E+00 -0.45593999997E+02  0.45594000000E+02  0.51100000000E-03 0.  1.
    9900012    2    1    2    0    0  0.90984716487E+00  0.74790794272E+00  0.75497462458E-01  0.90007793230E+02  0.90000055300E+02 0.  0.
        -12    1    1    2    0    0 -0.90984716487E+00 -0.74790794272E+00 -0.75497462458E-01  0.11802067705E+01  0.00000000000E+00 0.  1.
         11    1    3    3    0    0  0.47539004522E+01 -0.43338643271E+01  0.10488339888E+02  0.12303951536E+02  0.51100000000E-03 0. -1.
        -11    1    3    3    0    0  0.71558992708E+01  0.39433520512E+02  0.29305231649E+00  0.40078614176E+02  0.51100000000E-03 0.  1.
         12    1    3    3    0    0 -0.10999952558E+02 -0.34351748242E+02 -0.10705894742E+02  0.37625227518E+02  0.00000000000E+00 0. -1.
</event>
<event>
 7    1  0.3662489E-015  0.9000804E+02  0.7816164E-02  0.1186338E+00
        -11   -1    0    0    0    0  0.00000000000E+00  0.00000000000E+00  0.45593999997E+02  0.45594000000E+02  0.51100000000E-03 0.  1.
         11   -1    0    0    0    0 -0.00000000000E+00 -0.00000000000E+00 -0.45593999997E+02  0.45594000000E+02  0.51100000000E-03 0. -1.
    9900012    2    1    2    0    0 -0.71081136754E+00  0.69579275986E+00 -0.63476954156E+00  0.90008036977E+02  0.90000302265E+02 0.  0.
        -12    1    1    2    0    0  0.71081136754E+00 -0.69579275986E+00  0.63476954156E+00  0.11799630231E+01  0.00000000000E+00 0.  1.
         11    1    3    3    0    0  0.29992081799E+02  0.19175967505E+02 -0.19299090391E+02  0.40493179556E+02  0.51100000000E-03 0. -1.
        -11    1    3    3    0    0  0.14793578800E+01  0.47650032431E+01 -0.11874598673E+01  0.51287246798E+01  0.51100000000E-03 0.  1.
        -12    1    3    3    0    0 -0.32182251046E+02 -0.23245177988E+02  0.19851780717E+02  0.44386132741E+02  0.00000000000E+00 0.  1.
</event>
<event>
 7    1  0.3662489E-015  0.9000782E+02  0.7816164E-02  0.1186339E+00
        -11   -1    0    0    0    0  0.00000000000E+00  0.00000000000E+00  0.45593999997E+02  0.45594000000E+02  0.51100000000E-03 0. -1.
         11   -1    0    0    0    0 -0.00000000000E+00 -0.00000000000E+00 -0.45593999997E+02  0.45594000000E+02  0.51100000000E-03 0.  1.
    9900012    2    1    2    0    0 -0.93110211980E+00  0.31686306423E+00  0.65228670487E+00  0.90007817258E+02  0.90000079646E+02 0.  0.
        -12    1    1    2    0    0  0.93110211980E+00 -0.31686306423E+00 -0.65228670487E+00  0.11801827419E+01  0.00000000000E+00 0.  1.
         11    1    3    3    0    0  0.48105502430E+01  0.61691055834E+01  0.50515901736E+01  0.93122403794E+01  0.51100000000E-03 0. -1.
        -11    1    3    3    0    0 -0.34704472034E+02  0.21323651894E+02  0.40189398636E-01  0.40732052793E+02  0.51100000000E-03 0.  1.
         12    1    3    3    0    0  0.28962819671E+02 -0.27175894414E+02 -0.44394928674E+01  0.39963524086E+02  0.00000000000E+00 0. -1.
</event>
<event>
 7    1  0.3662489E-015  0.9000774E+02  0.7816164E-02  0.1186339E+00
        -11   -1    0    0    0    0  0.00000000000E+00  0.00000000000E+00  0.45593999997E+02  0.45594000000E+02  0.51100000000E-03 0. -1.
         11   -1    0    0    0    0 -0.00000000000E+00 -0.00000000000E+00 -0.45593999997E+02  0.45594000000E+02  0.51100000000E-03 0.  1.
    9900012    2    1    2    0    0  0.16164647359E+00  0.77505179139E+00  0.87532121528E+00  0.90007736431E+02  0.89999997752E+02 0.  0.
        -12    1    1    2    0    0 -0.16164647359E+00 -0.77505179139E+00 -0.87532121528E+00  0.11802635687E+01  0.00000000000E+00 0.  1.
         11    1    3    3    0    0 -0.88780673456E+01 -0.62257599094E+01 -0.96734024667E+01  0.14531169319E+02  0.51100000000E-03 0. -1.
        -11    1    3    3    0    0 -0.11601001027E+02  0.10124027221E+02 -0.27819845250E+02  0.31796586956E+02  0.51100000000E-03 0.  1.
         12    1    3    3    0    0  0.20640714846E+02 -0.31232155206E+01  0.38368568932E+02  0.43679980156E+02  0.00000000000E+00 0. -1.
</event>
<event>
 7    1  0.3662489E-015  0.9000766E+02  0.7816164E-02  0.1186339E+00
        -11   -1    0    0    0    0  0.00000000000E+00  0.00000000000E+00  0.45593999997E+02  0.45594000000E+02  0.51100000000E-03 0. -1.
         11   -1    0    0    0    0 -0.00000000000E+00 -0.00000000000E+00 -0.45593999997E+02  0.45594000000E+02  0.51100000000E-03 0.  1.
    9900012    2    1    2    0    0  0.23093601597E+00 -0.42475549842E+00  0.10767763475E+01  0.90007662769E+02  0.89999923117E+02 0.  0.
        -12    1    1    2    0    0 -0.23093601597E+00  0.42475549842E+00 -0.10767763475E+01  0.11803372313E+01  0.00000000000E+00 0.  1.
         11    1    3    3    0    0  0.71675047190E+00  0.34045644060E+02 -0.15384289148E+02  0.37367043816E+02  0.51100000000E-03 0. -1.
        -11    1    3    3    0    0 -0.37747807289E+01  0.72152325646E+01  0.18904997988E+01  0.83595777563E+01  0.51100000000E-03 0.  1.
        -12    1    3    3    0    0  0.32889662729E+01 -0.41685632123E+02  0.14570565697E+02  0.44281041196E+02  0.00000000000E+00 0.  1.
</event>
<event>
 7    1  0.3662489E-015  0.9000775E+02  0.7816164E-02  0.1186339E+00
        -11   -1    0    0    0    0  0.00000000000E+00  0.00000000000E+00  0.45593999997E+02  0.45594000000E+02  0.51100000000E-03 0. -1.
         11   -1    0    0    0    0 -0.00000000000E+00 -0.00000000000E+00 -0.45593999997E+02  0.45594000000E+02  0.51100000000E-03 0.  1.
    9900012    2    1    2    0    0  0.11499587894E+01 -0.25331249681E+00 -0.80057605307E-01  0.90007753560E+02  0.90000015107E+02 0.  0.
        -12    1    1    2    0    0 -0.11499587894E+01  0.25331249681E+00  0.80057605307E-01  0.11802464398E+01  0.00000000000E+00 0.  1.
         11    1    3    3    0    0 -0.13131506441E+02 -0.21252984147E+02  0.17184616461E+02  0.30322216933E+02  0.51100000000E-03 0. -1.
        -11    1    3    3    0    0 -0.14947279718E+02 -0.21598234594E+01  0.54088365894E+01  0.16041867780E+02  0.51100000000E-03 0.  1.
        -12    1    3    3    0    0  0.29228744949E+02  0.23159495109E+02 -0.22673510656E+02  0.43643668847E+02  0.00000000000E+00 0.  1.
</event>
<event>
 7    1  0.3662489E-015  0.9000772E+02  0.7816164E-02  0.1186339E+00
        -11   -1    0    0    0    0  0.00000000000E+00  0.00000000000E+00  0.45593999997E+02  0.45594000000E+02  0.51100000000E-03 0. -1.
         11   -1    0    0    0    0 -0.00000000000E+00 -0.00000000000E+00 -0.45593999997E+02  0.45594000000E+02  0.51100000000E-03 0.  1.
    9900012    2    1    2    0    0 -0.11345711173E+01 -0.28376792715E+00 -0.15900371085E+00  0.90007721204E+02  0.89999982324E+02 0.  0.
        -12    1    1    2    0    0  0.11345711173E+01  0.28376792715E+00  0.15900371085E+00  0.11802787962E+01  0.00000000000E+00 0.  1.
         11    1    3    3    0    0 -0.62752293423E+01  0.34219620423E+02  0.43287806951E+01  0.35058512059E+02  0.51100000000E-03 0. -1.
        -11    1    3    3    0    0 -0.45992075752E+01  0.87368317540E+01  0.22226194653E+01  0.10120522564E+02  0.51100000000E-03 0.  1.
        -12    1    3    3    0    0  0.97398658001E+01 -0.43240220104E+02 -0.67104038713E+01  0.44828686581E+02  0.00000000000E+00 0.  1.
</event>
<event>
 7    1  0.3662489E-015  0.9000765E+02  0.7816164E-02  0.1186339E+00
        -11   -1    0    0    0    0  0.00000000000E+00  0.00000000000E+00  0.45593999997E+02  0.45594000000E+02  0.51100000000E-03 0. -1.
         11   -1    0    0    0    0 -0.00000000000E+00 -0.00000000000E+00 -0.45593999997E+02  0.45594000000E+02  0.51100000000E-03 0.  1.
    9900012    2    1    2    0    0  0.81327893480E+00 -0.19659505539E+00 -0.83256063313E+00  0.90007648591E+02  0.89999908752E+02 0.  0.
        -12    1    1    2    0    0 -0.81327893480E+00  0.19659505539E+00  0.83256063313E+00  0.11803514093E+01  0.00000000000E+00 0.  1.
         11    1    3    3    0    0  0.11658074895E+02 -0.13468689026E+02  0.13443857545E+02  0.22317114515E+02  0.51100000000E-03 0. -1.
        -11    1    3    3    0    0  0.88976944338E+01  0.25052984063E+00  0.22369675247E+02  0.24075591423E+02  0.51100000000E-03 0.  1.
        -12    1    3    3    0    0 -0.19742490394E+02  0.13021564130E+02 -0.36646093424E+02  0.43614942653E+02  0.00000000000E+00 0.  1.
</event>
<event>
 7    1  0.3662489E-015  0.9000766E+02  0.7816164E-02  0.1186339E+00
        -11   -1    0    0    0    0  0.00000000000E+00  0.00000000000E+00  0.45593999997E+02  0.45594000000E+02  0.51100000000E-03 0. -1.
         11   -1    0    0    0    0 -0.00000000000E+00 -0.00000000000E+00 -0.45593999997E+02  0.45594000000E+02  0.51100000000E-03 0.  1.
    9900012    2    1    2    0    0  0.98536459339E+00 -0.41929290557E+00  0.49643727734E+00  0.90007661111E+02  0.89999921438E+02 0.  0.
        -12    1    1    2    0    0 -0.98536459339E+00  0.41929290557E+00 -0.49643727734E+00  0.11803388890E+01  0.00000000000E+00 0.  1.
         11    1    3    3    0    0  0.30427947002E+02 -0.15442926472E+02  0.20372277792E+02  0.39741334143E+02  0.51100000000E-03 0. -1.
        -11    1    3    3    0    0  0.14003308110E+01  0.74546319124E+01  0.57017161377E+01  0.94890479241E+01  0.51100000000E-03 0.  1.
        -12    1    3    3    0    0 -0.30842913220E+02  0.75690016543E+01 -0.25577556652E+02  0.40777279044E+02  0.00000000000E+00 0.  1.
</event>
<event>
 7    1  0.3662489E-015  0.9000775E+02  0.7816164E-02  0.1186339E+00
        -11   -1    0    0    0    0  0.00000000000E+00  0.00000000000E+00  0.45593999997E+02  0.45594000000E+02  0.51100000000E-03 0. -1.
         11   -1    0    0    0    0 -0.00000000000E+00 -0.00000000000E+00 -0.45593999997E+02  0.45594000000E+02  0.51100000000E-03 0.  1.
    9900012    2    1    2    0    0  0.26974965139E+00 -0.45244030641E+00  0.10561879467E+01  0.90007745754E+02  0.90000007198E+02 0.  0.
        -12    1    1    2    0    0 -0.26974965139E+00  0.45244030641E+00 -0.10561879467E+01  0.11802542455E+01  0.00000000000E+00 0.  1.
         11    1    3    3    0    0 -0.16932740783E+02 -0.89695991701E+01  0.32362668429E+02  0.37610021640E+02  0.51100000000E-03 0. -1.
        -11    1    3    3    0    0 -0.74849094377E+00  0.13479141213E+01  0.82384053894E+01  0.83814339341E+01  0.51100000000E-03 0.  1.
        -12    1    3    3    0    0  0.17950981378E+02  0.71692447424E+01 -0.39544885871E+02  0.44016290180E+02  0.00000000000E+00 0.  1.
</event>
<event>
 7    1  0.3662489E-015  0.9000772E+02  0.7816164E-02  0.1186339E+00
        -11   -1    0    0    0    0  0.00000000000E+00  0.00000000000E+00  0.45593999997E+02  0.45594000000E+02  0.51100000000E-03 0.  1.
         11   -1    0    0    0    0 -0.00000000000E+00 -0.00000000000E+00 -0.45593999997E+02  0.45594000000E+02  0.51100000000E-03 0. -1.
    9900012    2    1    2    0    0 -0.10903753372E+01 -0.21331159954E+00  0.39829292744E+00  0.90007721444E+02  0.89999982567E+02 0.  0.
        -12    1    1    2    0    0  0.10903753372E+01  0.21331159954E+00 -0.39829292744E+00  0.11802785563E+01  0.00000000000E+00 0.  1.
         11    1    3    3    0    0 -0.45614703325E+01 -0.35982277780E+01 -0.23202042424E+02  0.23918382630E+02  0.51100000000E-03 0. -1.
        -11    1    3    3    0    0 -0.20922870831E+02 -0.13427654865E+02 -0.44897134644E+01  0.25263134529E+02  0.51100000000E-03 0.  1.
        -12    1    3    3    0    0  0.24393965826E+02  0.16812571043E+02  0.28090048816E+02  0.40826204285E+02  0.00000000000E+00 0.  1.
</event>
<event>
 7    1  0.3662489E-015  0.9000781E+02  0.7816164E-02  0.1186339E+00
        -11   -1    0    0    0    0  0.00000000000E+00  0.00000000000E+00  0.45593999997E+02  0.45594000000E+02  0.51100000000E-03 0. -1.
         11   -1    0    0    0    0 -0.00000000000E+00 -0.00000000000E+00 -0.45593999997E+02  0.45594000000E+02  0.51100000000E-03 0.  1.
    9900012    2    1    2    0    0  0.77718627562E+00  0.71944241240E+00  0.52079548486E+00  0.90007811952E+02  0.90000074270E+02 0.  0.
        -12    1    1    2    0    0 -0.77718627562E+00 -0.71944241240E+00 -0.52079548486E+00  0.11801880481E+01  0.00000000000E+00 0.  1.
         11    1    3    3    0    0  0.27846092974E+01  0.10999347578E+01 -0.70917489089E+01  0.76978443904E+01  0.51100000000E-03 0. -1.
        -11    1    3    3    0    0  0.21488770467E+02 -0.24100667332E+02 -0.20850804928E+02  0.38436512438E+02  0.51100000000E-03 0.  1.
         12    1    3    3    0    0 -0.23496193488E+02  0.23720174987E+02  0.28463349322E+02  0.43873455123E+02  0.00000000000E+00 0. -1.
</event>
<event>
 7    1  0.3662489E-015  0.9000769E+02  0.7816164E-02  0.1186339E+00
        -11   -1    0    0    0    0  0.00000000000E+00  0.00000000000E+00  0.45593999997E+02  0.45594000000E+02  0.51100000000E-03 0.  1.
         11   -1    0    0    0    0 -0.00000000000E+00 -0.00000000000E+00 -0.45593999997E+02  0.45594000000E+02  0.51100000000E-03 0. -1.
    9900012    2    1    2    0    0  0.10473157219E+01  0.19388483251E+00 -0.50858513128E+00  0.90007694791E+02  0.89999955563E+02 0.  0.
        -12    1    1    2    0    0 -0.10473157219E+01 -0.19388483251E+00  0.50858513128E+00  0.11803052085E+01  0.00000000000E+00 0.  1.
         11    1    3    3    0    0 -0.24345310867E+02  0.34373817840E+02  0.75317131763E+01  0.42789954636E+02  0.51100000000E-03 0. -1.
        -11    1    3    3    0    0  0.60912162444E+01 -0.32159247689E+01  0.49553442050E+01  0.84853122457E+01  0.51100000000E-03 0.  1.
        -12    1    3    3    0    0  0.19301410345E+02 -0.30964008239E+02 -0.12995642513E+02  0.38732427910E+02  0.00000000000E+00 0.  1.
</event>
<event>
 7    1  0.3662489E-015  0.9000740E+02  0.7816164E-02  0.1186340E+00
        -11   -1    0    0    0    0  0.00000000000E+00  0.00000000000E+00  0.45593999997E+02  0.45594000000E+02  0.51100000000E-03 0. -1.
         11   -1    0    0    0    0 -0.00000000000E+00 -0.00000000000E+00 -0.45593999997E+02  0.45594000000E+02  0.51100000000E-03 0.  1.
    9900012    2    1    2    0    0 -0.64208509301E+00 -0.10004194433E-01  0.99067512139E+00  0.90007402462E+02  0.89999659374E+02 0.  0.
        -12    1    1    2    0    0  0.64208509301E+00  0.10004194433E-01 -0.99067512139E+00  0.11805975380E+01  0.00000000000E+00 0.  1.
         11    1    3    3    0    0 -0.22022290679E+01  0.61228783496E+01  0.67734588121E+01  0.93925074763E+01  0.51100000000E-03 0. -1.
        -11    1    3    3    0    0 -0.27444620972E+02 -0.24316199223E+02 -0.21972334094E+02  0.42746558116E+02  0.51100000000E-03 0.  1.
         12    1    3    3    0    0  0.29004764947E+02  0.18183316679E+02  0.16189550403E+02  0.37868336870E+02  0.00000000000E+00 0. -1.
</event>
<event>
 7    1  0.3662489E-015  0.9000693E+02  0.7816164E-02  0.1186341E+00
        -11   -1    0    0    0    0  0.00000000000E+00  0.00000000000E+00  0.45593999997E+02  0.45594000000E+02  0.51100000000E-03 0. -1.
         11   -1    0    0    0    0 -0.00000000000E+00 -0.00000000000E+00 -0.45593999997E+02  0.45594000000E+02  0.51100000000E-03 0.  1.
    9900012    2    1    2    0    0 -0.55700298950E+00 -0.19279011315E+00  0.10234750742E+01  0.90006932015E+02  0.89999182714E+02 0.  0.
        -12    1    1    2    0    0  0.55700298950E+00  0.19279011315E+00 -0.10234750742E+01  0.11810679851E+01  0.00000000000E+00 0.  1.
         11    1    3    3    0    0 -0.13249612214E+02  0.12618679825E+02  0.36984580529E+02  0.41263088851E+02  0.51100000000E-03 0. -1.
        -11    1    3    3    0    0 -0.86872082306E+01 -0.20272073782E+01 -0.87243750491E+01  0.12477655102E+02  0.51100000000E-03 0.  1.
        -12    1    3    3    0    0  0.21379817455E+02 -0.10784262560E+02 -0.27236730405E+02  0.36266188062E+02  0.00000000000E+00 0.  1.
</event>
<event>
 7    1  0.3662489E-015  0.9000772E+02  0.7816164E-02  0.1186339E+00
        -11   -1    0    0    0    0  0.00000000000E+00  0.00000000000E+00  0.45593999997E+02  0.45594000000E+02  0.51100000000E-03 0. -1.
         11   -1    0    0    0    0 -0.00000000000E+00 -0.00000000000E+00 -0.45593999997E+02  0.45594000000E+02  0.51100000000E-03 0.  1.
    9900012    2    1    2    0    0 -0.81037236559E+00  0.21456816668E+00  0.83086002905E+00  0.90007715603E+02  0.89999976649E+02 0.  0.
        -12    1    1    2    0    0  0.81037236559E+00 -0.21456816668E+00 -0.83086002905E+00  0.11802843966E+01  0.00000000000E+00 0.  1.
         11    1    3    3    0    0 -0.26394893163E+01 -0.21651358782E+01  0.42727059971E+01  0.54690706725E+01  0.51100000000E-03 0. -1.
        -11    1    3    3    0    0  0.20574857027E+01 -0.27393096638E+02 -0.32760007165E+02  0.42753164334E+02  0.51100000000E-03 0.  1.
         12    1    3    3    0    0 -0.22836875197E+00  0.29772800683E+02  0.29318161196E+02  0.41785480597E+02  0.00000000000E+00 0. -1.
</event>
<event>
 7    1  0.3662489E-015  0.9000775E+02  0.7816164E-02  0.1186339E+00
        -11   -1    0    0    0    0  0.00000000000E+00  0.00000000000E+00  0.45593999997E+02  0.45594000000E+02  0.51100000000E-03 0.  1.
         11   -1    0    0    0    0 -0.00000000000E+00 -0.00000000000E+00 -0.45593999997E+02  0.45594000000E+02  0.51100000000E-03 0. -1.
    9900012    2    1    2    0    0 -0.10724487573E+00  0.50768357759E+00 -0.10600704794E+01  0.90007748544E+02  0.90000010025E+02 0.  0.
        -12    1    1    2    0    0  0.10724487573E+00 -0.50768357759E+00  0.10600704794E+01  0.11802514561E+01  0.00000000000E+00 0.  1.
         11    1    3    3    0    0  0.34232961797E+02 -0.13288101473E+02 -0.32724170545E+00  0.36722968310E+02  0.51100000000E-03 0. -1.
        -11    1    3    3    0    0 -0.41172600817E+01 -0.83879981623E+01 -0.10981215391E+02  0.14418648878E+02  0.51100000000E-03 0.  1.
        -12    1    3    3    0    0 -0.30222946591E+02  0.22183783213E+02  0.10248386617E+02  0.38866131355E+02  0.00000000000E+00 0.  1.
</event>
<event>
 7    1  0.3662489E-015  0.9000777E+02  0.7816164E-02  0.1186339E+00
        -11   -1    0    0    0    0  0.00000000000E+00  0.00000000000E+00  0.45593999997E+02  0.45594000000E+02  0.51100000000E-03 0. -1.
         11   -1    0    0    0    0 -0.00000000000E+00 -0.00000000000E+00 -0.45593999997E+02  0.45594000000E+02  0.51100000000E-03 0.  1.
    9900012    2    1    2    0    0  0.48084228230E+00  0.33923505871E+00  0.10230591496E+01  0.90007771315E+02  0.90000033096E+02 0.  0.
        -12    1    1    2    0    0 -0.48084228230E+00 -0.33923505871E+00 -0.10230591496E+01  0.11802286851E+01  0.00000000000E+00 0.  1.
         11    1    3    3    0    0 -0.51489447791E+00  0.54978236087E+01 -0.59717669529E+01  0.81334606138E+01  0.51100000000E-03 0. -1.
        -11    1    3    3    0    0 -0.31129296131E+02  0.91709740790E+01 -0.19478816124E+02  0.37849228803E+02  0.51100000000E-03 0.  1.
         12    1    3    3    0    0  0.32125032891E+02 -0.14329562629E+02  0.26473642226E+02  0.44025081898E+02  0.00000000000E+00 0. -1.
</event>
<event>
 7    1  0.3662489E-015  0.9000759E+02  0.7816164E-02  0.1186339E+00
        -11   -1    0    0    0    0  0.00000000000E+00  0.00000000000E+00  0.45593999997E+02  0.45594000000E+02  0.51100000000E-03 0.  1.
         11   -1    0    0    0    0 -0.00000000000E+00 -0.00000000000E+00 -0.45593999997E+02  0.45594000000E+02  0.51100000000E-03 0. -1.
    9900012    2    1    2    0    0 -0.95875125406E+00  0.37405822249E+00 -0.57813326077E+00  0.90007592618E+02  0.89999852040E+02 0.  0.
        -12    1    1    2    0    0  0.95875125406E+00 -0.37405822249E+00  0.57813326077E+00  0.11804073823E+01  0.00000000000E+00 0.  1.
         11    1    3    3    0    0  0.71980785318E+01  0.39556108383E+02 -0.16438623370E+01  0.40239288371E+02  0.51100000000E-03 0. -1.
        -11    1    3    3    0    0  0.45483996748E+01 -0.26866234400E+01  0.88893717341E+01  0.10340542307E+02  0.51100000000E-03 0.  1.
        -12    1    3    3    0    0 -0.12705229461E+02 -0.36495426720E+02 -0.78236426579E+01  0.39427761940E+02  0.00000000000E+00 0.  1.
</event>
<event>
 7    1  0.3662489E-015  0.9000781E+02  0.7816164E-02  0.1186339E+00
        -11   -1    0    0    0    0  0.00000000000E+00  0.00000000000E+00  0.45593999997E+02  0.45594000000E+02  0.51100000000E-03 0.  1.
         11   -1    0    0    0    0 -0.00000000000E+00 -0.00000000000E+00 -0.45593999997E+02  0.45594000000E+02  0.51100000000E-03 0. -1.
    9900012    2    1    2    0    0 -0.94871871609E-01  0.23049819196E+00 -0.11535702193E+01  0.90007807499E+02  0.90000069758E+02 0.  0.
        -12    1    1    2    0    0  0.94871871609E-01 -0.23049819196E+00  0.11535702193E+01  0.11801925010E+01  0.00000000000E+00 0.  1.
         11    1    3    3    0    0 -0.34513731778E+02  0.48575402319E+01 -0.11262224164E+02  0.36628282402E+02  0.51100000000E-03 0. -1.
        -11    1    3    3    0    0 -0.63205357203E+01 -0.39238992344E+00 -0.65972042013E+01  0.91447386610E+01  0.51100000000E-03 0.  1.
        -12    1    3    3    0    0  0.40739395627E+02 -0.42346521165E+01  0.16705858146E+02  0.44234786436E+02  0.00000000000E+00 0.  1.
</event>
<event>
 7    1  0.3662489E-015  0.9000772E+02  0.7816164E-02  0.1186339E+00
        -11   -1    0    0    0    0  0.00000000000E+00  0.00000000000E+00  0.45593999997E+02  0.45594000000E+02  0.51100000000E-03 0. -1.
         11   -1    0    0    0    0 -0.00000000000E+00 -0.00000000000E+00 -0.45593999997E+02  0.45594000000E+02  0.51100000000E-03 0.  1.
    9900012    2    1    2    0    0  0.46943650058E+00 -0.60519876399E+00  0.89801583558E+00  0.90007716723E+02  0.89999977784E+02 0.  0.
        -12    1    1    2    0    0 -0.46943650058E+00  0.60519876399E+00 -0.89801583558E+00  0.11802832766E+01  0.00000000000E+00 0.  1.
         11    1    3    3    0    0 -0.67783112557E+01  0.47740231200E+01 -0.43952769161E+01  0.93837764072E+01  0.51100000000E-03 0. -1.
        -11    1    3    3    0    0  0.43091934710E+02  0.20381795788E+01  0.81720756208E+01  0.43907309566E+02  0.51100000000E-03 0.  1.
         12    1    3    3    0    0 -0.35844186954E+02 -0.74174014629E+01 -0.28787828692E+01  0.36716630751E+02  0.00000000000E+00 0. -1.
</event>
<event>
 7    1  0.3662489E-015  0.9000741E+02  0.7816164E-02  0.1186340E+00
        -11   -1    0    0    0    0  0.00000000000E+00  0.00000000000E+00  0.45593999997E+02  0.45594000000E+02  0.51100000000E-03 0. -1.
         11   -1    0    0    0    0 -0.00000000000E+00 -0.00000000000E+00 -0.45593999997E+02  0.45594000000E+02  0.51100000000E-03 0.  1.
    9900012    2    1    2    0    0 -0.44767284235E-01  0.92572580695E+00  0.73130887406E+00  0.90007413261E+02  0.89999670315E+02 0.  0.
        -12    1    1    2    0    0  0.44767284235E-01 -0.92572580695E+00 -0.73130887406E+00  0.11805867392E+01  0.00000000000E+00 0.  1.
         11    1    3    3    0    0 -0.30583545094E+01  0.19807758063E+02  0.29615743900E+02  0.35760216706E+02  0.51100000000E-03 0. -1.
        -11    1    3    3    0    0 -0.89283831264E+01 -0.44445678169E+00  0.75511445384E+01  0.11701852468E+02  0.51100000000E-03 0.  1.
        -12    1    3    3    0    0  0.11941970352E+02 -0.18437575475E+02 -0.36435579565E+02  0.42545344087E+02  0.00000000000E+00 0.  1.
</event>
<event>
 7    1  0.3662489E-015  0.9000773E+02  0.7816164E-02  0.1186339E+00
        -11   -1    0    0    0    0  0.00000000000E+00  0.00000000000E+00  0.45593999997E+02  0.45594000000E+02  0.51100000000E-03 0.  1.
         11   -1    0    0    0    0 -0.00000000000E+00 -0.00000000000E+00 -0.45593999997E+02  0.45594000000E+02  0.51100000000E-03 0. -1.
    9900012    2    1    2    0    0 -0.54893354708E+00  0.47169724017E+00 -0.93231569634E+00  0.90007729318E+02  0.89999990545E+02 0.  0.
        -12    1    1    2    0    0  0.54893354708E+00 -0.47169724017E+00  0.93231569634E+00  0.11802706821E+01  0.00000000000E+00 0.  1.
         11    1    3    3    0    0 -0.26172195840E+02 -0.23905615061E+02 -0.13584340728E+02  0.37960460743E+02  0.51100000000E-03 0. -1.
        -11    1    3    3    0    0 -0.75279987101E+01  0.74453941202E+01 -0.39330384983E+01  0.11294841755E+02  0.51100000000E-03 0.  1.
        -12    1    3    3    0    0  0.33151261003E+02  0.16931918181E+02  0.16585063530E+02  0.40752426820E+02  0.00000000000E+00 0.  1.
</event>
<event>
 7    1  0.3662489E-015  0.9000774E+02  0.7816164E-02  0.1186339E+00
        -11   -1    0    0    0    0  0.00000000000E+00  0.00000000000E+00  0.45593999997E+02  0.45594000000E+02  0.51100000000E-03 0. -1.
         11   -1    0    0    0    0 -0.00000000000E+00 -0.00000000000E+00 -0.45593999997E+02  0.45594000000E+02  0.51100000000E-03 0.  1.
    9900012    2    1    2    0    0  0.42434178398E+00  0.10991818929E+01  0.68921704386E-01  0.90007738595E+02  0.89999999944E+02 0.  0.
        -12    1    1    2    0    0 -0.42434178398E+00 -0.10991818929E+01 -0.68921704386E-01  0.11802614052E+01  0.00000000000E+00 0.  1.
         11    1    3    3    0    0  0.77543538184E+01 -0.52203785200E+01  0.28538610651E+00  0.93522083234E+01  0.51100000000E-03 0. -1.
        -11    1    3    3    0    0  0.63153097307E+01 -0.34628523712E+02 -0.96004114149E+01  0.36485417513E+02  0.51100000000E-03 0.  1.
         12    1    3    3    0    0 -0.13645321765E+02  0.40948084125E+02  0.93839470128E+01  0.44170112759E+02  0.00000000000E+00 0. -1.
</event>
<event>
 7    1  0.3662489E-015  0.9000753E+02  0.7816164E-02  0.1186339E+00
        -11   -1    0    0    0    0  0.00000000000E+00  0.00000000000E+00  0.45593999997E+02  0.45594000000E+02  0.51100000000E-03 0. -1.
         11   -1    0    0    0    0 -0.00000000000E+00 -0.00000000000E+00 -0.45593999997E+02  0.45594000000E+02  0.51100000000E-03 0.  1.
    9900012    2    1    2    0    0  0.44396481468E-01  0.19155296721E+00  0.11639809636E+01  0.90007527522E+02  0.89999786085E+02 0.  0.
        -12    1    1    2    0    0 -0.44396481468E-01 -0.19155296721E+00 -0.11639809636E+01  0.11804724776E+01  0.00000000000E+00 0.  1.
         11    1    3    3    0    0 -0.25374484773E+02 -0.20051800045E+02 -0.11286537789E+02  0.34253833334E+02  0.51100000000E-03 0. -1.
        -11    1    3    3    0    0 -0.73243236719E+01 -0.67576896075E+01 -0.32808017233E+01  0.10491698923E+02  0.51100000000E-03 0.  1.
        -12    1    3    3    0    0  0.32743204927E+02  0.27001042620E+02  0.15731320476E+02  0.45261995265E+02  0.00000000000E+00 0.  1.
</event>
<event>
 7    1  0.3662489E-015  0.9000792E+02  0.7816164E-02  0.1186339E+00
        -11   -1    0    0    0    0  0.00000000000E+00  0.00000000000E+00  0.45593999997E+02  0.45594000000E+02  0.51100000000E-03 0. -1.
         11   -1    0    0    0    0 -0.00000000000E+00 -0.00000000000E+00 -0.45593999997E+02  0.45594000000E+02  0.51100000000E-03 0.  1.
    9900012    2    1    2    0    0 -0.73944107693E+00  0.90155692462E+00  0.18166287939E+00  0.90007923987E+02  0.90000187783E+02 0.  0.
        -12    1    1    2    0    0  0.73944107693E+00 -0.90155692462E+00 -0.18166287939E+00  0.11800760129E+01  0.00000000000E+00 0.  1.
         11    1    3    3    0    0 -0.40853899677E+01  0.37512138728E+01  0.77090220968E+01  0.94968962645E+01  0.51100000000E-03 0. -1.
        -11    1    3    3    0    0  0.38005273539E+02 -0.10043544491E+02 -0.18507909509E+02  0.43449008244E+02  0.51100000000E-03 0.  1.
         12    1    3    3    0    0 -0.34659324649E+02  0.71938875433E+01  0.10980550292E+02  0.37062019478E+02  0.00000000000E+00 0. -1.
</event>
<event>
 7    1  0.3662489E-015  0.9000776E+02  0.7816164E-02  0.1186339E+00
        -11   -1    0    0    0    0  0.00000000000E+00  0.00000000000E+00  0.45593999997E+02  0.45594000000E+02  0.51100000000E-03 0. -1.
         11   -1    0    0    0    0 -0.00000000000E+00 -0.00000000000E+00 -0.45593999997E+02  0.45594000000E+02  0.51100000000E-03 0.  1.
    9900012    2    1    2    0    0  0.23419750819E+00  0.10490942713E+01 -0.48736538448E+00  0.90007757533E+02  0.90000019132E+02 0.  0.
        -12    1    1    2    0    0 -0.23419750819E+00 -0.10490942713E+01  0.48736538448E+00  0.11802424670E+01  0.00000000000E+00 0.  1.
         11    1    3    3    0    0 -0.36418329319E+02  0.10892681663E+01 -0.49087366621E+01  0.36763798925E+02  0.51100000000E-03 0. -1.
        -11    1    3    3    0    0 -0.78744463899E+01 -0.18494298615E+01 -0.16893181931E+01  0.82632374393E+01  0.51100000000E-03 0.  1.
        -12    1    3    3    0    0  0.44526973217E+02  0.18092559665E+01  0.61106894707E+01  0.44980721169E+02  0.00000000000E+00 0.  1.
</event>
<event>
 7    1  0.3662489E-015  0.9000737E+02  0.7816164E-02  0.1186340E+00
        -11   -1    0    0    0    0  0.00000000000E+00  0.00000000000E+00  0.45593999997E+02  0.45594000000E+02  0.51100000000E-03 0.  1.
         11   -1    0    0    0    0 -0.00000000000E+00 -0.00000000000E+00 -0.45593999997E+02  0.45594000000E+02  0.51100000000E-03 0. -1.
    9900012    2    1    2    0    0  0.69271034848E+00 -0.85201540197E+00 -0.43372337037E+00  0.90007367189E+02  0.89999623635E+02 0.  0.
        -12    1    1    2    0    0 -0.69271034848E+00  0.85201540197E+00  0.43372337037E+00  0.11806328109E+01  0.00000000000E+00 0.  1.
         11    1    3    3    0    0 -0.77158595688E+01 -0.31412058300E+01 -0.39441654247E+01  0.92172720536E+01  0.51100000000E-03 0. -1.
        -11    1    3    3    0    0 -0.16378290437E+02  0.31771067872E+02 -0.14116998529E+02  0.38430961465E+02  0.51100000000E-03 0.  1.
         12    1    3    3    0    0  0.24786860354E+02 -0.29481877444E+02  0.17627440584E+02  0.42359133671E+02  0.00000000000E+00 0. -1.
</event>
<event>
 7    1  0.3662489E-015  0.9000787E+02  0.7816164E-02  0.1186339E+00
        -11   -1    0    0    0    0  0.00000000000E+00  0.00000000000E+00  0.45593999997E+02  0.45594000000E+02  0.51100000000E-03 0. -1.
         11   -1    0    0    0    0 -0.00000000000E+00 -0.00000000000E+00 -0.45593999997E+02  0.45594000000E+02  0.51100000000E-03 0.  1.
    9900012    2    1    2    0    0 -0.87056465066E+00  0.62738400936E+00  0.49113543615E+00  0.90007869701E+02  0.90000132781E+02 0.  0.
        -12    1    1    2    0    0  0.87056465066E+00 -0.62738400936E+00 -0.49113543615E+00  0.11801302991E+01  0.00000000000E+00 0.  1.
         11    1    3    3    0    0 -0.36042032347E+01  0.35741476615E+02  0.27613490816E+01  0.36028717443E+02  0.51100000000E-03 0. -1.
        -11    1    3    3    0    0  0.14477088178E+01  0.89914791187E+01  0.28883348791E+01  0.95543202897E+01  0.51100000000E-03 0.  1.
        -12    1    3    3    0    0  0.12859297662E+01 -0.44105571724E+02 -0.51585485245E+01  0.44424831968E+02  0.00000000000E+00 0.  1.
</event>
<event>
 7    1  0.3662489E-015  0.9000782E+02  0.7816164E-02  0.1186339E+00
        -11   -1    0    0    0    0  0.00000000000E+00  0.00000000000E+00  0.45593999997E+02  0.45594000000E+02  0.51100000000E-03 0.  1.
         11   -1    0    0    0    0 -0.00000000000E+00 -0.00000000000E+00 -0.45593999997E+02  0.45594000000E+02  0.51100000000E-03 0. -1.
    9900012    2    1    2    0    0  0.83119127837E+00  0.29694571371E+00 -0.78342960548E+00  0.90007823045E+02  0.90000085509E+02 0.  0.
        -12    1    1    2    0    0 -0.83119127837E+00 -0.29694571371E+00  0.78342960548E+00  0.11801769549E+01  0.00000000000E+00 0.  1.
         11    1    3    3    0    0  0.32520669673E+02  0.14273699209E+02  0.18214009767E+02  0.39913438804E+02  0.51100000000E-03 0. -1.
        -11    1    3    3    0    0  0.37974452230E+01 -0.86429571482E+01  0.10561377320E+00  0.94409985180E+01  0.51100000000E-03 0.  1.
        -12    1    3    3    0    0 -0.35486923617E+02 -0.53337963474E+01 -0.19103053146E+02  0.40653385723E+02  0.00000000000E+00 0.  1.
</event>
<event>
 7    1  0.3662489E-015  0.9000774E+02  0.7816164E-02  0.1186339E+00
        -11   -1    0    0    0    0  0.00000000000E+00  0.00000000000E+00  0.45593999997E+02  0.45594000000E+02  0.51100000000E-03 0. -1.
         11   -1    0    0    0    0 -0.00000000000E+00 -0.00000000000E+00 -0.45593999997E+02  0.45594000000E+02  0.51100000000E-03 0.  1.
    9900012    2    1    2    0    0 -0.92242627007E+00 -0.61399974456E+00 -0.40638775519E+00  0.90007738623E+02  0.89999999973E+02 0.  0.
        -12    1    1    2    0    0  0.92242627007E+00  0.61399974456E+00  0.40638775519E+00  0.11802613768E+01  0.00000000000E+00 0.  1.
         11    1    3    3    0    0 -0.27092259521E+02 -0.17423636394E+02  0.22283541748E+02  0.39167969877E+02  0.51100000000E-03 0. -1.
        -11    1    3    3    0    0  0.89976183144E+00 -0.91418855440E+01 -0.33508390882E+01  0.97781268916E+01  0.51100000000E-03 0.  1.
        -12    1    3    3    0    0  0.25270071420E+02  0.25951522194E+02 -0.19339090415E+02  0.41061641855E+02  0.00000000000E+00 0.  1.
</event>
<event>
 7    1  0.3662489E-015  0.9000784E+02  0.7816164E-02  0.1186339E+00
        -11   -1    0    0    0    0  0.00000000000E+00  0.00000000000E+00  0.45593999997E+02  0.45594000000E+02  0.51100000000E-03 0.  1.
         11   -1    0    0    0    0 -0.00000000000E+00 -0.00000000000E+00 -0.45593999997E+02  0.45594000000E+02  0.51100000000E-03 0. -1.
    9900012    2    1    2    0    0  0.92746399360E-01 -0.48281789058E+00 -0.10728723961E+01  0.90007843151E+02  0.90000105880E+02 0.  0.
        -12    1    1    2    0    0 -0.92746399360E-01  0.48281789058E+00  0.10728723961E+01  0.11801568491E+01  0.00000000000E+00 0.  1.
         11    1    3    3    0    0 -0.47677807668E+01  0.79207385505E+01  0.91138598944E+00  0.92898039435E+01  0.51100000000E-03 0. -1.
        -11    1    3    3    0    0  0.53453451761E+01 -0.42611834006E+02  0.10652298437E+02  0.44247175895E+02  0.51100000000E-03 0.  1.
         12    1    3    3    0    0 -0.48481800997E+00  0.34208277565E+02 -0.12636556822E+02  0.36470863313E+02  0.00000000000E+00 0. -1.
</event>
<event>
 7    1  0.3662489E-015  0.9000774E+02  0.7816164E-02  0.1186339E+00
        -11   -1    0    0    0    0  0.00000000000E+00  0.00000000000E+00  0.45593999997E+02  0.45594000000E+02  0.51100000000E-03 0.  1.
         11   -1    0    0    0    0 -0.00000000000E+00 -0.00000000000E+00 -0.45593999997E+02  0.45594000000E+02  0.51100000000E-03 0. -1.
    9900012    2    1    2    0    0  0.25058163286E+00  0.61148364453E+00 -0.97791272588E+00  0.90007738715E+02  0.90000000066E+02 0.  0.
        -12    1    1    2    0    0 -0.25058163286E+00 -0.61148364453E+00  0.97791272588E+00  0.11802612853E+01  0.00000000000E+00 0.  1.
         11    1    3    3    0    0  0.35594467364E+02  0.72517130990E+01 -0.15189332698E+01  0.36357401012E+02  0.51100000000E-03 0. -1.
        -11    1    3    3    0    0  0.58480147994E+01  0.51689218514E+01 -0.65836407830E+01  0.10210845039E+02  0.51100000000E-03 0.  1.
        -12    1    3    3    0    0 -0.41191900530E+02 -0.11809151306E+02  0.71246613269E+01  0.43439492664E+02  0.00000000000E+00 0.  1.
</event>
<event>
 7    1  0.3662489E-015  0.9000773E+02  0.7816164E-02  0.1186339E+00
        -11   -1    0    0    0    0  0.00000000000E+00  0.00000000000E+00  0.45593999997E+02  0.45594000000E+02  0.51100000000E-03 0.  1.
         11   -1    0    0    0    0 -0.00000000000E+00 -0.00000000000E+00 -0.45593999997E+02  0.45594000000E+02  0.51100000000E-03 0. -1.
    9900012    2    1    2    0    0  0.37902317601E+00  0.39013063961E+00 -0.10474578210E+01  0.90007733771E+02  0.89999995057E+02 0.  0.
        -12    1    1    2    0    0 -0.37902317601E+00 -0.39013063961E+00  0.10474578210E+01  0.11802662287E+01  0.00000000000E+00 0.  1.
         11    1    3    3    0    0 -0.31571886190E+02 -0.22847059095E+01  0.25498263672E+02  0.40646836645E+02  0.51100000000E-03 0. -1.
        -11    1    3    3    0    0  0.38112387572E+01 -0.85579821623E+01 -0.45948305167E+00  0.93795375414E+01  0.51100000000E-03 0.  1.
        -12    1    3    3    0    0  0.28139670609E+02  0.11232818711E+02 -0.26086238441E+02  0.39981359585E+02  0.00000000000E+00 0.  1.
</event>
<event>
 7    1  0.3662489E-015  0.9000785E+02  0.7816164E-02  0.1186339E+00
        -11   -1    0    0    0    0  0.00000000000E+00  0.00000000000E+00  0.45593999997E+02  0.45594000000E+02  0.51100000000E-03 0. -1.
         11   -1    0    0    0    0 -0.00000000000E+00 -0.00000000000E+00 -0.45593999997E+02  0.45594000000E+02  0.51100000000E-03 0.  1.
    9900012    2    1    2    0    0 -0.47695398698E+00 -0.10161214961E+01  0.36436182187E+00  0.90007852747E+02  0.90000115604E+02 0.  0.
        -12    1    1    2    0    0  0.47695398698E+00  0.10161214961E+01 -0.36436182187E+00  0.11801472525E+01  0.00000000000E+00 0.  1.
         11    1    3    3    0    0  0.26291038160E+01  0.68508174400E+01  0.54451439439E+01  0.91375860763E+01  0.51100000000E-03 0. -1.
        -11    1    3    3    0    0 -0.20328543593E+02  0.17076196294E+02 -0.31122905500E+02  0.40908207141E+02  0.51100000000E-03 0.  1.
         12    1    3    3    0    0  0.17222485790E+02 -0.24943135230E+02  0.26042123378E+02  0.39962059530E+02  0.00000000000E+00 0. -1.
</event>
<event>
 7    1  0.3662489E-015  0.9000772E+02  0.7816164E-02  0.1186339E+00
        -11   -1    0    0    0    0  0.00000000000E+00  0.00000000000E+00  0.45593999997E+02  0.45594000000E+02  0.51100000000E-03 0.  1.
         11   -1    0    0    0    0 -0.00000000000E+00 -0.00000000000E+00 -0.45593999997E+02  0.45594000000E+02  0.51100000000E-03 0. -1.
    9900012    2    1    2    0    0 -0.29032570207E-01  0.72563357184E+00 -0.93042129377E+00  0.90007715816E+02  0.89999976865E+02 0.  0.
        -12    1    1    2    0    0  0.29032570207E-01 -0.72563357184E+00  0.93042129377E+00  0.11802841838E+01  0.00000000000E+00 0.  1.
         11    1    3    3    0    0 -0.16639433233E+01 -0.89128158164E+01 -0.43234775951E+01  0.10044871922E+02  0.51100000000E-03 0. -1.
        -11    1    3    3    0    0 -0.36468173537E+02 -0.62811634494E+01  0.95343192316E+01  0.38213661678E+02  0.51100000000E-03 0.  1.
         12    1    3    3    0    0  0.38103084290E+02  0.15919612838E+02 -0.61412629302E+01  0.41749182216E+02  0.00000000000E+00 0. -1.
</event>
<event>
 7    1  0.3662489E-015  0.9000827E+02  0.7816164E-02  0.1186338E+00
        -11   -1    0    0    0    0  0.00000000000E+00  0.00000000000E+00  0.45593999997E+02  0.45594000000E+02  0.51100000000E-03 0. -1.
         11   -1    0    0    0    0 -0.00000000000E+00 -0.00000000000E+00 -0.45593999997E+02  0.45594000000E+02  0.51100000000E-03 0.  1.
    9900012    2    1    2    0    0 -0.83647697007E+00 -0.27356088635E+00  0.78563892860E+00  0.90008272147E+02  0.90000540538E+02 0.  0.
        -12    1    1    2    0    0  0.83647697007E+00  0.27356088635E+00 -0.78563892860E+00  0.11797278526E+01  0.00000000000E+00 0.  1.
         11    1    3    3    0    0  0.33427736101E+02  0.13012835258E+02 -0.14047544785E+02  0.38523771064E+02  0.51100000000E-03 0. -1.
        -11    1    3    3    0    0  0.63918642829E+01 -0.29895887380E+01  0.42225804371E+01  0.82233664422E+01  0.51100000000E-03 0.  1.
        -12    1    3    3    0    0 -0.40656077354E+02 -0.10296807406E+02  0.10610603277E+02  0.43261134641E+02  0.00000000000E+00 0.  1.
</event>
<event>
 7    1  0.3662489E-015  0.9000774E+02  0.7816164E-02  0.1186339E+00
        -11   -1    0    0    0    0  0.00000000000E+00  0.00000000000E+00  0.45593999997E+02  0.45594000000E+02  0.51100000000E-03 0.  1.
         11   -1    0    0    0    0 -0.00000000000E+00 -0.00000000000E+00 -0.45593999997E+02  0.45594000000E+02  0.51100000000E-03 0. -1.
    9900012    2    1    2    0    0 -0.13662241337E+00 -0.10680116198E+01  0.48342490783E+00  0.90007739798E+02  0.90000001163E+02 0.  0.
        -12    1    1    2    0    0  0.13662241337E+00  0.10680116198E+01 -0.48342490783E+00  0.11802602024E+01  0.00000000000E+00 0.  1.
         11    1    3    3    0    0  0.62789517120E+01  0.47039160167E+01  0.58000400640E+01  0.97566656957E+01  0.51100000000E-03 0. -1.
        -11    1    3    3    0    0 -0.31926803074E+02  0.13068000932E+02  0.19817870351E+02  0.39784939216E+02  0.51100000000E-03 0.  1.
         12    1    3    3    0    0  0.25511228949E+02 -0.18839928568E+02 -0.25134485507E+02  0.40466134886E+02  0.00000000000E+00 0. -1.
</event>
<event>
 7    1  0.3662489E-015  0.9000775E+02  0.7816164E-02  0.1186339E+00
        -11   -1    0    0    0    0  0.00000000000E+00  0.00000000000E+00  0.45593999997E+02  0.45594000000E+02  0.51100000000E-03 0. -1.
         11   -1    0    0    0    0 -0.00000000000E+00 -0.00000000000E+00 -0.45593999997E+02  0.45594000000E+02  0.51100000000E-03 0.  1.
    9900012    2    1    2    0    0  0.60999747033E+00  0.10103594283E+01  0.79254647146E-02  0.90007751763E+02  0.90000013286E+02 0.  0.
        -12    1    1    2    0    0 -0.60999747033E+00 -0.10103594283E+01 -0.79254647146E-02  0.11802482371E+01  0.00000000000E+00 0.  1.
         11    1    3    3    0    0 -0.68628009964E+01 -0.15120541534E+02  0.36528420257E+02  0.40125481935E+02  0.51100000000E-03 0. -1.
        -11    1    3    3    0    0 -0.66162410131E+01  0.61222987176E+01  0.49834899722E+00  0.90280417985E+01  0.51100000000E-03 0.  1.
        -12    1    3    3    0    0  0.14089039480E+02  0.10008602245E+02 -0.37018843789E+02  0.40854228029E+02  0.00000000000E+00 0.  1.
</event>
<event>
 7    1  0.3662489E-015  0.9000773E+02  0.7816164E-02  0.1186339E+00
        -11   -1    0    0    0    0  0.00000000000E+00  0.00000000000E+00  0.45593999997E+02  0.45594000000E+02  0.51100000000E-03 0. -1.
         11   -1    0    0    0    0 -0.00000000000E+00 -0.00000000000E+00 -0.45593999997E+02  0.45594000000E+02  0.51100000000E-03 0.  1.
    9900012    2    1    2    0    0  0.22180486395E+00  0.92793155412E+00  0.69481850321E+00  0.90007734301E+02  0.89999995594E+02 0.  0.
        -12    1    1    2    0    0 -0.22180486395E+00 -0.92793155412E+00 -0.69481850321E+00  0.11802656986E+01  0.00000000000E+00 0.  1.
         11    1    3    3    0    0  0.77875466014E+01 -0.36246854569E+02 -0.14035696003E+01  0.37100543879E+02  0.51100000000E-03 0. -1.
        -11    1    3    3    0    0  0.14630314589E+02  0.10229924934E+02  0.22789640273E+01  0.17996976036E+02  0.51100000000E-03 0.  1.
        -12    1    3    3    0    0 -0.22196056326E+02  0.26944861188E+02 -0.18057592384E+00  0.34910214387E+02  0.00000000000E+00 0.  1.
</event>
<event>
 7    1  0.3662489E-015  0.9000769E+02  0.7816164E-02  0.1186339E+00
        -11   -1    0    0    0    0  0.00000000000E+00  0.00000000000E+00  0.45593999997E+02  0.45594000000E+02  0.51100000000E-03 0. -1.
         11   -1    0    0    0    0 -0.00000000000E+00 -0.00000000000E+00 -0.45593999997E+02  0.45594000000E+02  0.51100000000E-03 0.  1.
    9900012    2    1    2    0    0  0.22791235373E+00 -0.78640830665E+00  0.85014037682E+00  0.90007694647E+02  0.89999955416E+02 0.  0.
        -12    1    1    2    0    0 -0.22791235373E+00  0.78640830665E+00 -0.85014037682E+00  0.11803053529E+01  0.00000000000E+00 0.  1.
         11    1    3    3    0    0  0.38204506494E+02  0.54810632064E+01  0.97585853884E+00  0.38608013035E+02  0.51100000000E-03 0. -1.
        -11    1    3    3    0    0  0.19492788313E+01 -0.94083687426E+01  0.53187362072E+01  0.10982078376E+02  0.51100000000E-03 0.  1.
        -12    1    3    3    0    0 -0.39925872972E+02  0.31408972296E+01 -0.54444543693E+01  0.40417603236E+02  0.00000000000E+00 0.  1.
</event>
<event>
 7    1  0.3662489E-015  0.9000770E+02  0.7816164E-02  0.1186339E+00
        -11   -1    0    0    0    0  0.00000000000E+00  0.00000000000E+00  0.45593999997E+02  0.45594000000E+02  0.51100000000E-03 0. -1.
         11   -1    0    0    0    0 -0.00000000000E+00 -0.00000000000E+00 -0.45593999997E+02  0.45594000000E+02  0.51100000000E-03 0.  1.
    9900012    2    1    2    0    0 -0.10466746271E+01  0.53347179511E+00 -0.11393489172E+00  0.90007702965E+02  0.89999963844E+02 0.  0.
        -12    1    1    2    0    0  0.10466746271E+01 -0.53347179511E+00  0.11393489172E+00  0.11802970350E+01  0.00000000000E+00 0.  1.
         11    1    3    3    0    0 -0.20830506664E+02  0.11085807282E+02  0.30054823738E+02  0.38211222974E+02  0.51100000000E-03 0. -1.
        -11    1    3    3    0    0  0.26907099058E+01 -0.31678063045E+01  0.81749313649E+01  0.91708461802E+01  0.51100000000E-03 0.  1.
        -12    1    3    3    0    0  0.17093122131E+02 -0.73845291820E+01 -0.38343689995E+02  0.42625633811E+02  0.00000000000E+00 0.  1.
</event>
<event>
 7    1  0.3662489E-015  0.9000769E+02  0.7816164E-02  0.1186339E+00
        -11   -1    0    0    0    0  0.00000000000E+00  0.00000000000E+00  0.45593999997E+02  0.45594000000E+02  0.51100000000E-03 0.  1.
         11   -1    0    0    0    0 -0.00000000000E+00 -0.00000000000E+00 -0.45593999997E+02  0.45594000000E+02  0.51100000000E-03 0. -1.
    9900012    2    1    2    0    0  0.10855561318E+01 -0.10680682716E+00 -0.45088795339E+00  0.90007686584E+02  0.89999947247E+02 0.  0.
        -12    1    1    2    0    0 -0.10855561318E+01  0.10680682716E+00  0.45088795339E+00  0.11803134161E+01  0.00000000000E+00 0.  1.
         11    1    3    3    0    0 -0.23976760825E+01 -0.20008728866E+01 -0.67829603256E+01  0.74673217384E+01  0.51100000000E-03 0. -1.
        -11    1    3    3    0    0 -0.34256842154E+02  0.18076253641E+02  0.13171206127E+02  0.40911646889E+02  0.51100000000E-03 0.  1.
         12    1    3    3    0    0  0.37740074368E+02 -0.16182187582E+02 -0.68391337544E+01  0.41628717957E+02  0.00000000000E+00 0. -1.
</event>
<event>
 7    1  0.3662489E-015  0.9000781E+02  0.7816164E-02  0.1186339E+00
        -11   -1    0    0    0    0  0.00000000000E+00  0.00000000000E+00  0.45593999997E+02  0.45594000000E+02  0.51100000000E-03 0. -1.
         11   -1    0    0    0    0 -0.00000000000E+00 -0.00000000000E+00 -0.45593999997E+02  0.45594000000E+02  0.51100000000E-03 0.  1.
    9900012    2    1    2    0    0 -0.70781342999E+00 -0.44818502254E-01  0.94331016543E+00  0.90007812465E+02  0.90000074789E+02 0.  0.
        -12    1    1    2    0    0  0.70781342999E+00  0.44818502254E-01 -0.94331016543E+00  0.11801875351E+01  0.00000000000E+00 0.  1.
         11    1    3    3    0    0  0.30398078265E+02 -0.26219283059E+02 -0.12839378182E+02  0.42146691433E+02  0.51100000000E-03 0. -1.
        -11    1    3    3    0    0 -0.26788163784E+01  0.55610181305E+01 -0.50862982835E+01  0.79982129458E+01  0.51100000000E-03 0.  1.
        -12    1    3    3    0    0 -0.28427075317E+02  0.20613446427E+02  0.18868986631E+02  0.39862908087E+02  0.00000000000E+00 0.  1.
</event>
<event>
 7    1  0.3662489E-015  0.9000774E+02  0.7816164E-02  0.1186339E+00
        -11   -1    0    0    0    0  0.00000000000E+00  0.00000000000E+00  0.45593999997E+02  0.45594000000E+02  0.51100000000E-03 0. -1.
         11   -1    0    0    0    0 -0.00000000000E+00 -0.00000000000E+00 -0.45593999997E+02  0.45594000000E+02  0.51100000000E-03 0.  1.
    9900012    2    1    2    0    0  0.20101164646E+00 -0.34616711178E+00 -0.11103098196E+01  0.90007735095E+02  0.89999996398E+02 0.  0.
        -12    1    1    2    0    0 -0.20101164646E+00  0.34616711178E+00  0.11103098196E+01  0.11802649053E+01  0.00000000000E+00 0.  1.
         11    1    3    3    0    0 -0.58668563627E+01 -0.33227475523E+01 -0.70467867247E+01  0.97528384731E+01  0.51100000000E-03 0. -1.
        -11    1    3    3    0    0 -0.30657022462E+02 -0.16964398177E+00 -0.18708836031E+02  0.35915210583E+02  0.51100000000E-03 0.  1.
         12    1    3    3    0    0  0.36724890471E+02  0.31462244223E+01  0.24645312937E+02  0.44339686038E+02  0.00000000000E+00 0. -1.
</event>
<event>
 7    1  0.7906190E-015  0.9000783E+02  0.7816164E-02  0.1186339E+00
        -11   -1    0    0    0    0  0.00000000000E+00  0.00000000000E+00  0.45593999997E+02  0.45594000000E+02  0.51100000000E-03 0. -1.
         11   -1    0    0    0    0 -0.00000000000E+00 -0.00000000000E+00 -0.45593999997E+02  0.45594000000E+02  0.51100000000E-03 0.  1.
    9900012    2    1    2    0    0  0.10876717559E+00  0.56007722355E+00  0.10330987202E+01  0.90007826385E+02  0.90000088894E+02 0.  0.
        -12    1    1    2    0    0 -0.10876717559E+00 -0.56007722355E+00 -0.10330987202E+01  0.11801736146E+01  0.00000000000E+00 0.  1.
         11    1    3    3    0    0  0.17463258803E+02  0.99261712448E+01  0.34044416527E+02  0.39528680481E+02  0.51100000000E-03 0. -1.
        -11    1    3    3    0    0  0.78401317278E+01  0.35475721860E+01 -0.27383877005E+01  0.90305980634E+01  0.51100000000E-03 0.  1.
        -12    1    3    3    0    0 -0.25194623356E+02 -0.12913666207E+02 -0.30272930106E+02  0.41448547841E+02  0.00000000000E+00 0.  1.
</event>
<event>
 7    1  0.3662489E-015  0.9000748E+02  0.7816164E-02  0.1186340E+00
        -11   -1    0    0    0    0  0.00000000000E+00  0.00000000000E+00  0.45593999997E+02  0.45594000000E+02  0.51100000000E-03 0. -1.
         11   -1    0    0    0    0 -0.00000000000E+00 -0.00000000000E+00 -0.45593999997E+02  0.45594000000E+02  0.51100000000E-03 0.  1.
    9900012    2    1    2    0    0 -0.89817266327E-01  0.11010775382E+01  0.41616038480E+00  0.90007479626E+02  0.89999737557E+02 0.  0.
        -12    1    1    2    0    0  0.89817266327E-01 -0.11010775382E+01 -0.41616038480E+00  0.11805203736E+01  0.00000000000E+00 0.  1.
         11    1    3    3    0    0  0.25199399233E+01  0.35709171471E-01  0.84018097945E+01  0.87716463931E+01  0.51100000000E-03 0. -1.
        -11    1    3    3    0    0  0.25271411428E+02  0.15597995853E+02 -0.30496075237E+02  0.42567033199E+02  0.51100000000E-03 0.  1.
         12    1    3    3    0    0 -0.27881168618E+02 -0.14532627487E+02  0.22510425828E+02  0.38668800034E+02  0.00000000000E+00 0. -1.
</event>
<event>
 7    1  0.5623925E-015  0.9000759E+02  0.7816164E-02  0.1186339E+00
        -11   -1    0    0    0    0  0.00000000000E+00  0.00000000000E+00  0.45593999997E+02  0.45594000000E+02  0.51100000000E-03 0. -1.
         11   -1    0    0    0    0 -0.00000000000E+00 -0.00000000000E+00 -0.45593999997E+02  0.45594000000E+02  0.51100000000E-03 0.  1.
    9900012    2    1    2    0    0 -0.45908214222E+00 -0.17646544693E+00  0.10730637197E+01  0.90007592353E+02  0.89999851772E+02 0.  0.
        -12    1    1    2    0    0  0.45908214222E+00  0.17646544693E+00 -0.10730637197E+01  0.11804076473E+01  0.00000000000E+00 0.  1.
         11    1    3    3    0    0  0.81930689158E+01 -0.49659651315E+01 -0.11208821823E+01  0.96459092404E+01  0.51100000000E-03 0. -1.
        -11    1    3    3    0    0 -0.10891463081E+02 -0.13400290953E+02 -0.34927224828E+02  0.38962838707E+02  0.51100000000E-03 0.  1.
         12    1    3    3    0    0  0.22393120231E+01  0.18189790638E+02  0.37121170729E+02  0.41398844406E+02  0.00000000000E+00 0. -1.
</event>
<event>
 7    1  0.3662489E-015  0.9000777E+02  0.7816164E-02  0.1186339E+00
        -11   -1    0    0    0    0  0.00000000000E+00  0.00000000000E+00  0.45593999997E+02  0.45594000000E+02  0.51100000000E-03 0.  1.
         11   -1    0    0    0    0 -0.00000000000E+00 -0.00000000000E+00 -0.45593999997E+02  0.45594000000E+02  0.51100000000E-03 0. -1.
    9900012    2    1    2    0    0  0.62870203409E+00 -0.93877558749E+00 -0.34113844580E+00  0.90007770662E+02  0.90000032435E+02 0.  0.
        -12    1    1    2    0    0 -0.62870203409E+00  0.93877558749E+00  0.34113844580E+00  0.11802293381E+01  0.00000000000E+00 0.  1.
         11    1    3    3    0    0 -0.88161772132E+01 -0.12807365437E+01  0.78192956947E+01  0.11853550193E+02  0.51100000000E-03 0. -1.
        -11    1    3    3    0    0  0.15805974378E+02  0.26223895418E+02  0.22151350919E+02  0.37791584576E+02  0.51100000000E-03 0.  1.
         12    1    3    3    0    0 -0.63610951309E+01 -0.25881934462E+02 -0.30311785059E+02  0.40362635893E+02  0.00000000000E+00 0. -1.
</event>
<event>
 7    1  0.3662489E-015  0.9000775E+02  0.7816164E-02  0.1186339E+00
        -11   -1    0    0    0    0  0.00000000000E+00  0.00000000000E+00  0.45593999997E+02  0.45594000000E+02  0.51100000000E-03 0. -1.
         11   -1    0    0    0    0 -0.00000000000E+00 -0.00000000000E+00 -0.45593999997E+02  0.45594000000E+02  0.51100000000E-03 0.  1.
    9900012    2    1    2    0    0 -0.97774161096E+00  0.65797073506E+00  0.63915766973E-01  0.90007750293E+02  0.90000011797E+02 0.  0.
        -12    1    1    2    0    0  0.97774161096E+00 -0.65797073506E+00 -0.63915766973E-01  0.11802497072E+01  0.00000000000E+00 0.  1.
         11    1    3    3    0    0 -0.13769097092E+02 -0.68129762629E+01  0.49248758127E+01  0.16132547298E+02  0.51100000000E-03 0. -1.
        -11    1    3    3    0    0 -0.17325145503E+02 -0.18392501266E+02  0.15106038639E+02  0.29438701961E+02  0.51100000000E-03 0.  1.
         12    1    3    3    0    0  0.30116500984E+02  0.25863448264E+02 -0.19966998685E+02  0.44436501034E+02  0.00000000000E+00 0. -1.
</event>
<event>
 7    1  0.3662489E-015  0.9000776E+02  0.7816164E-02  0.1186339E+00
        -11   -1    0    0    0    0  0.00000000000E+00  0.00000000000E+00  0.45593999997E+02  0.45594000000E+02  0.51100000000E-03 0. -1.
         11   -1    0    0    0    0 -0.00000000000E+00 -0.00000000000E+00 -0.45593999997E+02  0.45594000000E+02  0.51100000000E-03 0.  1.
    9900012    2    1    2    0    0  0.27715056621E+00  0.45749923621E+00  0.10520723296E+01  0.90007756731E+02  0.90000018320E+02 0.  0.
        -12    1    1    2    0    0 -0.27715056621E+00 -0.45749923621E+00 -0.10520723296E+01  0.11802432691E+01  0.00000000000E+00 0.  1.
         11    1    3    3    0    0 -0.51153638759E+01  0.75488746876E+01  0.11511945879E+02  0.14685957743E+02  0.51100000000E-03 0. -1.
        -11    1    3    3    0    0  0.34561485691E+02  0.25378747287E+01 -0.23584016846E+02  0.41918288993E+02  0.51100000000E-03 0.  1.
         12    1    3    3    0    0 -0.29168971248E+02 -0.96292501801E+01  0.13124143296E+02  0.33403509995E+02  0.00000000000E+00 0. -1.
</event>
<event>
 7    1  0.3662489E-015  0.9000775E+02  0.7816164E-02  0.1186339E+00
        -11   -1    0    0    0    0  0.00000000000E+00  0.00000000000E+00  0.45593999997E+02  0.45594000000E+02  0.51100000000E-03 0. -1.
         11   -1    0    0    0    0 -0.00000000000E+00 -0.00000000000E+00 -0.45593999997E+02  0.45594000000E+02  0.51100000000E-03 0.  1.
    9900012    2    1    2    0    0  0.53107879426E+00  0.73405154323E+00  0.75637573091E+00  0.90007754009E+02  0.90000015562E+02 0.  0.
        -12    1    1    2    0    0 -0.53107879426E+00 -0.73405154323E+00 -0.75637573091E+00  0.11802459914E+01  0.00000000000E+00 0.  1.
         11    1    3    3    0    0 -0.78982409376E+01  0.58358060306E+01  0.37591989330E+01  0.10515246969E+02  0.51100000000E-03 0. -1.
        -11    1    3    3    0    0 -0.23760357654E+02  0.28806936976E+01 -0.28820797817E+02  0.37463200331E+02  0.51100000000E-03 0.  1.
         12    1    3    3    0    0  0.32189677386E+02 -0.79824481850E+01  0.25817974614E+02  0.42029306709E+02  0.00000000000E+00 0. -1.
</event>
<event>
 7    1  0.3662489E-015  0.9000795E+02  0.7816164E-02  0.1186339E+00
        -11   -1    0    0    0    0  0.00000000000E+00  0.00000000000E+00  0.45593999997E+02  0.45594000000E+02  0.51100000000E-03 0. -1.
         11   -1    0    0    0    0 -0.00000000000E+00 -0.00000000000E+00 -0.45593999997E+02  0.45594000000E+02  0.51100000000E-03 0.  1.
    9900012    2    1    2    0    0  0.86736724719E-01 -0.93898951285E+00  0.70943831622E+00  0.90007946065E+02  0.90000210153E+02 0.  0.
        -12    1    1    2    0    0 -0.86736724719E-01  0.93898951285E+00 -0.70943831622E+00  0.11800539349E+01  0.00000000000E+00 0.  1.
         11    1    3    3    0    0 -0.55289164920E+01  0.69383025279E+01  0.61965493240E+01  0.10821561039E+02  0.51100000000E-03 0. -1.
        -11    1    3    3    0    0 -0.99938794019E+01 -0.27686632906E+02 -0.31391024123E+02  0.43032820765E+02  0.51100000000E-03 0.  1.
         12    1    3    3    0    0  0.15609532619E+02  0.19809340865E+02  0.25903913116E+02  0.36153564261E+02  0.00000000000E+00 0. -1.
</event>
<event>
 7    1  0.3662489E-015  0.9000775E+02  0.7816164E-02  0.1186339E+00
        -11   -1    0    0    0    0  0.00000000000E+00  0.00000000000E+00  0.45593999997E+02  0.45594000000E+02  0.51100000000E-03 0.  1.
         11   -1    0    0    0    0 -0.00000000000E+00 -0.00000000000E+00 -0.45593999997E+02  0.45594000000E+02  0.51100000000E-03 0. -1.
    9900012    2    1    2    0    0 -0.35148549278E+00  0.10343449425E+01 -0.44673770013E+00  0.90007751685E+02  0.90000013208E+02 0.  0.
        -12    1    1    2    0    0  0.35148549278E+00 -0.10343449425E+01  0.44673770013E+00  0.11802483147E+01  0.00000000000E+00 0.  1.
         11    1    3    3    0    0  0.57509660456E+01  0.59164642491E+01  0.59339488824E+01  0.10163164333E+02  0.51100000000E-03 0. -1.
        -11    1    3    3    0    0  0.34407776014E+02 -0.90395108856E+01  0.83447936490E+01  0.36540982316E+02  0.51100000000E-03 0.  1.
         12    1    3    3    0    0 -0.40510227552E+02  0.41573915789E+01 -0.14725480231E+02  0.43303605036E+02  0.00000000000E+00 0. -1.
</event>
<event>
 8    1  0.3662489E-015  0.9000778E+02  0.7816164E-02  0.1186339E+00
        -11   -1    0    0    0    0  0.00000000000E+00  0.00000000000E+00  0.45593999997E+02  0.45594000000E+02  0.51100000000E-03 0.  1.
         11   -1    0    0    0    0 -0.00000000000E+00 -0.00000000000E+00 -0.45593999997E+02  0.45594000000E+02  0.51100000000E-03 0. -1.
    9900012    2    1    2    0    0 -0.15054929017E+00  0.35664603585E+00 -0.11149198907E+01  0.90007784830E+02  0.90000046790E+02 0.  0.
         23    2    3    3    0    0  0.26298729236E+02  0.10367080138E+01 -0.83271106350E+01  0.62584391273E+02  0.56167315555E+02 0.  0.
        -12    1    1    2    0    0  0.15054929017E+00 -0.35664603585E+00  0.11149198907E+01  0.11802151695E+01  0.00000000000E+00 0.  1.
         11    1    4    4    0    0  0.31312549704E+02 -0.22098481812E+02 -0.41929060896E+01  0.38553847138E+02  0.51100000000E-03 0. -1.
        -11    1    4    4    0    0 -0.50138204681E+01  0.23135189826E+02 -0.41342045453E+01  0.24030544136E+02  0.51100000000E-03 0.  1.
        -12    1    3    3    0    0 -0.26449278526E+02 -0.68006197795E+00  0.72121907442E+01  0.27423393557E+02  0.00000000000E+00 0.  1.
</event>
<event>
 7    1  0.3662489E-015  0.9000789E+02  0.7816164E-02  0.1186339E+00
        -11   -1    0    0    0    0  0.00000000000E+00  0.00000000000E+00  0.45593999997E+02  0.45594000000E+02  0.51100000000E-03 0. -1.
         11   -1    0    0    0    0 -0.00000000000E+00 -0.00000000000E+00 -0.45593999997E+02  0.45594000000E+02  0.51100000000E-03 0.  1.
    9900012    2    1    2    0    0  0.50970481115E+00  0.10528034277E+01  0.15641534793E+00  0.90007889915E+02  0.90000153262E+02 0.  0.
        -12    1    1    2    0    0 -0.50970481115E+00 -0.10528034277E+01 -0.15641534793E+00  0.11801100851E+01  0.00000000000E+00 0.  1.
         11    1    3    3    0    0 -0.17033851137E+02  0.84194181227E+01  0.17958910370E+02  0.26145002353E+02  0.51100000000E-03 0. -1.
        -11    1    3    3    0    0  0.33740882495E+01 -0.21436900407E+02  0.14348442123E+02  0.26015436998E+02  0.51100000000E-03 0.  1.
        -12    1    3    3    0    0  0.14169467699E+02  0.14070285712E+02 -0.32150937145E+02  0.37847450564E+02  0.00000000000E+00 0.  1.
</event>
<event>
 7    1  0.3662489E-015  0.9000751E+02  0.7816164E-02  0.1186340E+00
        -11   -1    0    0    0    0  0.00000000000E+00  0.00000000000E+00  0.45593999997E+02  0.45594000000E+02  0.51100000000E-03 0.  1.
         11   -1    0    0    0    0 -0.00000000000E+00 -0.00000000000E+00 -0.45593999997E+02  0.45594000000E+02  0.51100000000E-03 0. -1.
    9900012    2    1    2    0    0  0.85994674068E+00 -0.80840122027E+00 -0.23099356661E-01  0.90007510902E+02  0.89999769246E+02 0.  0.
        -12    1    1    2    0    0 -0.85994674068E+00  0.80840122027E+00  0.23099356661E-01  0.11804890978E+01  0.00000000000E+00 0.  1.
         11    1    3    3    0    0  0.24020943724E+00  0.13494193272E+01 -0.94885884413E+01  0.95870717096E+01  0.51100000000E-03 0. -1.
        -11    1    3    3    0    0  0.81386095458E+01 -0.27556923244E+02  0.33861109989E+02  0.44409410647E+02  0.51100000000E-03 0.  1.
         12    1    3    3    0    0 -0.75188722424E+01  0.25399102697E+02 -0.24395620905E+02  0.36011028546E+02  0.00000000000E+00 0. -1.
</event>
<event>
 7    1  0.3662489E-015  0.9000750E+02  0.7816164E-02  0.1186340E+00
        -11   -1    0    0    0    0  0.00000000000E+00  0.00000000000E+00  0.45593999997E+02  0.45594000000E+02  0.51100000000E-03 0. -1.
         11   -1    0    0    0    0 -0.00000000000E+00 -0.00000000000E+00 -0.45593999997E+02  0.45594000000E+02  0.51100000000E-03 0.  1.
    9900012    2    1    2    0    0 -0.10309368056E+01 -0.57463899233E+00 -0.23405762289E-01  0.90007496506E+02  0.89999754660E+02 0.  0.
        -12    1    1    2    0    0  0.10309368056E+01  0.57463899233E+00  0.23405762289E-01  0.11805034936E+01  0.00000000000E+00 0.  1.
         11    1    3    3    0    0  0.79251024662E+00 -0.37018022561E+01  0.53232587817E+01  0.65321127327E+01  0.51100000000E-03 0. -1.
        -11    1    3    3    0    0  0.35242577224E+02 -0.19068879411E+02 -0.14604297236E+01  0.40097309967E+02  0.51100000000E-03 0.  1.
         12    1    3    3    0    0 -0.37066024276E+02  0.22196042675E+02 -0.38862348204E+01  0.43378073806E+02  0.00000000000E+00 0. -1.
</event>
<event>
 7    1  0.3662489E-015  0.9000776E+02  0.7816164E-02  0.1186339E+00
        -11   -1    0    0    0    0  0.00000000000E+00  0.00000000000E+00  0.45593999997E+02  0.45594000000E+02  0.51100000000E-03 0. -1.
         11   -1    0    0    0    0 -0.00000000000E+00 -0.00000000000E+00 -0.45593999997E+02  0.45594000000E+02  0.51100000000E-03 0.  1.
    9900012    2    1    2    0    0 -0.27417206519E+00  0.11422240606E+01 -0.11449419896E+00  0.90007764834E+02  0.90000026530E+02 0.  0.
        -12    1    1    2    0    0  0.27417206519E+00 -0.11422240606E+01  0.11449419896E+00  0.11802351662E+01  0.00000000000E+00 0.  1.
         11    1    3    3    0    0  0.39657692263E+02  0.10524248252E+02 -0.93212976327E+01  0.42075871313E+02  0.51100000000E-03 0. -1.
        -11    1    3    3    0    0 -0.63080955046E+01  0.70640470376E+01  0.39801707127E+00  0.94789897824E+01  0.51100000000E-03 0.  1.
        -12    1    3    3    0    0 -0.33623768823E+02 -0.16446071229E+02  0.88087863625E+01  0.38452903739E+02  0.00000000000E+00 0.  1.
</event>
<event>
 7    1  0.3662489E-015  0.9000773E+02  0.7816164E-02  0.1186339E+00
        -11   -1    0    0    0    0  0.00000000000E+00  0.00000000000E+00  0.45593999997E+02  0.45594000000E+02  0.51100000000E-03 0.  1.
         11   -1    0    0    0    0 -0.00000000000E+00 -0.00000000000E+00 -0.45593999997E+02  0.45594000000E+02  0.51100000000E-03 0. -1.
    9900012    2    1    2    0    0  0.61662741255E+00 -0.45010736337E+00 -0.90011679475E+00  0.90007730434E+02  0.89999991676E+02 0.  0.
        -12    1    1    2    0    0 -0.61662741255E+00  0.45010736337E+00  0.90011679475E+00  0.11802695661E+01  0.00000000000E+00 0.  1.
         11    1    3    3    0    0  0.12278249209E+02 -0.26193281375E+01 -0.34417677090E+02  0.36635949286E+02  0.51100000000E-03 0. -1.
        -11    1    3    3    0    0 -0.47123258382E+01  0.98636333723E+00 -0.90358569309E+01  0.10238439245E+02  0.51100000000E-03 0.  1.
        -12    1    3    3    0    0 -0.69492959583E+01  0.11828574369E+01  0.42553417227E+02  0.43133341903E+02  0.00000000000E+00 0.  1.
</event>
<event>
 7    1  0.3662489E-015  0.9000768E+02  0.7816164E-02  0.1186339E+00
        -11   -1    0    0    0    0  0.00000000000E+00  0.00000000000E+00  0.45593999997E+02  0.45594000000E+02  0.51100000000E-03 0.  1.
         11   -1    0    0    0    0 -0.00000000000E+00 -0.00000000000E+00 -0.45593999997E+02  0.45594000000E+02  0.51100000000E-03 0. -1.
    9900012    2    1    2    0    0  0.11425908715E+01 -0.25296658150E+00  0.15377586477E+00  0.90007680972E+02  0.89999941561E+02 0.  0.
        -12    1    1    2    0    0 -0.11425908715E+01  0.25296658150E+00 -0.15377586477E+00  0.11803190279E+01  0.00000000000E+00 0.  1.
         11    1    3    3    0    0  0.19479436703E+01 -0.39004446178E+01  0.97825876776E+01  0.10710134205E+02  0.51100000000E-03 0. -1.
        -11    1    3    3    0    0 -0.25326486122E+02  0.11973879199E+02  0.23975210954E+02  0.36872963305E+02  0.51100000000E-03 0.  1.
         12    1    3    3    0    0  0.24521133324E+02 -0.83264011622E+01 -0.33604022767E+02  0.42424583462E+02  0.00000000000E+00 0. -1.
</event>
<event>
 7    1  0.3662489E-015  0.9000760E+02  0.7816164E-02  0.1186339E+00
        -11   -1    0    0    0    0  0.00000000000E+00  0.00000000000E+00  0.45593999997E+02  0.45594000000E+02  0.51100000000E-03 0.  1.
         11   -1    0    0    0    0 -0.00000000000E+00 -0.00000000000E+00 -0.45593999997E+02  0.45594000000E+02  0.51100000000E-03 0. -1.
    9900012    2    1    2    0    0  0.20939104587E+00 -0.10160737876E+01 -0.56310128937E+00  0.90007604467E+02  0.89999864046E+02 0.  0.
        -12    1    1    2    0    0 -0.20939104587E+00  0.10160737876E+01  0.56310128937E+00  0.11803955328E+01  0.00000000000E+00 0.  1.
         11    1    3    3    0    0  0.84683596394E+01  0.46583854155E+01  0.42880247960E+01  0.10573590997E+02  0.51100000000E-03 0. -1.
        -11    1    3    3    0    0  0.22170687018E+02  0.25958162389E+02  0.48544221696E+01  0.34480878358E+02  0.51100000000E-03 0.  1.
         12    1    3    3    0    0 -0.30429655612E+02 -0.31632621592E+02 -0.97055482550E+01  0.44953135112E+02  0.00000000000E+00 0. -1.
</event>
<event>
 7    1  0.3662489E-015  0.9000775E+02  0.7816164E-02  0.1186339E+00
        -11   -1    0    0    0    0  0.00000000000E+00  0.00000000000E+00  0.45593999997E+02  0.45594000000E+02  0.51100000000E-03 0.  1.
         11   -1    0    0    0    0 -0.00000000000E+00 -0.00000000000E+00 -0.45593999997E+02  0.45594000000E+02  0.51100000000E-03 0. -1.
    9900012    2    1    2    0    0  0.69067416981E+00 -0.95496960579E+00  0.63156101677E-01  0.90007751530E+02  0.90000013051E+02 0.  0.
        -12    1    1    2    0    0 -0.69067416981E+00  0.95496960579E+00 -0.63156101677E-01  0.11802484696E+01  0.00000000000E+00 0.  1.
         11    1    3    3    0    0  0.20585061846E+02 -0.16265607310E+01 -0.28653118169E+02  0.35318432186E+02  0.51100000000E-03 0. -1.
        -11    1    3    3    0    0  0.20421312789E+01 -0.20513767243E+01 -0.98340132357E+01  0.10251159115E+02  0.51100000000E-03 0.  1.
        -12    1    3    3    0    0 -0.21936518955E+02  0.27229678496E+01  0.38550287506E+02  0.44438160229E+02  0.00000000000E+00 0.  1.
</event>
<event>
 7    1  0.3662489E-015  0.9000735E+02  0.7816164E-02  0.1186340E+00
        -11   -1    0    0    0    0  0.00000000000E+00  0.00000000000E+00  0.45593999997E+02  0.45594000000E+02  0.51100000000E-03 0.  1.
         11   -1    0    0    0    0 -0.00000000000E+00 -0.00000000000E+00 -0.45593999997E+02  0.45594000000E+02  0.51100000000E-03 0. -1.
    9900012    2    1    2    0    0 -0.98820008809E+00  0.17511030232E+00 -0.62187706522E+00  0.90007350130E+02  0.89999606351E+02 0.  0.
        -12    1    1    2    0    0  0.98820008809E+00 -0.17511030232E+00  0.62187706522E+00  0.11806498703E+01  0.00000000000E+00 0.  1.
         11    1    3    3    0    0 -0.97795668907E+01 -0.17813421480E+02 -0.14921000704E+02  0.25210993150E+02  0.51100000000E-03 0. -1.
        -11    1    3    3    0    0 -0.12028701232E+02 -0.16739272900E+02 -0.28779440675E+01  0.20812867964E+02  0.51100000000E-03 0.  1.
        -12    1    3    3    0    0  0.20820068034E+02  0.34727804682E+02  0.17177067706E+02  0.43983489015E+02  0.00000000000E+00 0.  1.
</event>
<event>
 7    1  0.3662489E-015  0.9000772E+02  0.7816164E-02  0.1186339E+00
        -11   -1    0    0    0    0  0.00000000000E+00  0.00000000000E+00  0.45593999997E+02  0.45594000000E+02  0.51100000000E-03 0.  1.
         11   -1    0    0    0    0 -0.00000000000E+00 -0.00000000000E+00 -0.45593999997E+02  0.45594000000E+02  0.51100000000E-03 0. -1.
    9900012    2    1    2    0    0 -0.75403977742E-01 -0.83306088770E+00 -0.83269617512E+00  0.90007720744E+02  0.89999981858E+02 0.  0.
        -12    1    1    2    0    0  0.75403977742E-01  0.83306088770E+00  0.83269617512E+00  0.11802792562E+01  0.00000000000E+00 0.  1.
         11    1    3    3    0    0 -0.32901896953E+02  0.17937659378E+02 -0.10534148271E+02  0.38926375726E+02  0.51100000000E-03 0. -1.
        -11    1    3    3    0    0 -0.37152763866E+00  0.70264461719E+01  0.52993726979E+01  0.88086508528E+01  0.51100000000E-03 0.  1.
        -12    1    3    3    0    0  0.33198020614E+02 -0.25797166438E+02  0.44020793980E+01  0.42272694165E+02  0.00000000000E+00 0.  1.
</event>
<event>
 7    1  0.3662489E-015  0.9000773E+02  0.7816164E-02  0.1186339E+00
        -11   -1    0    0    0    0  0.00000000000E+00  0.00000000000E+00  0.45593999997E+02  0.45594000000E+02  0.51100000000E-03 0.  1.
         11   -1    0    0    0    0 -0.00000000000E+00 -0.00000000000E+00 -0.45593999997E+02  0.45594000000E+02  0.51100000000E-03 0. -1.
    9900012    2    1    2    0    0  0.53118664219E+00  0.26611642579E+00 -0.10198325321E+01  0.90007730711E+02  0.89999991956E+02 0.  0.
        -12    1    1    2    0    0 -0.53118664219E+00 -0.26611642579E+00  0.10198325321E+01  0.11802692890E+01  0.00000000000E+00 0.  1.
         11    1    3    3    0    0 -0.30154585466E+01  0.42399656888E+00 -0.10073465900E+02  0.10523662805E+02  0.51100000000E-03 0. -1.
        -11    1    3    3    0    0  0.19658248559E+02  0.34558275845E+02  0.10710187179E+02  0.41175590772E+02  0.51100000000E-03 0.  1.
         12    1    3    3    0    0 -0.16111603371E+02 -0.34716155988E+02 -0.16565538114E+01  0.38308477133E+02  0.00000000000E+00 0. -1.
</event>
<event>
 7    1  0.3662489E-015  0.9000778E+02  0.7816164E-02  0.1186339E+00
        -11   -1    0    0    0    0  0.00000000000E+00  0.00000000000E+00  0.45593999997E+02  0.45594000000E+02  0.51100000000E-03 0.  1.
         11   -1    0    0    0    0 -0.00000000000E+00 -0.00000000000E+00 -0.45593999997E+02  0.45594000000E+02  0.51100000000E-03 0. -1.
    9900012    2    1    2    0    0  0.64207669815E+00  0.53588174209E+00 -0.83275431993E+00  0.90007783289E+02  0.90000045228E+02 0.  0.
        -12    1    1    2    0    0 -0.64207669815E+00 -0.53588174209E+00  0.83275431993E+00  0.11802167111E+01  0.00000000000E+00 0.  1.
         11    1    3    3    0    0 -0.11535574211E+02 -0.39491272235E+01 -0.38537997808E+02  0.40420815844E+02  0.51100000000E-03 0. -1.
        -11    1    3    3    0    0  0.10753150357E+01 -0.76413211464E+01 -0.76137318715E+00  0.77540815498E+01  0.51100000000E-03 0.  1.
        -12    1    3    3    0    0  0.11102335874E+02  0.12126330112E+02  0.38466616675E+02  0.41832885895E+02  0.00000000000E+00 0.  1.
</event>
<event>
 7    1  0.3662489E-015  0.9000773E+02  0.7816164E-02  0.1186339E+00
        -11   -1    0    0    0    0  0.00000000000E+00  0.00000000000E+00  0.45593999997E+02  0.45594000000E+02  0.51100000000E-03 0.  1.
         11   -1    0    0    0    0 -0.00000000000E+00 -0.00000000000E+00 -0.45593999997E+02  0.45594000000E+02  0.51100000000E-03 0. -1.
    9900012    2    1    2    0    0  0.21193355395E+00  0.65290909402E+00  0.96012187808E+00  0.90007728787E+02  0.89999990007E+02 0.  0.
        -12    1    1    2    0    0 -0.21193355395E+00 -0.65290909402E+00 -0.96012187808E+00  0.11802712134E+01  0.00000000000E+00 0.  1.
         11    1    3    3    0    0  0.96435749883E+01 -0.28519632784E+02 -0.30867813961E+02  0.43118324778E+02  0.51100000000E-03 0. -1.
        -11    1    3    3    0    0 -0.82746643054E+00  0.83971937593E+01  0.66972881655E+00  0.84644019679E+01  0.51100000000E-03 0.  1.
        -12    1    3    3    0    0 -0.86041750038E+01  0.20775348119E+02  0.31158207022E+02  0.38425002040E+02  0.00000000000E+00 0.  1.
</event>
<event>
 7    1  0.3662489E-015  0.9000778E+02  0.7816164E-02  0.1186339E+00
        -11   -1    0    0    0    0  0.00000000000E+00  0.00000000000E+00  0.45593999997E+02  0.45594000000E+02  0.51100000000E-03 0.  1.
         11   -1    0    0    0    0 -0.00000000000E+00 -0.00000000000E+00 -0.45593999997E+02  0.45594000000E+02  0.51100000000E-03 0. -1.
    9900012    2    1    2    0    0 -0.70615431643E+00  0.12331330762E+00 -0.93758681682E+00  0.90007775814E+02  0.90000037655E+02 0.  0.
        -12    1    1    2    0    0  0.70615431643E+00 -0.12331330762E+00  0.93758681682E+00  0.11802241861E+01  0.00000000000E+00 0.  1.
         11    1    3    3    0    0 -0.47349286788E+01  0.16040231008E+01 -0.78952395044E+01  0.93449048575E+01  0.51100000000E-03 0. -1.
        -11    1    3    3    0    0 -0.19352935190E+02 -0.20672344415E+02  0.31026511508E+02  0.42006265493E+02  0.51100000000E-03 0.  1.
         12    1    3    3    0    0  0.23381709552E+02  0.19191634622E+02 -0.24068858820E+02  0.38656605463E+02  0.00000000000E+00 0. -1.
</event>
<event>
 7    1  0.3662489E-015  0.9000681E+02  0.7816164E-02  0.1186341E+00
        -11   -1    0    0    0    0  0.00000000000E+00  0.00000000000E+00  0.45593999997E+02  0.45594000000E+02  0.51100000000E-03 0. -1.
         11   -1    0    0    0    0 -0.00000000000E+00 -0.00000000000E+00 -0.45593999997E+02  0.45594000000E+02  0.51100000000E-03 0.  1.
    9900012    2    1    2    0    0 -0.11480650001E+01 -0.54567473950E-01  0.27234688703E+00  0.90006812597E+02  0.89999061719E+02 0.  0.
        -12    1    1    2    0    0  0.11480650001E+01  0.54567473950E-01 -0.27234688703E+00  0.11811874028E+01  0.00000000000E+00 0.  1.
         11    1    3    3    0    0 -0.57511889570E+01 -0.71825917208E+01  0.60622802926E+01  0.11018940097E+02  0.51100000000E-03 0. -1.
        -11    1    3    3    0    0 -0.95645095813E+01 -0.30009724095E+02 -0.19378490993E+02  0.36980931535E+02  0.51100000000E-03 0.  1.
         12    1    3    3    0    0  0.14167633538E+02  0.37137748342E+02  0.13588557587E+02  0.42006940965E+02  0.00000000000E+00 0. -1.
</event>
<event>
 7    1  0.3662489E-015  0.9000779E+02  0.7816164E-02  0.1186339E+00
        -11   -1    0    0    0    0  0.00000000000E+00  0.00000000000E+00  0.45593999997E+02  0.45594000000E+02  0.51100000000E-03 0. -1.
         11   -1    0    0    0    0 -0.00000000000E+00 -0.00000000000E+00 -0.45593999997E+02  0.45594000000E+02  0.51100000000E-03 0.  1.
    9900012    2    1    2    0    0  0.99496093221E+00 -0.58979774063E+00 -0.23472161658E+00  0.90007786939E+02  0.90000048927E+02 0.  0.
        -12    1    1    2    0    0 -0.99496093221E+00  0.58979774063E+00  0.23472161658E+00  0.11802130607E+01  0.00000000000E+00 0.  1.
         11    1    3    3    0    0  0.38982180591E+02  0.80675552516E+01 -0.16562995886E+02  0.43116454914E+02  0.51100000000E-03 0. -1.
        -11    1    3    3    0    0 -0.41547026932E+01  0.56701137258E+01  0.42572251043E+01  0.82180113155E+01  0.51100000000E-03 0.  1.
        -12    1    3    3    0    0 -0.33832516966E+02 -0.14327466718E+02  0.12071049165E+02  0.38673320710E+02  0.00000000000E+00 0.  1.
</event>
<event>
 7    1  0.3662489E-015  0.9000783E+02  0.7816164E-02  0.1186339E+00
        -11   -1    0    0    0    0  0.00000000000E+00  0.00000000000E+00  0.45593999997E+02  0.45594000000E+02  0.51100000000E-03 0. -1.
         11   -1    0    0    0    0 -0.00000000000E+00 -0.00000000000E+00 -0.45593999997E+02  0.45594000000E+02  0.51100000000E-03 0.  1.
    9900012    2    1    2    0    0  0.98204868786E+00  0.11415699378E+00 -0.64448486579E+00  0.90007825358E+02  0.90000087852E+02 0.  0.
        -12    1    1    2    0    0 -0.98204868786E+00 -0.11415699378E+00  0.64448486579E+00  0.11801746425E+01  0.00000000000E+00 0.  1.
         11    1    3    3    0    0 -0.53032499722E+01  0.83748242454E+01 -0.14537557679E+01  0.10018759779E+02  0.51100000000E-03 0. -1.
        -11    1    3    3    0    0  0.15288685682E+02  0.29448735827E+02 -0.17048698890E+02  0.37304558512E+02  0.51100000000E-03 0.  1.
         12    1    3    3    0    0 -0.90033870219E+01 -0.37709403079E+02  0.17857969792E+02  0.42684507067E+02  0.00000000000E+00 0. -1.
</event>
<event>
 7    1  0.3662489E-015  0.9000786E+02  0.7816164E-02  0.1186339E+00
        -11   -1    0    0    0    0  0.00000000000E+00  0.00000000000E+00  0.45593999997E+02  0.45594000000E+02  0.51100000000E-03 0. -1.
         11   -1    0    0    0    0 -0.00000000000E+00 -0.00000000000E+00 -0.45593999997E+02  0.45594000000E+02  0.51100000000E-03 0.  1.
    9900012    2    1    2    0    0  0.51935159910E+00 -0.78990811901E+00  0.70643375549E+00  0.90007860360E+02  0.90000123316E+02 0.  0.
        -12    1    1    2    0    0 -0.51935159910E+00  0.78990811901E+00 -0.70643375549E+00  0.11801396404E+01  0.00000000000E+00 0.  1.
         11    1    3    3    0    0  0.25981101837E+02 -0.14321283492E+02  0.19740962359E+02  0.35634567609E+02  0.51100000000E-03 0. -1.
        -11    1    3    3    0    0 -0.21211450573E+01 -0.10821763653E+02  0.58238482523E+01  0.12471047817E+02  0.51100000000E-03 0.  1.
        -12    1    3    3    0    0 -0.23340605180E+02  0.24353139026E+02 -0.24858376856E+02  0.41902244934E+02  0.00000000000E+00 0.  1.
</event>
<event>
 7    1  0.3662489E-015  0.9000778E+02  0.7816164E-02  0.1186339E+00
        -11   -1    0    0    0    0  0.00000000000E+00  0.00000000000E+00  0.45593999997E+02  0.45594000000E+02  0.51100000000E-03 0.  1.
         11   -1    0    0    0    0 -0.00000000000E+00 -0.00000000000E+00 -0.45593999997E+02  0.45594000000E+02  0.51100000000E-03 0. -1.
    9900012    2    1    2    0    0 -0.65354489179E+00  0.90159313572E+00 -0.39106881473E+00  0.90007777171E+02  0.90000039030E+02 0.  0.
        -12    1    1    2    0    0  0.65354489179E+00 -0.90159313572E+00  0.39106881473E+00  0.11802228289E+01  0.00000000000E+00 0.  1.
         11    1    3    3    0    0  0.32293546071E+01  0.20198834299E+02 -0.26022141138E+02  0.33099448151E+02  0.51100000000E-03 0. -1.
        -11    1    3    3    0    0 -0.23199730055E+01 -0.12065266662E+02 -0.12817077176E+02  0.17754729003E+02  0.51100000000E-03 0.  1.
        -12    1    3    3    0    0 -0.15629264934E+01 -0.72319745019E+01  0.38448149499E+02  0.39153600018E+02  0.00000000000E+00 0.  1.
</event>
<event>
 7    1  0.3662489E-015  0.9000780E+02  0.7816164E-02  0.1186339E+00
        -11   -1    0    0    0    0  0.00000000000E+00  0.00000000000E+00  0.45593999997E+02  0.45594000000E+02  0.51100000000E-03 0.  1.
         11   -1    0    0    0    0 -0.00000000000E+00 -0.00000000000E+00 -0.45593999997E+02  0.45594000000E+02  0.51100000000E-03 0. -1.
    9900012    2    1    2    0    0  0.10065548373E+01  0.61426089780E+00  0.48911699626E-01  0.90007804488E+02  0.90000066708E+02 0.  0.
        -12    1    1    2    0    0 -0.10065548373E+01 -0.61426089780E+00 -0.48911699626E-01  0.11801955115E+01  0.00000000000E+00 0.  1.
         11    1    3    3    0    0 -0.15875519703E+01 -0.27868395915E+02 -0.23298184776E+02  0.36358949741E+02  0.51100000000E-03 0. -1.
        -11    1    3    3    0    0  0.61699211316E+01 -0.74232087121E+01 -0.15957406887E+01  0.97835751625E+01  0.51100000000E-03 0.  1.
        -12    1    3    3    0    0 -0.35758143239E+01  0.35905865525E+02  0.24942837165E+02  0.43865279585E+02  0.00000000000E+00 0.  1.
</event>
<event>
 7    1  0.3662489E-015  0.9000777E+02  0.7816164E-02  0.1186339E+00
        -11   -1    0    0    0    0  0.00000000000E+00  0.00000000000E+00  0.45593999997E+02  0.45594000000E+02  0.51100000000E-03 0.  1.
         11   -1    0    0    0    0 -0.00000000000E+00 -0.00000000000E+00 -0.45593999997E+02  0.45594000000E+02  0.51100000000E-03 0. -1.
    9900012    2    1    2    0    0 -0.48764258069E+00  0.89192391822E+00 -0.59968005585E+00  0.90007771322E+02  0.90000033104E+02 0.  0.
        -12    1    1    2    0    0  0.48764258069E+00 -0.89192391822E+00  0.59968005585E+00  0.11802286777E+01  0.00000000000E+00 0.  1.
         11    1    3    3    0    0  0.11587046184E+02  0.81808795551E+01 -0.38226035573E+02  0.40772738753E+02  0.51100000000E-03 0. -1.
        -11    1    3    3    0    0 -0.86639913071E+01 -0.69910020856E+01 -0.31722714167E+00  0.11137301686E+02  0.51100000000E-03 0.  1.
        -12    1    3    3    0    0 -0.34106974580E+01 -0.29795355135E+00  0.37943582658E+02  0.38097730883E+02  0.00000000000E+00 0.  1.
</event>
<event>
 7    1  0.3662489E-015  0.9000775E+02  0.7816164E-02  0.1186339E+00
        -11   -1    0    0    0    0  0.00000000000E+00  0.00000000000E+00  0.45593999997E+02  0.45594000000E+02  0.51100000000E-03 0. -1.
         11   -1    0    0    0    0 -0.00000000000E+00 -0.00000000000E+00 -0.45593999997E+02  0.45594000000E+02  0.51100000000E-03 0.  1.
    9900012    2    1    2    0    0 -0.53935565632E+00 -0.60777522455E+00  0.85598192915E+00  0.90007745659E+02  0.90000007101E+02 0.  0.
        -12    1    1    2    0    0  0.53935565632E+00  0.60777522455E+00 -0.85598192915E+00  0.11802543415E+01  0.00000000000E+00 0.  1.
         11    1    3    3    0    0  0.35166198980E+01 -0.34844688230E+02  0.81526142635E+01  0.35958087171E+02  0.51100000000E-03 0. -1.
        -11    1    3    3    0    0 -0.59487261981E+01 -0.84772169694E+01 -0.42202824565E+01  0.11183082545E+02  0.51100000000E-03 0.  1.
        -12    1    3    3    0    0  0.18927506438E+01  0.42714129975E+02 -0.30763498779E+01  0.42866575943E+02  0.00000000000E+00 0.  1.
</event>
<event>
 7    1  0.3662489E-015  0.9000807E+02  0.7816164E-02  0.1186338E+00
        -11   -1    0    0    0    0  0.00000000000E+00  0.00000000000E+00  0.45593999997E+02  0.45594000000E+02  0.51100000000E-03 0. -1.
         11   -1    0    0    0    0 -0.00000000000E+00 -0.00000000000E+00 -0.45593999997E+02  0.45594000000E+02  0.51100000000E-03 0.  1.
    9900012    2    1    2    0    0  0.71304352222E+00  0.73728888224E+00  0.58326479416E+00  0.90008074672E+02  0.90000340457E+02 0.  0.
        -12    1    1    2    0    0 -0.71304352222E+00 -0.73728888224E+00 -0.58326479416E+00  0.11799253284E+01  0.00000000000E+00 0.  1.
         11    1    3    3    0    0  0.22948439562E+02 -0.21559922221E+02 -0.21423620985E+02  0.38084546221E+02  0.51100000000E-03 0. -1.
        -11    1    3    3    0    0  0.30984644543E+01 -0.73697105690E+01  0.31429514398E+01  0.85901839246E+01  0.51100000000E-03 0.  1.
        -12    1    3    3    0    0 -0.25333860494E+02  0.29666921672E+02  0.18863934339E+02  0.43333344526E+02  0.00000000000E+00 0.  1.
</event>
<event>
 7    1  0.3662489E-015  0.9000773E+02  0.7816164E-02  0.1186339E+00
        -11   -1    0    0    0    0  0.00000000000E+00  0.00000000000E+00  0.45593999997E+02  0.45594000000E+02  0.51100000000E-03 0.  1.
         11   -1    0    0    0    0 -0.00000000000E+00 -0.00000000000E+00 -0.45593999997E+02  0.45594000000E+02  0.51100000000E-03 0. -1.
    9900012    2    1    2    0    0  0.36864718484E+00  0.24722651164E+00 -0.10936245014E+01  0.90007730435E+02  0.89999991677E+02 0.  0.
        -12    1    1    2    0    0 -0.36864718484E+00 -0.24722651164E+00  0.10936245014E+01  0.11802695646E+01  0.00000000000E+00 0.  1.
         11    1    3    3    0    0 -0.25195362518E+01 -0.10721057257E+02 -0.22406331166E+01  0.11238752985E+02  0.51100000000E-03 0. -1.
        -11    1    3    3    0    0 -0.31125658839E+02 -0.15017371908E+02 -0.68309600132E+01  0.35227689566E+02  0.51100000000E-03 0.  1.
         12    1    3    3    0    0  0.34013842275E+02  0.25985655676E+02  0.79779686284E+01  0.43541287885E+02  0.00000000000E+00 0. -1.
</event>
<event>
 7    1  0.3662489E-015  0.9000768E+02  0.7816164E-02  0.1186339E+00
        -11   -1    0    0    0    0  0.00000000000E+00  0.00000000000E+00  0.45593999997E+02  0.45594000000E+02  0.51100000000E-03 0.  1.
         11   -1    0    0    0    0 -0.00000000000E+00 -0.00000000000E+00 -0.45593999997E+02  0.45594000000E+02  0.51100000000E-03 0. -1.
    9900012    2    1    2    0    0  0.39272271125E+00 -0.75764445532E+00 -0.81540720451E+00  0.90007684297E+02  0.89999944930E+02 0.  0.
        -12    1    1    2    0    0 -0.39272271125E+00  0.75764445532E+00  0.81540720451E+00  0.11803157026E+01  0.00000000000E+00 0.  1.
         11    1    3    3    0    0  0.11225080669E+02 -0.36223946002E+01 -0.35145609410E+01  0.12307571553E+02  0.51100000000E-03 0. -1.
        -11    1    3    3    0    0  0.22939112978E+02 -0.94712860173E+01  0.25133174261E+02  0.35321163793E+02  0.51100000000E-03 0.  1.
         12    1    3    3    0    0 -0.33771470935E+02  0.12336036162E+02 -0.22434020524E+02  0.42378948951E+02  0.00000000000E+00 0. -1.
</event>
<event>
 7    1  0.3662489E-015  0.9000773E+02  0.7816164E-02  0.1186339E+00
        -11   -1    0    0    0    0  0.00000000000E+00  0.00000000000E+00  0.45593999997E+02  0.45594000000E+02  0.51100000000E-03 0.  1.
         11   -1    0    0    0    0 -0.00000000000E+00 -0.00000000000E+00 -0.45593999997E+02  0.45594000000E+02  0.51100000000E-03 0. -1.
    9900012    2    1    2    0    0  0.38021383709E+00 -0.11147145982E+01 -0.76777678204E-01  0.90007726299E+02  0.89999987486E+02 0.  0.
        -12    1    1    2    0    0 -0.38021383709E+00  0.11147145982E+01  0.76777678204E-01  0.11802737009E+01  0.00000000000E+00 0.  1.
         11    1    3    3    0    0 -0.30707440226E+02  0.14876117901E+01  0.10530798931E+01  0.30761483248E+02  0.51100000000E-03 0. -1.
        -11    1    3    3    0    0 -0.13348244523E+02 -0.17355830070E+01 -0.55971821530E+01  0.14577939791E+02  0.51100000000E-03 0.  1.
        -12    1    3    3    0    0  0.44435898586E+02 -0.86674338123E+00  0.44673245817E+01  0.44668303261E+02  0.00000000000E+00 0.  1.
</event>
<event>
 7    1  0.3662489E-015  0.9000774E+02  0.7816164E-02  0.1186339E+00
        -11   -1    0    0    0    0  0.00000000000E+00  0.00000000000E+00  0.45593999997E+02  0.45594000000E+02  0.51100000000E-03 0. -1.
         11   -1    0    0    0    0 -0.00000000000E+00 -0.00000000000E+00 -0.45593999997E+02  0.45594000000E+02  0.51100000000E-03 0.  1.
    9900012    2    1    2    0    0 -0.39155391860E-01  0.90511094644E+00  0.75647363786E+00  0.90007740988E+02  0.90000002369E+02 0.  0.
        -12    1    1    2    0    0  0.39155391860E-01 -0.90511094643E+00 -0.75647363786E+00  0.11802590118E+01  0.00000000000E+00 0.  1.
         11    1    3    3    0    0  0.35845944115E+02  0.95257149600E+01  0.23240181739E+02  0.43769589929E+02  0.51100000000E-03 0. -1.
        -11    1    3    3    0    0 -0.86904264272E+01  0.35769286080E+01 -0.90383132791E+00  0.94411249904E+01  0.51100000000E-03 0.  1.
        -12    1    3    3    0    0 -0.27194673080E+02 -0.12197532622E+02 -0.21579876773E+02  0.36797026069E+02  0.00000000000E+00 0.  1.
</event>
<event>
 7    1  0.3662489E-015  0.9000773E+02  0.7816164E-02  0.1186339E+00
        -11   -1    0    0    0    0  0.00000000000E+00  0.00000000000E+00  0.45593999997E+02  0.45594000000E+02  0.51100000000E-03 0.  1.
         11   -1    0    0    0    0 -0.00000000000E+00 -0.00000000000E+00 -0.45593999997E+02  0.45594000000E+02  0.51100000000E-03 0. -1.
    9900012    2    1    2    0    0  0.37621735574E+00  0.11136423147E+01  0.10629381044E+00  0.90007730083E+02  0.89999991320E+02 0.  0.
        -12    1    1    2    0    0 -0.37621735574E+00 -0.11136423147E+01 -0.10629381044E+00  0.11802699174E+01  0.00000000000E+00 0.  1.
         11    1    3    3    0    0 -0.10502183477E+01  0.56584521224E+01  0.34652293491E+01  0.67178012550E+01  0.51100000000E-03 0. -1.
        -11    1    3    3    0    0 -0.17976936028E+01  0.31703763265E+02  0.22264625287E+02  0.38782390938E+02  0.51100000000E-03 0.  1.
         12    1    3    3    0    0  0.32241293061E+01 -0.36248573073E+02 -0.25623560826E+02  0.44507537889E+02  0.00000000000E+00 0. -1.
</event>
<event>
 7    1  0.3662489E-015  0.9000778E+02  0.7816164E-02  0.1186339E+00
        -11   -1    0    0    0    0  0.00000000000E+00  0.00000000000E+00  0.45593999997E+02  0.45594000000E+02  0.51100000000E-03 0. -1.
         11   -1    0    0    0    0 -0.00000000000E+00 -0.00000000000E+00 -0.45593999997E+02  0.45594000000E+02  0.51100000000E-03 0.  1.
    9900012    2    1    2    0    0  0.84217615854E+00 -0.17956858472E+00  0.80710286106E+00  0.90007779433E+02  0.90000041321E+02 0.  0.
        -12    1    1    2    0    0 -0.84217615854E+00  0.17956858472E+00 -0.80710286106E+00  0.11802205671E+01  0.00000000000E+00 0.  1.
         11    1    3    3    0    0 -0.99756455126E+01  0.57757124335E+00  0.62871950701E-01  0.99925494784E+01  0.51100000000E-03 0. -1.
        -11    1    3    3    0    0 -0.28797470635E+01 -0.27138622729E+01 -0.38345364926E+02  0.38548994840E+02  0.51100000000E-03 0.  1.
         12    1    3    3    0    0  0.13697568735E+02  0.19567224448E+01  0.39089595836E+02  0.41466235115E+02  0.00000000000E+00 0. -1.
</event>
<event>
 7    1  0.3662489E-015  0.9000778E+02  0.7816164E-02  0.1186339E+00
        -11   -1    0    0    0    0  0.00000000000E+00  0.00000000000E+00  0.45593999997E+02  0.45594000000E+02  0.51100000000E-03 0.  1.
         11   -1    0    0    0    0 -0.00000000000E+00 -0.00000000000E+00 -0.45593999997E+02  0.45594000000E+02  0.51100000000E-03 0. -1.
    9900012    2    1    2    0    0 -0.10455825934E+01  0.42322552483E+00 -0.34722401921E+00  0.90007776579E+02  0.90000038430E+02 0.  0.
        -12    1    1    2    0    0  0.10455825934E+01 -0.42322552483E+00  0.34722401921E+00  0.11802234212E+01  0.00000000000E+00 0.  1.
         11    1    3    3    0    0 -0.35550692937E+02  0.21235765957E+01 -0.11190468340E+02  0.37330790613E+02  0.51100000000E-03 0. -1.
        -11    1    3    3    0    0 -0.70940825404E+01  0.46685980514E+01 -0.19070943134E+01  0.87039544942E+01  0.51100000000E-03 0.  1.
        -12    1    3    3    0    0  0.41599192884E+02 -0.63689491222E+01  0.12750338634E+02  0.43973031472E+02  0.00000000000E+00 0.  1.
</event>
<event>
 7    1  0.3662489E-015  0.9000771E+02  0.7816164E-02  0.1186339E+00
        -11   -1    0    0    0    0  0.00000000000E+00  0.00000000000E+00  0.45593999997E+02  0.45594000000E+02  0.51100000000E-03 0.  1.
         11   -1    0    0    0    0 -0.00000000000E+00 -0.00000000000E+00 -0.45593999997E+02  0.45594000000E+02  0.51100000000E-03 0. -1.
    9900012    2    1    2    0    0 -0.39083709139E+00  0.65961500628E+00 -0.89734966025E+00  0.90007711052E+02  0.89999972038E+02 0.  0.
        -12    1    1    2    0    0  0.39083709139E+00 -0.65961500628E+00  0.89734966025E+00  0.11802889482E+01  0.00000000000E+00 0.  1.
         11    1    3    3    0    0  0.86836223177E+01  0.35361574351E+02 -0.40810578093E+01  0.36640159255E+02  0.51100000000E-03 0. -1.
        -11    1    3    3    0    0 -0.65653502831E+01  0.79142827770E+01  0.28714319231E+01  0.10676367255E+02  0.51100000000E-03 0.  1.
        -12    1    3    3    0    0 -0.25091091260E+01 -0.42616242121E+02  0.31227622586E+00  0.42691184542E+02  0.00000000000E+00 0.  1.
</event>
<event>
 7    1  0.3662489E-015  0.9000772E+02  0.7816164E-02  0.1186339E+00
        -11   -1    0    0    0    0  0.00000000000E+00  0.00000000000E+00  0.45593999997E+02  0.45594000000E+02  0.51100000000E-03 0.  1.
         11   -1    0    0    0    0 -0.00000000000E+00 -0.00000000000E+00 -0.45593999997E+02  0.45594000000E+02  0.51100000000E-03 0. -1.
    9900012    2    1    2    0    0 -0.42905371024E+00 -0.95174791791E+00 -0.55059518724E+00  0.90007717726E+02  0.89999978800E+02 0.  0.
        -12    1    1    2    0    0  0.42905371024E+00  0.95174791791E+00  0.55059518724E+00  0.11802822737E+01  0.00000000000E+00 0.  1.
         11    1    3    3    0    0 -0.17751162681E+01 -0.99242304744E+01 -0.43992865403E+01  0.10999777752E+02  0.51100000000E-03 0. -1.
        -11    1    3    3    0    0 -0.36127792791E+02 -0.85079756721E+01 -0.23740762542E+01  0.37191925203E+02  0.51100000000E-03 0.  1.
         12    1    3    3    0    0  0.37473855349E+02  0.17480458229E+02  0.62227676073E+01  0.41816014771E+02  0.00000000000E+00 0. -1.
</event>
<event>
 7    1  0.3662489E-015  0.9000773E+02  0.7816164E-02  0.1186339E+00
        -11   -1    0    0    0    0  0.00000000000E+00  0.00000000000E+00  0.45593999997E+02  0.45594000000E+02  0.51100000000E-03 0.  1.
         11   -1    0    0    0    0 -0.00000000000E+00 -0.00000000000E+00 -0.45593999997E+02  0.45594000000E+02  0.51100000000E-03 0. -1.
    9900012    2    1    2    0    0 -0.14764305867E+00  0.26610763146E+00  0.11403609795E+01  0.90007731002E+02  0.89999992251E+02 0.  0.
        -12    1    1    2    0    0  0.14764305867E+00 -0.26610763146E+00 -0.11403609795E+01  0.11802689981E+01  0.00000000000E+00 0.  1.
         11    1    3    3    0    0 -0.25300150690E+02 -0.19048104908E+02 -0.18068806833E+02  0.36461071106E+02  0.51100000000E-03 0. -1.
        -11    1    3    3    0    0 -0.50713471719E+01 -0.72659040529E+01  0.75551070217E+01  0.11644379168E+02  0.51100000000E-03 0.  1.
        -12    1    3    3    0    0  0.30223854804E+02  0.26580116593E+02  0.11654060791E+02  0.41902280728E+02  0.00000000000E+00 0.  1.
</event>
<event>
 7    1  0.3662489E-015  0.9000774E+02  0.7816164E-02  0.1186339E+00
        -11   -1    0    0    0    0  0.00000000000E+00  0.00000000000E+00  0.45593999997E+02  0.45594000000E+02  0.51100000000E-03 0.  1.
         11   -1    0    0    0    0 -0.00000000000E+00 -0.00000000000E+00 -0.45593999997E+02  0.45594000000E+02  0.51100000000E-03 0. -1.
    9900012    2    1    2    0    0  0.36726708413E+00  0.68711874060E-01 -0.11195572419E+01  0.90007739499E+02  0.90000000860E+02 0.  0.
        -12    1    1    2    0    0 -0.36726708413E+00 -0.68711874060E-01  0.11195572419E+01  0.11802605012E+01  0.00000000000E+00 0.  1.
         11    1    3    3    0    0  0.83524475281E+01  0.45510400213E+01 -0.25604273838E+01  0.98504382457E+01  0.51100000000E-03 0. -1.
        -11    1    3    3    0    0 -0.47947026556E+01  0.36357753843E+02  0.10615293810E+02  0.38178002842E+02  0.51100000000E-03 0.  1.
         12    1    3    3    0    0 -0.31904777883E+01 -0.40840081990E+02 -0.91744236678E+01  0.41979298411E+02  0.00000000000E+00 0. -1.
</event>
<event>
 7    1  0.4193369E-015  0.9000792E+02  0.7816164E-02  0.1186339E+00
        -11   -1    0    0    0    0  0.00000000000E+00  0.00000000000E+00  0.45593999997E+02  0.45594000000E+02  0.51100000000E-03 0. -1.
         11   -1    0    0    0    0 -0.00000000000E+00 -0.00000000000E+00 -0.45593999997E+02  0.45594000000E+02  0.51100000000E-03 0.  1.
    9900012    2    1    2    0    0 -0.10204990244E+01  0.25031455424E+00  0.53713529492E+00  0.90007919511E+02  0.90000183249E+02 0.  0.
        -12    1    1    2    0    0  0.10204990244E+01 -0.25031455424E+00 -0.53713529492E+00  0.11800804888E+01  0.00000000000E+00 0.  1.
         11    1    3    3    0    0 -0.33898536216E+02  0.45539105875E+01  0.12704662542E+02  0.36486398970E+02  0.51100000000E-03 0. -1.
        -11    1    3    3    0    0 -0.72062562725E+01  0.60886060069E+01  0.22056712513E+01  0.96884590365E+01  0.51100000000E-03 0.  1.
        -12    1    3    3    0    0  0.40084293464E+02 -0.10392202040E+02 -0.14373198499E+02  0.43833061505E+02  0.00000000000E+00 0.  1.
</event>
<event>
 7    1  0.3662489E-015  0.9000772E+02  0.7816164E-02  0.1186339E+00
        -11   -1    0    0    0    0  0.00000000000E+00  0.00000000000E+00  0.45593999997E+02  0.45594000000E+02  0.51100000000E-03 0. -1.
         11   -1    0    0    0    0 -0.00000000000E+00 -0.00000000000E+00 -0.45593999997E+02  0.45594000000E+02  0.51100000000E-03 0.  1.
    9900012    2    1    2    0    0  0.93000012320E+00  0.34250579322E+00  0.64097218338E+00  0.90007722157E+02  0.89999983289E+02 0.  0.
        -12    1    1    2    0    0 -0.93000012320E+00 -0.34250579322E+00 -0.64097218338E+00  0.11802778433E+01  0.00000000000E+00 0.  1.
         11    1    3    3    0    0  0.29298396269E+02 -0.88820088845E+01  0.19930776476E+02  0.36531109441E+02  0.51100000000E-03 0. -1.
        -11    1    3    3    0    0  0.40073766616E+01 -0.32747886382E+01  0.78620474303E+01  0.94124969265E+01  0.51100000000E-03 0.  1.
        -12    1    3    3    0    0 -0.32375772808E+02  0.12499303316E+02 -0.27151851723E+02  0.44064115789E+02  0.00000000000E+00 0.  1.
</event>
<event>
 7    1  0.3662489E-015  0.9000778E+02  0.7816164E-02  0.1186339E+00
        -11   -1    0    0    0    0  0.00000000000E+00  0.00000000000E+00  0.45593999997E+02  0.45594000000E+02  0.51100000000E-03 0.  1.
         11   -1    0    0    0    0 -0.00000000000E+00 -0.00000000000E+00 -0.45593999997E+02  0.45594000000E+02  0.51100000000E-03 0. -1.
    9900012    2    1    2    0    0 -0.96821212884E+00 -0.54117463119E+00 -0.40325227606E+00  0.90007780908E+02  0.90000042816E+02 0.  0.
        -12    1    1    2    0    0  0.96821212884E+00  0.54117463119E+00  0.40325227606E+00  0.11802190924E+01  0.00000000000E+00 0.  1.
         11    1    3    3    0    0 -0.70851730804E+01  0.34022522596E+01  0.52627241225E+01  0.94589250694E+01  0.51100000000E-03 0. -1.
        -11    1    3    3    0    0 -0.11245880199E+02 -0.34507299444E+02  0.15557284497E+02  0.39487373141E+02  0.51100000000E-03 0.  1.
         12    1    3    3    0    0  0.17362841150E+02  0.30563872553E+02 -0.21223260896E+02  0.41061482697E+02  0.00000000000E+00 0. -1.
</event>
<event>
 7    1  0.3662489E-015  0.9000763E+02  0.7816164E-02  0.1186339E+00
        -11   -1    0    0    0    0  0.00000000000E+00  0.00000000000E+00  0.45593999997E+02  0.45594000000E+02  0.51100000000E-03 0.  1.
         11   -1    0    0    0    0 -0.00000000000E+00 -0.00000000000E+00 -0.45593999997E+02  0.45594000000E+02  0.51100000000E-03 0. -1.
    9900012    2    1    2    0    0  0.64138701814E+00 -0.65480157755E-01 -0.98874263133E+00  0.90007628470E+02  0.89999888366E+02 0.  0.
        -12    1    1    2    0    0 -0.64138701814E+00  0.65480157755E-01  0.98874263133E+00  0.11803715301E+01  0.00000000000E+00 0.  1.
         11    1    3    3    0    0  0.40528418817E+01 -0.79347767926E+01  0.27006244897E+01  0.93101870530E+01  0.51100000000E-03 0. -1.
        -11    1    3    3    0    0  0.87506526854E+01 -0.34963048759E+02 -0.29530595928E+00  0.36042695610E+02  0.51100000000E-03 0.  1.
         12    1    3    3    0    0 -0.12162107549E+02  0.42832345394E+02 -0.33940611617E+01  0.44654745807E+02  0.00000000000E+00 0. -1.
</event>
<event>
 7    1  0.5524437E-015  0.9000815E+02  0.7816164E-02  0.1186338E+00
        -11   -1    0    0    0    0  0.00000000000E+00  0.00000000000E+00  0.45593999997E+02  0.45594000000E+02  0.51100000000E-03 0. -1.
         11   -1    0    0    0    0 -0.00000000000E+00 -0.00000000000E+00 -0.45593999997E+02  0.45594000000E+02  0.51100000000E-03 0.  1.
    9900012    2    1    2    0    0 -0.44780497924E-01 -0.79585480799E+00  0.86986515128E+00  0.90008145962E+02  0.90000412688E+02 0.  0.
        -12    1    1    2    0    0  0.44780497924E-01  0.79585480799E+00 -0.86986515128E+00  0.11798540375E+01  0.00000000000E+00 0.  1.
         11    1    3    3    0    0  0.27071274797E+02 -0.24666054256E+02  0.19879059186E+02  0.41670674894E+02  0.51100000000E-03 0. -1.
        -11    1    3    3    0    0 -0.39597655329E+01 -0.47147584319E+01 -0.76836053997E+01  0.98461404797E+01  0.51100000000E-03 0.  1.
        -12    1    3    3    0    0 -0.23156289762E+02  0.28584957880E+02 -0.11325588635E+02  0.38491330589E+02  0.00000000000E+00 0.  1.
</event>
<event>
 7    1  0.3662489E-015  0.9000776E+02  0.7816164E-02  0.1186339E+00
        -11   -1    0    0    0    0  0.00000000000E+00  0.00000000000E+00  0.45593999997E+02  0.45594000000E+02  0.51100000000E-03 0. -1.
         11   -1    0    0    0    0 -0.00000000000E+00 -0.00000000000E+00 -0.45593999997E+02  0.45594000000E+02  0.51100000000E-03 0.  1.
    9900012    2    1    2    0    0 -0.64227082191E+00  0.91203111007E+00  0.38555781993E+00  0.90007759606E+02  0.90000021233E+02 0.  0.
        -12    1    1    2    0    0  0.64227082191E+00 -0.91203111007E+00 -0.38555781993E+00  0.11802403937E+01  0.00000000000E+00 0.  1.
         11    1    3    3    0    0 -0.40791303437E+02 -0.58443941596E+01  0.13445353632E+02  0.43345875394E+02  0.51100000000E-03 0. -1.
        -11    1    3    3    0    0  0.29540676662E+01  0.47028878247E+01 -0.69760199009E+01  0.89167552163E+01  0.51100000000E-03 0.  1.
        -12    1    3    3    0    0  0.37194964949E+02  0.20535374450E+01 -0.60837759108E+01  0.37745128996E+02  0.00000000000E+00 0.  1.
</event>
<event>
 7    1  0.3662489E-015  0.9000769E+02  0.7816164E-02  0.1186339E+00
        -11   -1    0    0    0    0  0.00000000000E+00  0.00000000000E+00  0.45593999997E+02  0.45594000000E+02  0.51100000000E-03 0.  1.
         11   -1    0    0    0    0 -0.00000000000E+00 -0.00000000000E+00 -0.45593999997E+02  0.45594000000E+02  0.51100000000E-03 0. -1.
    9900012    2    1    2    0    0 -0.73416505944E+00  0.72161185531E+00 -0.57740879701E+00  0.90007693716E+02  0.89999954473E+02 0.  0.
        -12    1    1    2    0    0  0.73416505944E+00 -0.72161185531E+00  0.57740879701E+00  0.11803062836E+01  0.00000000000E+00 0.  1.
         11    1    3    3    0    0  0.38932063953E+02 -0.11370932911E+01 -0.88877761648E+01  0.39949857949E+02  0.51100000000E-03 0. -1.
        -11    1    3    3    0    0 -0.60929658071E+01  0.98853166229E+01 -0.55367438032E+01  0.12864651152E+02  0.51100000000E-03 0.  1.
        -12    1    3    3    0    0 -0.33573263205E+02 -0.80266114765E+01  0.13847111171E+02  0.37193184615E+02  0.00000000000E+00 0.  1.
</event>
<event>
 7    1  0.3662489E-015  0.9000772E+02  0.7816164E-02  0.1186339E+00
        -11   -1    0    0    0    0  0.00000000000E+00  0.00000000000E+00  0.45593999997E+02  0.45594000000E+02  0.51100000000E-03 0.  1.
         11   -1    0    0    0    0 -0.00000000000E+00 -0.00000000000E+00 -0.45593999997E+02  0.45594000000E+02  0.51100000000E-03 0. -1.
    9900012    2    1    2    0    0  0.58478491049E+00  0.35954693974E+00 -0.96011223549E+00  0.90007719144E+02  0.89999980237E+02 0.  0.
        -12    1    1    2    0    0 -0.58478491049E+00 -0.35954693974E+00  0.96011223549E+00  0.11802808556E+01  0.00000000000E+00 0.  1.
         11    1    3    3    0    0 -0.72154639295E+01  0.68844044663E+01  0.12026525103E+01  0.10045114131E+02  0.51100000000E-03 0. -1.
        -11    1    3    3    0    0  0.17164937976E+02 -0.24048417169E+01  0.36266117468E+02  0.40195144432E+02  0.51100000000E-03 0.  1.
         12    1    3    3    0    0 -0.93646891365E+01 -0.41200158097E+01 -0.38428882214E+02  0.39767460582E+02  0.00000000000E+00 0. -1.
</event>
<event>
 7    1  0.3662489E-015  0.9000786E+02  0.7816164E-02  0.1186339E+00
        -11   -1    0    0    0    0  0.00000000000E+00  0.00000000000E+00  0.45593999997E+02  0.45594000000E+02  0.51100000000E-03 0. -1.
         11   -1    0    0    0    0 -0.00000000000E+00 -0.00000000000E+00 -0.45593999997E+02  0.45594000000E+02  0.51100000000E-03 0.  1.
    9900012    2    1    2    0    0  0.99669155510E+00  0.53812676527E+00 -0.33128764077E+00  0.90007861884E+02  0.90000124861E+02 0.  0.
        -12    1    1    2    0    0 -0.99669155510E+00 -0.53812676527E+00  0.33128764077E+00  0.11801381158E+01  0.00000000000E+00 0.  1.
         11    1    3    3    0    0  0.89876560237E+01 -0.10730137921E+02 -0.14172774639E+01  0.14068493035E+02  0.51100000000E-03 0. -1.
        -11    1    3    3    0    0  0.22714083994E+02  0.31472231654E+02 -0.31486866544E+01  0.38940277412E+02  0.51100000000E-03 0.  1.
         12    1    3    3    0    0 -0.30705048463E+02 -0.20203966968E+02  0.42346764775E+01  0.36999091438E+02  0.00000000000E+00 0. -1.
</event>
<event>
 7    1  0.3662489E-015  0.9000778E+02  0.7816164E-02  0.1186339E+00
        -11   -1    0    0    0    0  0.00000000000E+00  0.00000000000E+00  0.45593999997E+02  0.45594000000E+02  0.51100000000E-03 0. -1.
         11   -1    0    0    0    0 -0.00000000000E+00 -0.00000000000E+00 -0.45593999997E+02  0.45594000000E+02  0.51100000000E-03 0.  1.
    9900012    2    1    2    0    0 -0.13338433251E+00 -0.10981509431E+01  0.41133049894E+00  0.90007779828E+02  0.90000041722E+02 0.  0.
        -12    1    1    2    0    0  0.13338433251E+00  0.10981509431E+01 -0.41133049894E+00  0.11802201716E+01  0.00000000000E+00 0.  1.
         11    1    3    3    0    0 -0.31626906138E+02 -0.47649934367E+01  0.20404887238E+02  0.37938447224E+02  0.51100000000E-03 0. -1.
        -11    1    3    3    0    0 -0.27001061851E+01 -0.10134991136E+02 -0.85200547022E+00  0.10523047673E+02  0.51100000000E-03 0.  1.
        -12    1    3    3    0    0  0.34193627990E+02  0.13801833630E+02 -0.19141551268E+02  0.41546284932E+02  0.00000000000E+00 0.  1.
</event>
<event>
 7    1  0.3662489E-015  0.9000773E+02  0.7816164E-02  0.1186339E+00
        -11   -1    0    0    0    0  0.00000000000E+00  0.00000000000E+00  0.45593999997E+02  0.45594000000E+02  0.51100000000E-03 0.  1.
         11   -1    0    0    0    0 -0.00000000000E+00 -0.00000000000E+00 -0.45593999997E+02  0.45594000000E+02  0.51100000000E-03 0. -1.
    9900012    2    1    2    0    0 -0.48333647569E+00  0.36310579657E-01 -0.10761542127E+01  0.90007728634E+02  0.89999989852E+02 0.  0.
        -12    1    1    2    0    0  0.48333647569E+00 -0.36310579657E-01  0.10761542127E+01  0.11802713656E+01  0.00000000000E+00 0.  1.
         11    1    3    3    0    0 -0.63197828760E+01 -0.25922888172E+02 -0.18246575042E+02  0.32324499808E+02  0.51100000000E-03 0. -1.
        -11    1    3    3    0    0 -0.38763539105E+01  0.31422514320E+01 -0.15719345491E+02  0.16492352368E+02  0.51100000000E-03 0.  1.
        -12    1    3    3    0    0  0.97128003108E+01  0.22816947319E+02  0.32889766320E+02  0.41190876459E+02  0.00000000000E+00 0.  1.
</event>
<event>
 7    1  0.3662489E-015  0.9000763E+02  0.7816164E-02  0.1186339E+00
        -11   -1    0    0    0    0  0.00000000000E+00  0.00000000000E+00  0.45593999997E+02  0.45594000000E+02  0.51100000000E-03 0. -1.
         11   -1    0    0    0    0 -0.00000000000E+00 -0.00000000000E+00 -0.45593999997E+02  0.45594000000E+02  0.51100000000E-03 0.  1.
    9900012    2    1    2    0    0  0.73165273533E+00 -0.90927678892E+00  0.17653520738E+00  0.90007633666E+02  0.89999893630E+02 0.  0.
        -12    1    1    2    0    0 -0.73165273533E+00  0.90927678892E+00 -0.17653520738E+00  0.11803663344E+01  0.00000000000E+00 0.  1.
         11    1    3    3    0    0 -0.57519730843E+01 -0.78999445496E+01 -0.17228102428E+01  0.99228218589E+01  0.51100000000E-03 0. -1.
        -11    1    3    3    0    0  0.49118867954E+01 -0.19179799403E+02 -0.31756262661E+02  0.37422607545E+02  0.51100000000E-03 0.  1.
         12    1    3    3    0    0  0.15717390242E+01  0.26170467164E+02  0.33655608111E+02  0.42662204262E+02  0.00000000000E+00 0. -1.
</event>
<event>
 7    1  0.3662489E-015  0.9000765E+02  0.7816164E-02  0.1186339E+00
        -11   -1    0    0    0    0  0.00000000000E+00  0.00000000000E+00  0.45593999997E+02  0.45594000000E+02  0.51100000000E-03 0.  1.
         11   -1    0    0    0    0 -0.00000000000E+00 -0.00000000000E+00 -0.45593999997E+02  0.45594000000E+02  0.51100000000E-03 0. -1.
    9900012    2    1    2    0    0 -0.19231661948E+00  0.11543616327E+01 -0.15388674992E+00  0.90007653613E+02  0.89999913841E+02 0.  0.
        -12    1    1    2    0    0  0.19231661948E+00 -0.11543616327E+01  0.15388674992E+00  0.11803463869E+01  0.00000000000E+00 0.  1.
         11    1    3    3    0    0 -0.36016533459E+01 -0.85187291885E+01 -0.38352720643E+01  0.10012490493E+02  0.51100000000E-03 0. -1.
        -11    1    3    3    0    0  0.53647872046E+00 -0.70979922911E+00  0.41072962152E+02  0.41082597831E+02  0.51100000000E-03 0.  1.
         12    1    3    3    0    0  0.28728580060E+01  0.10382890050E+02 -0.37391576838E+02  0.38912565288E+02  0.00000000000E+00 0. -1.
</event>
<event>
 7    1  0.3662489E-015  0.9000787E+02  0.7816164E-02  0.1186339E+00
        -11   -1    0    0    0    0  0.00000000000E+00  0.00000000000E+00  0.45593999997E+02  0.45594000000E+02  0.51100000000E-03 0.  1.
         11   -1    0    0    0    0 -0.00000000000E+00 -0.00000000000E+00 -0.45593999997E+02  0.45594000000E+02  0.51100000000E-03 0. -1.
    9900012    2    1    2    0    0  0.13775194182E+00  0.10268624086E+01 -0.56504518002E+00  0.90007873710E+02  0.90000136843E+02 0.  0.
        -12    1    1    2    0    0 -0.13775194182E+00 -0.10268624086E+01  0.56504518002E+00  0.11801262895E+01  0.00000000000E+00 0.  1.
         11    1    3    3    0    0  0.48580892684E+01  0.32358529811E+01  0.61375041272E+01  0.84699901433E+01  0.51100000000E-03 0. -1.
        -11    1    3    3    0    0  0.30765953328E+02 -0.17229289555E+02  0.13827365073E+02  0.37875959762E+02  0.51100000000E-03 0.  1.
         12    1    3    3    0    0 -0.35486290654E+02  0.15020298982E+02 -0.20529914381E+02  0.43661923806E+02  0.00000000000E+00 0. -1.
</event>
<event>
 7    1  0.3662489E-015  0.9000778E+02  0.7816164E-02  0.1186339E+00
        -11   -1    0    0    0    0  0.00000000000E+00  0.00000000000E+00  0.45593999997E+02  0.45594000000E+02  0.51100000000E-03 0. -1.
         11   -1    0    0    0    0 -0.00000000000E+00 -0.00000000000E+00 -0.45593999997E+02  0.45594000000E+02  0.51100000000E-03 0.  1.
    9900012    2    1    2    0    0  0.10980792252E+01  0.48252161240E-01  0.42989973912E+00  0.90007779664E+02  0.90000041555E+02 0.  0.
        -12    1    1    2    0    0 -0.10980792252E+01 -0.48252161240E-01 -0.42989973912E+00  0.11802203361E+01  0.00000000000E+00 0.  1.
         11    1    3    3    0    0 -0.28241673910E+02  0.92220912895E+01 -0.20319164387E+02  0.35993159831E+02  0.51100000000E-03 0. -1.
        -11    1    3    3    0    0 -0.44246702200E+01 -0.49292403271E+01 -0.73417054953E+01  0.98881624480E+01  0.51100000000E-03 0.  1.
        -12    1    3    3    0    0  0.33764423355E+02 -0.42445988012E+01  0.28090769621E+02  0.44126457385E+02  0.00000000000E+00 0.  1.
</event>
<event>
 7    1  0.3662489E-015  0.9000759E+02  0.7816164E-02  0.1186339E+00
        -11   -1    0    0    0    0  0.00000000000E+00  0.00000000000E+00  0.45593999997E+02  0.45594000000E+02  0.51100000000E-03 0. -1.
         11   -1    0    0    0    0 -0.00000000000E+00 -0.00000000000E+00 -0.45593999997E+02  0.45594000000E+02  0.51100000000E-03 0.  1.
    9900012    2    1    2    0    0  0.19759221456E-01  0.90471341345E+00  0.75793108957E+00  0.90007594848E+02  0.89999854299E+02 0.  0.
        -12    1    1    2    0    0 -0.19759221456E-01 -0.90471341345E+00 -0.75793108957E+00  0.11804051524E+01  0.00000000000E+00 0.  1.
         11    1    3    3    0    0  0.60255415265E+01 -0.25860832377E+02  0.25392047798E+02  0.36740248958E+02  0.51100000000E-03 0. -1.
        -11    1    3    3    0    0  0.12597846616E+01  0.76542730062E+00  0.95757641685E+01  0.96885600591E+01  0.51100000000E-03 0.  1.
        -12    1    3    3    0    0 -0.72655669666E+01  0.26000118490E+02 -0.34209880877E+02  0.43578785830E+02  0.00000000000E+00 0.  1.
</event>
<event>
 7    1  0.3662489E-015  0.9000771E+02  0.7816164E-02  0.1186339E+00
        -11   -1    0    0    0    0  0.00000000000E+00  0.00000000000E+00  0.45593999997E+02  0.45594000000E+02  0.51100000000E-03 0.  1.
         11   -1    0    0    0    0 -0.00000000000E+00 -0.00000000000E+00 -0.45593999997E+02  0.45594000000E+02  0.51100000000E-03 0. -1.
    9900012    2    1    2    0    0 -0.96818099421E+00  0.20247674465E+00  0.64398778702E+00  0.90007707011E+02  0.89999967944E+02 0.  0.
        -12    1    1    2    0    0  0.96818099421E+00 -0.20247674465E+00 -0.64398778702E+00  0.11802929888E+01  0.00000000000E+00 0.  1.
         11    1    3    3    0    0  0.71772331296E+01 -0.18227288672E+02 -0.31418217920E+02  0.37025007026E+02  0.51100000000E-03 0. -1.
        -11    1    3    3    0    0  0.84656892481E+01  0.94203174696E+01 -0.31224263453E+01  0.13044532273E+02  0.51100000000E-03 0.  1.
        -12    1    3    3    0    0 -0.16611103372E+02  0.90094479472E+01  0.35184632052E+02  0.39938167712E+02  0.00000000000E+00 0.  1.
</event>
<event>
 7    1  0.3662489E-015  0.9000783E+02  0.7816164E-02  0.1186339E+00
        -11   -1    0    0    0    0  0.00000000000E+00  0.00000000000E+00  0.45593999997E+02  0.45594000000E+02  0.51100000000E-03 0. -1.
         11   -1    0    0    0    0 -0.00000000000E+00 -0.00000000000E+00 -0.45593999997E+02  0.45594000000E+02  0.51100000000E-03 0.  1.
    9900012    2    1    2    0    0 -0.76422770502E+00  0.59437174416E-01  0.89733808979E+00  0.90007833736E+02  0.90000096341E+02 0.  0.
        -12    1    1    2    0    0  0.76422770502E+00 -0.59437174416E-01 -0.89733808979E+00  0.11801662638E+01  0.00000000000E+00 0.  1.
         11    1    3    3    0    0  0.17100443638E+02  0.89860387379E+01  0.31221844181E+01  0.19568395454E+02  0.51100000000E-03 0. -1.
        -11    1    3    3    0    0  0.14550289683E+02  0.20017336492E+02 -0.92490842382E+01  0.26418748071E+02  0.51100000000E-03 0.  1.
         12    1    3    3    0    0 -0.32414961027E+02 -0.28943938056E+02  0.70242379099E+01  0.44020690212E+02  0.00000000000E+00 0. -1.
</event>
<event>
 7    1  0.3662489E-015  0.9000781E+02  0.7816164E-02  0.1186339E+00
        -11   -1    0    0    0    0  0.00000000000E+00  0.00000000000E+00  0.45593999997E+02  0.45594000000E+02  0.51100000000E-03 0. -1.
         11   -1    0    0    0    0 -0.00000000000E+00 -0.00000000000E+00 -0.45593999997E+02  0.45594000000E+02  0.51100000000E-03 0.  1.
    9900012    2    1    2    0    0 -0.64381340552E+00  0.27094160144E+00  0.95128626524E+00  0.90007809079E+02  0.90000071358E+02 0.  0.
        -12    1    1    2    0    0  0.64381340552E+00 -0.27094160144E+00 -0.95128626524E+00  0.11801909214E+01  0.00000000000E+00 0.  1.
         11    1    3    3    0    0  0.58516327968E+01 -0.21674835481E+01  0.20783012311E+02  0.21699612722E+02  0.51100000000E-03 0. -1.
        -11    1    3    3    0    0  0.23633627486E+02  0.17029136135E+01  0.10167846584E+02  0.25784362845E+02  0.51100000000E-03 0.  1.
         12    1    3    3    0    0 -0.30129073688E+02  0.73551153603E+00 -0.29999572630E+02  0.42523833511E+02  0.00000000000E+00 0. -1.
</event>
<event>
 7    1  0.3662489E-015  0.9000771E+02  0.7816164E-02  0.1186339E+00
        -11   -1    0    0    0    0  0.00000000000E+00  0.00000000000E+00  0.45593999997E+02  0.45594000000E+02  0.51100000000E-03 0.  1.
         11   -1    0    0    0    0 -0.00000000000E+00 -0.00000000000E+00 -0.45593999997E+02  0.45594000000E+02  0.51100000000E-03 0. -1.
    9900012    2    1    2    0    0 -0.32639606720E+00  0.91466086393E+00 -0.67077211602E+00  0.90007714390E+02  0.89999975420E+02 0.  0.
        -12    1    1    2    0    0  0.32639606720E+00 -0.91466086393E+00  0.67077211602E+00  0.11802856096E+01  0.00000000000E+00 0.  1.
         11    1    3    3    0    0  0.80238623770E+01  0.67329140988E+00  0.43891449199E+01  0.91706205983E+01  0.51100000000E-03 0. -1.
        -11    1    3    3    0    0 -0.56233251167E+01  0.28960185714E+02  0.25367703699E+02  0.38908026591E+02  0.51100000000E-03 0.  1.
         12    1    3    3    0    0 -0.27269333276E+01 -0.28718816260E+02 -0.30427620735E+02  0.41929067201E+02  0.00000000000E+00 0. -1.
</event>
<event>
 7    1  0.3662489E-015  0.9000836E+02  0.7816164E-02  0.1186338E+00
        -11   -1    0    0    0    0  0.00000000000E+00  0.00000000000E+00  0.45593999997E+02  0.45594000000E+02  0.51100000000E-03 0.  1.
         11   -1    0    0    0    0 -0.00000000000E+00 -0.00000000000E+00 -0.45593999997E+02  0.45594000000E+02  0.51100000000E-03 0. -1.
    9900012    2    1    2    0    0 -0.55473207728E-01 -0.18146700954E+00 -0.11642782595E+01  0.90008359623E+02  0.90000629168E+02 0.  0.
        -12    1    1    2    0    0  0.55473207728E-01  0.18146700954E+00  0.11642782595E+01  0.11796403765E+01  0.00000000000E+00 0.  1.
         11    1    3    3    0    0 -0.37644401306E+02  0.14475171015E+02  0.67965799166E+00  0.40337246570E+02  0.51100000000E-03 0. -1.
        -11    1    3    3    0    0  0.34268927830E+01  0.27751302840E+01  0.88224025766E+01  0.98630487033E+01  0.51100000000E-03 0.  1.
        -12    1    3    3    0    0  0.34162035316E+02 -0.17431768309E+02 -0.10666338828E+02  0.39808064350E+02  0.00000000000E+00 0.  1.
</event>
<event>
 7    1  0.3662489E-015  0.9000765E+02  0.7816164E-02  0.1186339E+00
        -11   -1    0    0    0    0  0.00000000000E+00  0.00000000000E+00  0.45593999997E+02  0.45594000000E+02  0.51100000000E-03 0. -1.
         11   -1    0    0    0    0 -0.00000000000E+00 -0.00000000000E+00 -0.45593999997E+02  0.45594000000E+02  0.51100000000E-03 0.  1.
    9900012    2    1    2    0    0 -0.57273630961E+00 -0.90709864271E+00 -0.49230465015E+00  0.90007653146E+02  0.89999913367E+02 0.  0.
        -12    1    1    2    0    0  0.57273630961E+00  0.90709864271E+00  0.49230465015E+00  0.11803468543E+01  0.00000000000E+00 0.  1.
         11    1    3    3    0    0 -0.57447233590E+01  0.17876653801E+02 -0.31224550559E+02  0.36435547965E+02  0.51100000000E-03 0. -1.
        -11    1    3    3    0    0 -0.29859470284E+01  0.29215867912E+01 -0.76575362469E+01  0.87229244332E+01  0.51100000000E-03 0.  1.
        -12    1    3    3    0    0  0.81579340778E+01 -0.21705339235E+02  0.38389782156E+02  0.44849180748E+02  0.00000000000E+00 0.  1.
</event>
<event>
 7    1  0.3662489E-015  0.9000778E+02  0.7816164E-02  0.1186339E+00
        -11   -1    0    0    0    0  0.00000000000E+00  0.00000000000E+00  0.45593999997E+02  0.45594000000E+02  0.51100000000E-03 0.  1.
         11   -1    0    0    0    0 -0.00000000000E+00 -0.00000000000E+00 -0.45593999997E+02  0.45594000000E+02  0.51100000000E-03 0. -1.
    9900012    2    1    2    0    0  0.11430734100E+01 -0.56159901400E-02 -0.29373327417E+00  0.90007776463E+02  0.90000038313E+02 0.  0.
        -12    1    1    2    0    0 -0.11430734100E+01  0.56159901400E-02  0.29373327417E+00  0.11802235366E+01  0.00000000000E+00 0.  1.
         11    1    3    3    0    0  0.87652184071E+01 -0.37543126774E+01  0.48197055426E+01  0.10684263156E+02  0.51100000000E-03 0. -1.
        -11    1    3    3    0    0  0.89537650193E+01  0.30314433992E+01  0.34820098149E+02  0.36080448895E+02  0.51100000000E-03 0.  1.
         12    1    3    3    0    0 -0.16575910016E+02  0.71725328808E+00 -0.39933536966E+02  0.43243064412E+02  0.00000000000E+00 0. -1.
</event>
<event>
 7    1  0.3662489E-015  0.9000779E+02  0.7816164E-02  0.1186339E+00
        -11   -1    0    0    0    0  0.00000000000E+00  0.00000000000E+00  0.45593999997E+02  0.45594000000E+02  0.51100000000E-03 0.  1.
         11   -1    0    0    0    0 -0.00000000000E+00 -0.00000000000E+00 -0.45593999997E+02  0.45594000000E+02  0.51100000000E-03 0. -1.
    9900012    2    1    2    0    0  0.50135327400E+00 -0.59337465963E+00 -0.88850755266E+00  0.90007790585E+02  0.90000052621E+02 0.  0.
        -12    1    1    2    0    0 -0.50135327400E+00  0.59337465963E+00  0.88850755266E+00  0.11802094150E+01  0.00000000000E+00 0.  1.
         11    1    3    3    0    0 -0.72156485167E+01  0.68701842204E+01 -0.35465606500E+01  0.10575590170E+02  0.51100000000E-03 0. -1.
        -11    1    3    3    0    0 -0.26811154589E+02 -0.61787211563E+01  0.25903150677E+02  0.37788726107E+02  0.51100000000E-03 0.  1.
         12    1    3    3    0    0  0.34528156380E+02 -0.12848377237E+01 -0.23245097579E+02  0.41643474308E+02  0.00000000000E+00 0. -1.
</event>
<event>
 7    1  0.3662489E-015  0.9000765E+02  0.7816164E-02  0.1186339E+00
        -11   -1    0    0    0    0  0.00000000000E+00  0.00000000000E+00  0.45593999997E+02  0.45594000000E+02  0.51100000000E-03 0. -1.
         11   -1    0    0    0    0 -0.00000000000E+00 -0.00000000000E+00 -0.45593999997E+02  0.45594000000E+02  0.51100000000E-03 0.  1.
    9900012    2    1    2    0    0 -0.11482052914E+01  0.20704022713E+00  0.17885026080E+00  0.90007649009E+02  0.89999909176E+02 0.  0.
        -12    1    1    2    0    0  0.11482052914E+01 -0.20704022713E+00 -0.17885026080E+00  0.11803509913E+01  0.00000000000E+00 0.  1.
         11    1    3    3    0    0  0.46330584308E+01  0.62529174067E+01 -0.13005003067E+01  0.78902159557E+01  0.51100000000E-03 0. -1.
        -11    1    3    3    0    0 -0.12981353061E+02 -0.30582015029E+02 -0.27745551419E+02  0.43284995025E+02  0.51100000000E-03 0.  1.
         12    1    3    3    0    0  0.72000893385E+01  0.24536137849E+02  0.29224901987E+02  0.38832438028E+02  0.00000000000E+00 0. -1.
</event>
<event>
 7    1  0.3662489E-015  0.9000773E+02  0.7816164E-02  0.1186339E+00
        -11   -1    0    0    0    0  0.00000000000E+00  0.00000000000E+00  0.45593999997E+02  0.45594000000E+02  0.51100000000E-03 0. -1.
         11   -1    0    0    0    0 -0.00000000000E+00 -0.00000000000E+00 -0.45593999997E+02  0.45594000000E+02  0.51100000000E-03 0.  1.
    9900012    2    1    2    0    0  0.76935175838E+00 -0.89377922457E+00  0.47947364797E-01  0.90007727836E+02  0.89999989044E+02 0.  0.
        -12    1    1    2    0    0 -0.76935175838E+00  0.89377922457E+00 -0.47947364797E-01  0.11802721636E+01  0.00000000000E+00 0.  1.
         11    1    3    3    0    0 -0.45595134823E+01 -0.12328339156E+02  0.42221559621E+02  0.44220325718E+02  0.51100000000E-03 0. -1.
        -11    1    3    3    0    0 -0.36723866572E+01  0.63100373602E+00 -0.76291578409E+01  0.84905028766E+01  0.51100000000E-03 0.  1.
        -12    1    3    3    0    0  0.90012518978E+01  0.10803556196E+02 -0.34544454415E+02  0.37296899242E+02  0.00000000000E+00 0.  1.
</event>
<event>
 7    1  0.3662489E-015  0.9000775E+02  0.7816164E-02  0.1186339E+00
        -11   -1    0    0    0    0  0.00000000000E+00  0.00000000000E+00  0.45593999997E+02  0.45594000000E+02  0.51100000000E-03 0.  1.
         11   -1    0    0    0    0 -0.00000000000E+00 -0.00000000000E+00 -0.45593999997E+02  0.45594000000E+02  0.51100000000E-03 0. -1.
    9900012    2    1    2    0    0  0.70206775795E+00  0.68251901562E+00  0.65899202868E+00  0.90007745012E+02  0.90000006446E+02 0.  0.
        -12    1    1    2    0    0 -0.70206775795E+00 -0.68251901562E+00 -0.65899202868E+00  0.11802549882E+01  0.00000000000E+00 0.  1.
         11    1    3    3    0    0 -0.12953436156E+02  0.38120153696E+01 -0.36892912369E+02  0.39286256538E+02  0.51100000000E-03 0. -1.
        -11    1    3    3    0    0  0.20029049372E+00  0.94206423586E+01  0.59976432535E+00  0.94418396638E+01  0.51100000000E-03 0.  1.
        -12    1    3    3    0    0  0.13455213421E+02 -0.12550138713E+02  0.36952140073E+02  0.41279648810E+02  0.00000000000E+00 0.  1.
</event>
<event>
 7    1  0.3662489E-015  0.9000762E+02  0.7816164E-02  0.1186339E+00
        -11   -1    0    0    0    0  0.00000000000E+00  0.00000000000E+00  0.45593999997E+02  0.45594000000E+02  0.51100000000E-03 0. -1.
         11   -1    0    0    0    0 -0.00000000000E+00 -0.00000000000E+00 -0.45593999997E+02  0.45594000000E+02  0.51100000000E-03 0.  1.
    9900012    2    1    2    0    0 -0.84051669276E+00  0.38757296908E+00  0.73254257860E+00  0.90007618813E+02  0.89999878581E+02 0.  0.
        -12    1    1    2    0    0  0.84051669276E+00 -0.38757296908E+00 -0.73254257860E+00  0.11803811870E+01  0.00000000000E+00 0.  1.
         11    1    3    3    0    0  0.48174799940E+01 -0.52672414394E+01  0.75883692319E+01  0.10418027344E+02  0.51100000000E-03 0. -1.
        -11    1    3    3    0    0 -0.68704848514E+00 -0.27584200902E+02 -0.28456866807E+02  0.39637777987E+02  0.51100000000E-03 0.  1.
         12    1    3    3    0    0 -0.49709482016E+01  0.33239015310E+02  0.21601040154E+02  0.39951813482E+02  0.00000000000E+00 0. -1.
</event>
<event>
 7    1  0.3662489E-015  0.9000745E+02  0.7816164E-02  0.1186340E+00
        -11   -1    0    0    0    0  0.00000000000E+00  0.00000000000E+00  0.45593999997E+02  0.45594000000E+02  0.51100000000E-03 0. -1.
         11   -1    0    0    0    0 -0.00000000000E+00 -0.00000000000E+00 -0.45593999997E+02  0.45594000000E+02  0.51100000000E-03 0.  1.
    9900012    2    1    2    0    0 -0.21744753235E+00 -0.10635513537E+01  0.46396944063E+00  0.90007452435E+02  0.89999710007E+02 0.  0.
        -12    1    1    2    0    0  0.21744753235E+00  0.10635513537E+01 -0.46396944063E+00  0.11805475649E+01  0.00000000000E+00 0.  1.
         11    1    3    3    0    0  0.27229671712E+02  0.83284847172E+01  0.28247246804E+02  0.40108922093E+02  0.51100000000E-03 0. -1.
        -11    1    3    3    0    0 -0.35548745171E+01  0.26457007929E+01  0.55850421054E+01  0.71294853319E+01  0.51100000000E-03 0.  1.
        -12    1    3    3    0    0 -0.23892244727E+02 -0.12037736864E+02 -0.33368319469E+02  0.42769045010E+02  0.00000000000E+00 0.  1.
</event>
<event>
 7    1  0.3662489E-015  0.9000786E+02  0.7816164E-02  0.1186339E+00
        -11   -1    0    0    0    0  0.00000000000E+00  0.00000000000E+00  0.45593999997E+02  0.45594000000E+02  0.51100000000E-03 0.  1.
         11   -1    0    0    0    0 -0.00000000000E+00 -0.00000000000E+00 -0.45593999997E+02  0.45594000000E+02  0.51100000000E-03 0. -1.
    9900012    2    1    2    0    0 -0.64343060240E+00 -0.82034840909E+00  0.55295337904E+00  0.90007859376E+02  0.90000122320E+02 0.  0.
        -12    1    1    2    0    0  0.64343060240E+00  0.82034840909E+00 -0.55295337904E+00  0.11801406237E+01  0.00000000000E+00 0.  1.
         11    1    3    3    0    0  0.66468988485E+01 -0.36272858099E+01  0.64327708840E+01  0.99357439659E+01  0.51100000000E-03 0. -1.
        -11    1    3    3    0    0  0.11474415411E+02  0.15153159030E+02  0.31308521533E+02  0.36626547182E+02  0.51100000000E-03 0.  1.
         12    1    3    3    0    0 -0.18764744862E+02 -0.12346221629E+02 -0.37188339038E+02  0.43445568228E+02  0.00000000000E+00 0. -1.
</event>
<event>
 7    1  0.3662489E-015  0.9000773E+02  0.7816164E-02  0.1186339E+00
        -11   -1    0    0    0    0  0.00000000000E+00  0.00000000000E+00  0.45593999997E+02  0.45594000000E+02  0.51100000000E-03 0.  1.
         11   -1    0    0    0    0 -0.00000000000E+00 -0.00000000000E+00 -0.45593999997E+02  0.45594000000E+02  0.51100000000E-03 0. -1.
    9900012    2    1    2    0    0 -0.98015936661E+00  0.49744322740E+00  0.42995834309E+00  0.90007734638E+02  0.89999995935E+02 0.  0.
        -12    1    1    2    0    0  0.98015936661E+00 -0.49744322740E+00 -0.42995834309E+00  0.11802653622E+01  0.00000000000E+00 0.  1.
         11    1    3    3    0    0 -0.13091014767E+02  0.33035544392E+01 -0.42209754211E+01  0.14145839435E+02  0.51100000000E-03 0. -1.
        -11    1    3    3    0    0  0.29692947878E+02 -0.20295368972E+02 -0.19782810993E+02  0.41047932548E+02  0.51100000000E-03 0.  1.
         12    1    3    3    0    0 -0.17582092478E+02  0.17489257760E+02  0.24433744757E+02  0.34813962655E+02  0.00000000000E+00 0. -1.
</event>
<event>
 7    1  0.3662489E-015  0.9000772E+02  0.7816164E-02  0.1186339E+00
        -11   -1    0    0    0    0  0.00000000000E+00  0.00000000000E+00  0.45593999997E+02  0.45594000000E+02  0.51100000000E-03 0.  1.
         11   -1    0    0    0    0 -0.00000000000E+00 -0.00000000000E+00 -0.45593999997E+02  0.45594000000E+02  0.51100000000E-03 0. -1.
    9900012    2    1    2    0    0  0.88711699232E+00  0.65604728744E+00 -0.41913856312E+00  0.90007723873E+02  0.89999985028E+02 0.  0.
        -12    1    1    2    0    0 -0.88711699232E+00 -0.65604728744E+00  0.41913856312E+00  0.11802761272E+01  0.00000000000E+00 0.  1.
         11    1    3    3    0    0  0.62637274264E+01 -0.33626888449E+01  0.76807262654E+01  0.10465921544E+02  0.51100000000E-03 0. -1.
        -11    1    3    3    0    0  0.28963581692E+02 -0.12226386503E+02  0.15259138203E+02  0.34945885169E+02  0.51100000000E-03 0.  1.
         12    1    3    3    0    0 -0.34340192126E+02  0.16245122635E+02 -0.23359003031E+02  0.44595917159E+02  0.00000000000E+00 0. -1.
</event>
<event>
 7    1  0.3662489E-015  0.9000779E+02  0.7816164E-02  0.1186339E+00
        -11   -1    0    0    0    0  0.00000000000E+00  0.00000000000E+00  0.45593999997E+02  0.45594000000E+02  0.51100000000E-03 0. -1.
         11   -1    0    0    0    0 -0.00000000000E+00 -0.00000000000E+00 -0.45593999997E+02  0.45594000000E+02  0.51100000000E-03 0.  1.
    9900012    2    1    2    0    0  0.91373674115E+00  0.66593888151E+00 -0.33839348876E+00  0.90007788333E+02  0.90000050339E+02 0.  0.
        -12    1    1    2    0    0 -0.91373674115E+00 -0.66593888151E+00  0.33839348876E+00  0.11802116671E+01  0.00000000000E+00 0.  1.
         11    1    3    3    0    0 -0.43025237684E+01 -0.76144250904E+01 -0.67889932410E+01  0.11071657948E+02  0.51100000000E-03 0. -1.
        -11    1    3    3    0    0  0.25443348100E+01  0.42275503279E+02 -0.57046941475E+01  0.42734474991E+02  0.51100000000E-03 0.  1.
         12    1    3    3    0    0  0.26719256995E+01 -0.33995139307E+02  0.12155293900E+02  0.36201655394E+02  0.00000000000E+00 0. -1.
</event>
<event>
 7    1  0.3662489E-015  0.9000771E+02  0.7816164E-02  0.1186339E+00
        -11   -1    0    0    0    0  0.00000000000E+00  0.00000000000E+00  0.45593999997E+02  0.45594000000E+02  0.51100000000E-03 0.  1.
         11   -1    0    0    0    0 -0.00000000000E+00 -0.00000000000E+00 -0.45593999997E+02  0.45594000000E+02  0.51100000000E-03 0. -1.
    9900012    2    1    2    0    0  0.41696263512E+00 -0.10113119770E+01  0.44326687664E+00  0.90007705428E+02  0.89999966339E+02 0.  0.
        -12    1    1    2    0    0 -0.41696263512E+00  0.10113119770E+01 -0.44326687664E+00  0.11802945725E+01  0.00000000000E+00 0.  1.
         11    1    3    3    0    0 -0.21933396476E+02  0.96392180088E+01 -0.26020331331E+02  0.35370129313E+02  0.51100000000E-03 0. -1.
        -11    1    3    3    0    0 -0.47462500839E+01  0.80511115569E+01 -0.36362129301E+01  0.10028426192E+02  0.51100000000E-03 0.  1.
        -12    1    3    3    0    0  0.27096609195E+02 -0.18701641543E+02  0.30099811137E+02  0.44609149922E+02  0.00000000000E+00 0.  1.
</event>
<event>
 7    1  0.3662489E-015  0.9000772E+02  0.7816164E-02  0.1186339E+00
        -11   -1    0    0    0    0  0.00000000000E+00  0.00000000000E+00  0.45593999997E+02  0.45594000000E+02  0.51100000000E-03 0. -1.
         11   -1    0    0    0    0 -0.00000000000E+00 -0.00000000000E+00 -0.45593999997E+02  0.45594000000E+02  0.51100000000E-03 0.  1.
    9900012    2    1    2    0    0  0.15658644417E+00 -0.35474341107E+00  0.11147631553E+01  0.90007720756E+02  0.89999981870E+02 0.  0.
        -12    1    1    2    0    0 -0.15658644417E+00  0.35474341107E+00 -0.11147631553E+01  0.11802792443E+01  0.00000000000E+00 0.  1.
         11    1    3    3    0    0 -0.28844513635E+01  0.70641789527E+01 -0.33328968342E+00  0.76376544972E+01  0.51100000000E-03 0. -1.
        -11    1    3    3    0    0  0.17665900732E+00  0.27318964413E+02 -0.26221298129E+02  0.37867050332E+02  0.51100000000E-03 0.  1.
         12    1    3    3    0    0  0.28643788004E+01 -0.34737886776E+02  0.27669350968E+02  0.44503015927E+02  0.00000000000E+00 0. -1.
</event>
<event>
 7    1  0.3662489E-015  0.9000753E+02  0.7816164E-02  0.1186339E+00
        -11   -1    0    0    0    0  0.00000000000E+00  0.00000000000E+00  0.45593999997E+02  0.45594000000E+02  0.51100000000E-03 0.  1.
         11   -1    0    0    0    0 -0.00000000000E+00 -0.00000000000E+00 -0.45593999997E+02  0.45594000000E+02  0.51100000000E-03 0. -1.
    9900012    2    1    2    0    0 -0.51782656419E+00  0.10199643987E+01  0.29162442913E+00  0.90007526988E+02  0.89999785544E+02 0.  0.
        -12    1    1    2    0    0  0.51782656419E+00 -0.10199643987E+01 -0.29162442913E+00  0.11804730124E+01  0.00000000000E+00 0.  1.
         11    1    3    3    0    0 -0.29926610223E+02 -0.12851416181E+02  0.13971074885E+02  0.35439410703E+02  0.51100000000E-03 0. -1.
        -11    1    3    3    0    0 -0.12949412867E+01 -0.12037960383E+02  0.64077176004E-01  0.12107579001E+02  0.51100000000E-03 0.  1.
        -12    1    3    3    0    0  0.30703724946E+02  0.25909340962E+02 -0.13743527632E+02  0.42460537284E+02  0.00000000000E+00 0.  1.
</event>
<event>
 7    1  0.3662489E-015  0.9000776E+02  0.7816164E-02  0.1186339E+00
        -11   -1    0    0    0    0  0.00000000000E+00  0.00000000000E+00  0.45593999997E+02  0.45594000000E+02  0.51100000000E-03 0.  1.
         11   -1    0    0    0    0 -0.00000000000E+00 -0.00000000000E+00 -0.45593999997E+02  0.45594000000E+02  0.51100000000E-03 0. -1.
    9900012    2    1    2    0    0  0.10786252122E+01 -0.40132017393E+00 -0.26169852212E+00  0.90007755811E+02  0.90000017387E+02 0.  0.
        -12    1    1    2    0    0 -0.10786252122E+01  0.40132017393E+00  0.26169852212E+00  0.11802441895E+01  0.00000000000E+00 0.  1.
         11    1    3    3    0    0 -0.14951169250E+02 -0.15325648103E+02 -0.27162350802E+02  0.34586214783E+02  0.51100000000E-03 0. -1.
        -11    1    3    3    0    0 -0.26139847100E+01 -0.86398200159E+01 -0.60200383243E+01  0.10849897127E+02  0.51100000000E-03 0.  1.
        -12    1    3    3    0    0  0.18643779172E+02  0.23564147944E+02  0.32920690604E+02  0.44571643901E+02  0.00000000000E+00 0.  1.
</event>
<event>
 7    1  0.3662489E-015  0.9000767E+02  0.7816164E-02  0.1186339E+00
        -11   -1    0    0    0    0  0.00000000000E+00  0.00000000000E+00  0.45593999997E+02  0.45594000000E+02  0.51100000000E-03 0.  1.
         11   -1    0    0    0    0 -0.00000000000E+00 -0.00000000000E+00 -0.45593999997E+02  0.45594000000E+02  0.51100000000E-03 0. -1.
    9900012    2    1    2    0    0  0.14928649082E-01 -0.11770805369E+01  0.86173191568E-01  0.90007674929E+02  0.89999935438E+02 0.  0.
        -12    1    1    2    0    0 -0.14928649082E-01  0.11770805369E+01 -0.86173191568E-01  0.11803250712E+01  0.00000000000E+00 0.  1.
         11    1    3    3    0    0  0.81495087909E-01  0.29059722665E+02 -0.25545082434E+02  0.38691411963E+02  0.51100000000E-03 0. -1.
        -11    1    3    3    0    0  0.71441478101E+01 -0.53603797239E+00  0.18631469944E+02  0.19961409198E+02  0.51100000000E-03 0.  1.
        -12    1    3    3    0    0 -0.72107142489E+01 -0.29700765230E+02  0.69997856814E+01  0.31354853768E+02  0.00000000000E+00 0.  1.
</event>
<event>
 7    1  0.3662489E-015  0.9000756E+02  0.7816164E-02  0.1186339E+00
        -11   -1    0    0    0    0  0.00000000000E+00  0.00000000000E+00  0.45593999997E+02  0.45594000000E+02  0.51100000000E-03 0.  1.
         11   -1    0    0    0    0 -0.00000000000E+00 -0.00000000000E+00 -0.45593999997E+02  0.45594000000E+02  0.51100000000E-03 0. -1.
    9900012    2    1    2    0    0 -0.11407640555E+01 -0.28646498520E+00 -0.10021544752E+00  0.90007556035E+02  0.89999814975E+02 0.  0.
        -12    1    1    2    0    0  0.11407640555E+01  0.28646498520E+00  0.10021544752E+00  0.11804439648E+01  0.00000000000E+00 0.  1.
         11    1    3    3    0    0 -0.19847545534E+02  0.29144906925E+02  0.36431774216E+01  0.35448884402E+02  0.51100000000E-03 0. -1.
        -11    1    3    3    0    0  0.19546282442E+01  0.78823257145E+01  0.86065409252E+01  0.11833181195E+02  0.51100000000E-03 0.  1.
        -12    1    3    3    0    0  0.16752153234E+02 -0.37313697625E+02 -0.12349933794E+02  0.42725490438E+02  0.00000000000E+00 0.  1.
</event>
<event>
 7    1  0.3662489E-015  0.9000828E+02  0.7816164E-02  0.1186338E+00
        -11   -1    0    0    0    0  0.00000000000E+00  0.00000000000E+00  0.45593999997E+02  0.45594000000E+02  0.51100000000E-03 0.  1.
         11   -1    0    0    0    0 -0.00000000000E+00 -0.00000000000E+00 -0.45593999997E+02  0.45594000000E+02  0.51100000000E-03 0. -1.
    9900012    2    1    2    0    0  0.69767439180E+00 -0.94659116011E+00  0.94621206881E-01  0.90008280731E+02  0.90000549235E+02 0.  0.
        -12    1    1    2    0    0 -0.69767439180E+00  0.94659116011E+00 -0.94621206881E-01  0.11797192692E+01  0.00000000000E+00 0.  1.
         11    1    3    3    0    0  0.16809760738E+02  0.11752433559E+02 -0.28055992331E+02  0.34753797729E+02  0.51100000000E-03 0. -1.
        -11    1    3    3    0    0 -0.17634166548E+01  0.10438918040E+02 -0.55314584852E+01  0.11944776322E+02  0.51100000000E-03 0.  1.
        -12    1    3    3    0    0 -0.14348669691E+02 -0.23137942759E+02  0.33682072023E+02  0.43309706681E+02  0.00000000000E+00 0.  1.
</event>
<event>
 7    1  0.3662489E-015  0.9000775E+02  0.7816164E-02  0.1186339E+00
        -11   -1    0    0    0    0  0.00000000000E+00  0.00000000000E+00  0.45593999997E+02  0.45594000000E+02  0.51100000000E-03 0.  1.
         11   -1    0    0    0    0 -0.00000000000E+00 -0.00000000000E+00 -0.45593999997E+02  0.45594000000E+02  0.51100000000E-03 0. -1.
    9900012    2    1    2    0    0 -0.10911411120E+01 -0.39598274992E+00  0.21352117500E+00  0.90007753180E+02  0.90000014722E+02 0.  0.
        -12    1    1    2    0    0  0.10911411120E+01  0.39598274992E+00 -0.21352117500E+00  0.11802468203E+01  0.00000000000E+00 0.  1.
         11    1    3    3    0    0 -0.29442867222E+01 -0.93086796298E+01 -0.25615143847E+01  0.10093646366E+02  0.51100000000E-03 0. -1.
        -11    1    3    3    0    0  0.29815379141E+02  0.62637786963E+00  0.28333394908E+02  0.41135513243E+02  0.51100000000E-03 0.  1.
         12    1    3    3    0    0 -0.27962233531E+02  0.82863190103E+01 -0.25558359348E+02  0.38778593571E+02  0.00000000000E+00 0. -1.
</event>
<event>
 7    1  0.3662489E-015  0.9000773E+02  0.7816164E-02  0.1186339E+00
        -11   -1    0    0    0    0  0.00000000000E+00  0.00000000000E+00  0.45593999997E+02  0.45594000000E+02  0.51100000000E-03 0.  1.
         11   -1    0    0    0    0 -0.00000000000E+00 -0.00000000000E+00 -0.45593999997E+02  0.45594000000E+02  0.51100000000E-03 0. -1.
    9900012    2    1    2    0    0 -0.11689175053E+01 -0.14243570778E+00  0.79851345511E-01  0.90007732106E+02  0.89999993369E+02 0.  0.
        -12    1    1    2    0    0  0.11689175053E+01  0.14243570778E+00 -0.79851345511E-01  0.11802678944E+01  0.00000000000E+00 0.  1.
         11    1    3    3    0    0  0.28574444328E+02 -0.11345896651E+02  0.17554993558E+02  0.35403474950E+02  0.51100000000E-03 0. -1.
        -11    1    3    3    0    0 -0.17284948606E+01 -0.10945884814E+02 -0.15210892299E+02  0.18819440311E+02  0.51100000000E-03 0.  1.
        -12    1    3    3    0    0 -0.28014866973E+02  0.22149345756E+02 -0.22642499132E+01  0.35784816845E+02  0.00000000000E+00 0.  1.
</event>
<event>
 7    1  0.3662489E-015  0.9000780E+02  0.7816164E-02  0.1186339E+00
        -11   -1    0    0    0    0  0.00000000000E+00  0.00000000000E+00  0.45593999997E+02  0.45594000000E+02  0.51100000000E-03 0. -1.
         11   -1    0    0    0    0 -0.00000000000E+00 -0.00000000000E+00 -0.45593999997E+02  0.45594000000E+02  0.51100000000E-03 0.  1.
    9900012    2    1    2    0    0  0.62771142778E+00 -0.27258591721E+00 -0.96153241307E+00  0.90007801161E+02  0.90000063336E+02 0.  0.
        -12    1    1    2    0    0 -0.62771142778E+00  0.27258591721E+00  0.96153241307E+00  0.11801988393E+01  0.00000000000E+00 0.  1.
         11    1    3    3    0    0 -0.68124763497E+01  0.41088916525E+01 -0.44408475766E+01  0.91111992672E+01  0.51100000000E-03 0. -1.
        -11    1    3    3    0    0  0.73410475570E+01  0.15590321818E+02 -0.34174852577E+02  0.38273615750E+02  0.51100000000E-03 0.  1.
         12    1    3    3    0    0  0.99140220483E-01 -0.19971799388E+02  0.37654167741E+02  0.42622986144E+02  0.00000000000E+00 0. -1.
</event>
<event>
 7    1  0.3662489E-015  0.9000768E+02  0.7816164E-02  0.1186339E+00
        -11   -1    0    0    0    0  0.00000000000E+00  0.00000000000E+00  0.45593999997E+02  0.45594000000E+02  0.51100000000E-03 0. -1.
         11   -1    0    0    0    0 -0.00000000000E+00 -0.00000000000E+00 -0.45593999997E+02  0.45594000000E+02  0.51100000000E-03 0.  1.
    9900012    2    1    2    0    0  0.55573907692E-01  0.20086747437E-01  0.11788378200E+01  0.90007682016E+02  0.89999942619E+02 0.  0.
        -12    1    1    2    0    0 -0.55573907692E-01 -0.20086747437E-01 -0.11788378200E+01  0.11803179836E+01  0.00000000000E+00 0.  1.
         11    1    3    3    0    0 -0.60582482215E+01  0.68410325875E+01  0.27526293570E+01  0.95435353520E+01  0.51100000000E-03 0. -1.
        -11    1    3    3    0    0 -0.13674308975E+02 -0.39070471895E+02  0.61461248801E+01  0.41848098539E+02  0.51100000000E-03 0.  1.
         12    1    3    3    0    0  0.19788131105E+02  0.32249526054E+02 -0.77199164171E+01  0.38616048126E+02  0.00000000000E+00 0. -1.
</event>
<event>
 7    1  0.3662489E-015  0.9000775E+02  0.7816164E-02  0.1186339E+00
        -11   -1    0    0    0    0  0.00000000000E+00  0.00000000000E+00  0.45593999997E+02  0.45594000000E+02  0.51100000000E-03 0.  1.
         11   -1    0    0    0    0 -0.00000000000E+00 -0.00000000000E+00 -0.45593999997E+02  0.45594000000E+02  0.51100000000E-03 0. -1.
    9900012    2    1    2    0    0  0.10431066720E+01 -0.19359056990E-01  0.55185470601E+00  0.90007750061E+02  0.90000011562E+02 0.  0.
        -12    1    1    2    0    0 -0.10431066720E+01  0.19359056990E-01 -0.55185470601E+00  0.11802499391E+01  0.00000000000E+00 0.  1.
         11    1    3    3    0    0  0.63483817412E+01 -0.19668382084E+01 -0.11763051581E+01  0.67493775532E+01  0.51100000000E-03 0. -1.
        -11    1    3    3    0    0  0.29456586546E+02 -0.67118941155E+01  0.26104583862E+02  0.39927300340E+02  0.51100000000E-03 0.  1.
         12    1    3    3    0    0 -0.34761861615E+02  0.86593732669E+01 -0.24376423998E+02  0.43331072168E+02  0.00000000000E+00 0. -1.
</event>
<event>
 7    1  0.3662489E-015  0.9000814E+02  0.7816164E-02  0.1186338E+00
        -11   -1    0    0    0    0  0.00000000000E+00  0.00000000000E+00  0.45593999997E+02  0.45594000000E+02  0.51100000000E-03 0.  1.
         11   -1    0    0    0    0 -0.00000000000E+00 -0.00000000000E+00 -0.45593999997E+02  0.45594000000E+02  0.51100000000E-03 0. -1.
    9900012    2    1    2    0    0 -0.58567046170E+00  0.10020459392E+01  0.21204295273E+00  0.90008140615E+02  0.90000407270E+02 0.  0.
        -12    1    1    2    0    0  0.58567046170E+00 -0.10020459392E+01 -0.21204295273E+00  0.11798593847E+01  0.00000000000E+00 0.  1.
         11    1    3    3    0    0 -0.16141366730E+02  0.24294609216E+02 -0.20975440973E+02  0.35926882431E+02  0.51100000000E-03 0. -1.
        -11    1    3    3    0    0 -0.38282722201E+01  0.36306761964E+01 -0.82072673791E+01  0.97568804404E+01  0.51100000000E-03 0.  1.
        -12    1    3    3    0    0  0.19383968489E+02 -0.26923239474E+02  0.29394751305E+02  0.44324377744E+02  0.00000000000E+00 0.  1.
</event>
<event>
 7    1  0.3662489E-015  0.9000773E+02  0.7816164E-02  0.1186339E+00
        -11   -1    0    0    0    0  0.00000000000E+00  0.00000000000E+00  0.45593999997E+02  0.45594000000E+02  0.51100000000E-03 0. -1.
         11   -1    0    0    0    0 -0.00000000000E+00 -0.00000000000E+00 -0.45593999997E+02  0.45594000000E+02  0.51100000000E-03 0.  1.
    9900012    2    1    2    0    0 -0.35029796599E+00  0.10691415569E+01 -0.35675366198E+00  0.90007726511E+02  0.89999987701E+02 0.  0.
        -12    1    1    2    0    0  0.35029796599E+00 -0.10691415569E+01  0.35675366198E+00  0.11802734891E+01  0.00000000000E+00 0.  1.
         11    1    3    3    0    0  0.79381248068E+01  0.33884131393E+02 -0.13252437083E+02  0.37239431717E+02  0.51100000000E-03 0. -1.
        -11    1    3    3    0    0  0.81293522201E+00  0.45496473616E+01  0.13538666079E+02  0.14305790235E+02  0.51100000000E-03 0.  1.
        -12    1    3    3    0    0 -0.91013579948E+01 -0.37364637198E+02 -0.64298265756E+00  0.38462504559E+02  0.00000000000E+00 0.  1.
</event>
<event>
 7    1  0.3662489E-015  0.9000760E+02  0.7816164E-02  0.1186339E+00
        -11   -1    0    0    0    0  0.00000000000E+00  0.00000000000E+00  0.45593999997E+02  0.45594000000E+02  0.51100000000E-03 0.  1.
         11   -1    0    0    0    0 -0.00000000000E+00 -0.00000000000E+00 -0.45593999997E+02  0.45594000000E+02  0.51100000000E-03 0. -1.
    9900012    2    1    2    0    0 -0.10110615428E+01  0.17137492890E+00 -0.58458350896E+00  0.90007596387E+02  0.89999855860E+02 0.  0.
        -12    1    1    2    0    0  0.10110615428E+01 -0.17137492890E+00  0.58458350896E+00  0.11804036126E+01  0.00000000000E+00 0.  1.
         11    1    3    3    0    0  0.10951686251E+02  0.31812395497E+01 -0.38789738360E+02  0.40431466942E+02  0.51100000000E-03 0. -1.
        -11    1    3    3    0    0 -0.42045420099E+01 -0.65089446824E+01 -0.23816566986E+01  0.81065913480E+01  0.51100000000E-03 0.  1.
        -12    1    3    3    0    0 -0.77582057841E+01  0.34990800616E+01  0.40586811549E+02  0.41469538097E+02  0.00000000000E+00 0.  1.
</event>
<event>
 7    1  0.3662489E-015  0.9000768E+02  0.7816164E-02  0.1186339E+00
        -11   -1    0    0    0    0  0.00000000000E+00  0.00000000000E+00  0.45593999997E+02  0.45594000000E+02  0.51100000000E-03 0. -1.
         11   -1    0    0    0    0 -0.00000000000E+00 -0.00000000000E+00 -0.45593999997E+02  0.45594000000E+02  0.51100000000E-03 0.  1.
    9900012    2    1    2    0    0 -0.31971751926E-01  0.11769543897E+01 -0.83153838132E-01  0.90007678692E+02  0.89999939251E+02 0.  0.
        -12    1    1    2    0    0  0.31971751926E-01 -0.11769543897E+01  0.83153838132E-01  0.11803213076E+01  0.00000000000E+00 0.  1.
         11    1    3    3    0    0 -0.10362289619E+02  0.18516488116E+01 -0.32378930351E+01  0.11013155817E+02  0.51100000000E-03 0. -1.
        -11    1    3    3    0    0  0.57431367655E+01  0.10257922654E+02 -0.36111749621E+02  0.37977191287E+02  0.51100000000E-03 0.  1.
         12    1    3    3    0    0  0.45871811018E+01 -0.10932617075E+02  0.39266488818E+02  0.41017331589E+02  0.00000000000E+00 0. -1.
</event>
<event>
 7    1  0.3662489E-015  0.9000770E+02  0.7816164E-02  0.1186339E+00
        -11   -1    0    0    0    0  0.00000000000E+00  0.00000000000E+00  0.45593999997E+02  0.45594000000E+02  0.51100000000E-03 0.  1.
         11   -1    0    0    0    0 -0.00000000000E+00 -0.00000000000E+00 -0.45593999997E+02  0.45594000000E+02  0.51100000000E-03 0. -1.
    9900012    2    1    2    0    0  0.29768713469E+00  0.10822324111E+00 -0.11370046189E+01  0.90007699444E+02  0.89999960276E+02 0.  0.
        -12    1    1    2    0    0 -0.29768713469E+00 -0.10822324111E+00  0.11370046189E+01  0.11803005565E+01  0.00000000000E+00 0.  1.
         11    1    3    3    0    0  0.23004446288E+02 -0.29160144475E+02 -0.14232994104E+02  0.39775579144E+02  0.51100000000E-03 0. -1.
        -11    1    3    3    0    0  0.77122921235E+01  0.32949969874E+01  0.35659561187E+01  0.91133143393E+01  0.51100000000E-03 0.  1.
        -12    1    3    3    0    0 -0.30419051277E+02  0.25973370729E+02  0.95300333662E+01  0.41118805960E+02  0.00000000000E+00 0.  1.
</event>
<event>
 7    1  0.3662489E-015  0.9000678E+02  0.7816164E-02  0.1186341E+00
        -11   -1    0    0    0    0  0.00000000000E+00  0.00000000000E+00  0.45593999997E+02  0.45594000000E+02  0.51100000000E-03 0. -1.
         11   -1    0    0    0    0 -0.00000000000E+00 -0.00000000000E+00 -0.45593999997E+02  0.45594000000E+02  0.51100000000E-03 0.  1.
    9900012    2    1    2    0    0 -0.64889978346E+00  0.88640323261E+00  0.43417838531E+00  0.90006775004E+02  0.89999023629E+02 0.  0.
        -12    1    1    2    0    0  0.64889978346E+00 -0.88640323261E+00 -0.43417838531E+00  0.11812249955E+01  0.00000000000E+00 0.  1.
         11    1    3    3    0    0 -0.27073493815E+01 -0.28244152960E+01  0.13290798384E+02  0.13854688174E+02  0.51100000000E-03 0. -1.
        -11    1    3    3    0    0  0.25245893229E+02 -0.25038874332E+02 -0.16185008116E+02  0.39067311664E+02  0.51100000000E-03 0.  1.
         12    1    3    3    0    0 -0.23187443631E+02  0.28749692860E+02  0.33283881169E+01  0.37084775166E+02  0.00000000000E+00 0. -1.
</event>
<event>
 7    1  0.3662489E-015  0.9000734E+02  0.7816164E-02  0.1186340E+00
        -11   -1    0    0    0    0  0.00000000000E+00  0.00000000000E+00  0.45593999997E+02  0.45594000000E+02  0.51100000000E-03 0.  1.
         11   -1    0    0    0    0 -0.00000000000E+00 -0.00000000000E+00 -0.45593999997E+02  0.45594000000E+02  0.51100000000E-03 0. -1.
    9900012    2    1    2    0    0 -0.11399801084E+01 -0.30280486975E+00  0.52172296743E-01  0.90007336041E+02  0.89999592075E+02 0.  0.
        -12    1    1    2    0    0  0.11399801084E+01  0.30280486975E+00 -0.52172296743E-01  0.11806639594E+01  0.00000000000E+00 0.  1.
         11    1    3    3    0    0  0.74412263716E+01  0.75212345364E+01 -0.18942858288E+01  0.10748448164E+02  0.51100000000E-03 0. -1.
        -11    1    3    3    0    0  0.33744065921E+02 -0.13521646338E+02  0.35233424603E+01  0.36522744242E+02  0.51100000000E-03 0.  1.
         12    1    3    3    0    0 -0.42325272401E+02  0.56976069322E+01 -0.15768843348E+01  0.42736143635E+02  0.00000000000E+00 0. -1.
</event>
<event>
 7    1  0.3662489E-015  0.9000788E+02  0.7816164E-02  0.1186339E+00
        -11   -1    0    0    0    0  0.00000000000E+00  0.00000000000E+00  0.45593999997E+02  0.45594000000E+02  0.51100000000E-03 0. -1.
         11   -1    0    0    0    0 -0.00000000000E+00 -0.00000000000E+00 -0.45593999997E+02  0.45594000000E+02  0.51100000000E-03 0.  1.
    9900012    2    1    2    0    0 -0.48319040663E+00  0.21992713626E+00 -0.10539671090E+01  0.90007878150E+02  0.90000141341E+02 0.  0.
        -12    1    1    2    0    0  0.48319040663E+00 -0.21992713626E+00  0.10539671090E+01  0.11801218502E+01  0.00000000000E+00 0.  1.
         11    1    3    3    0    0 -0.64309388149E+01  0.22044461366E+01  0.44421680531E+01  0.81209244599E+01  0.51100000000E-03 0. -1.
        -11    1    3    3    0    0  0.24037838464E+02 -0.30191751789E+02  0.16320342581E+02  0.41901230726E+02  0.51100000000E-03 0.  1.
         12    1    3    3    0    0 -0.18090090056E+02  0.28207232789E+02 -0.21816477744E+02  0.39985722964E+02  0.00000000000E+00 0. -1.
</event>
<event>
 7    1  0.3662489E-015  0.9000778E+02  0.7816164E-02  0.1186339E+00
        -11   -1    0    0    0    0  0.00000000000E+00  0.00000000000E+00  0.45593999997E+02  0.45594000000E+02  0.51100000000E-03 0. -1.
         11   -1    0    0    0    0 -0.00000000000E+00 -0.00000000000E+00 -0.45593999997E+02  0.45594000000E+02  0.51100000000E-03 0.  1.
    9900012    2    1    2    0    0  0.51749765942E+00 -0.10363531983E+01  0.22601467546E+00  0.90007782049E+02  0.90000043972E+02 0.  0.
        -12    1    1    2    0    0 -0.51749765942E+00  0.10363531983E+01 -0.22601467546E+00  0.11802179513E+01  0.00000000000E+00 0.  1.
         11    1    3    3    0    0 -0.17932943692E+02 -0.28853243289E+02 -0.27526048919E+01  0.34083382340E+02  0.51100000000E-03 0. -1.
        -11    1    3    3    0    0 -0.89274812189E+01 -0.63528668759E+01 -0.38423840687E+01  0.11611320082E+02  0.51100000000E-03 0.  1.
        -12    1    3    3    0    0  0.27377922570E+02  0.34169756967E+02  0.68210036361E+01  0.44313079627E+02  0.00000000000E+00 0.  1.
</event>
<event>
 7    1  0.3662489E-015  0.9000779E+02  0.7816164E-02  0.1186339E+00
        -11   -1    0    0    0    0  0.00000000000E+00  0.00000000000E+00  0.45593999997E+02  0.45594000000E+02  0.51100000000E-03 0. -1.
         11   -1    0    0    0    0 -0.00000000000E+00 -0.00000000000E+00 -0.45593999997E+02  0.45594000000E+02  0.51100000000E-03 0.  1.
    9900012    2    1    2    0    0  0.47254634276E+00 -0.46251837635E+00  0.97758473213E+00  0.90007790187E+02  0.90000052217E+02 0.  0.
        -12    1    1    2    0    0 -0.47254634276E+00  0.46251837635E+00 -0.97758473213E+00  0.11802098131E+01  0.00000000000E+00 0.  1.
         11    1    3    3    0    0 -0.13904694050E+02 -0.32092845659E+02  0.14389617337E+02  0.37819999293E+02  0.51100000000E-03 0. -1.
        -11    1    3    3    0    0 -0.27433084315E+00 -0.59057067450E+01 -0.10169757754E+02  0.11763358475E+02  0.51100000000E-03 0.  1.
        -12    1    3    3    0    0  0.14651571236E+02  0.37536034028E+02 -0.32422748506E+01  0.40424432419E+02  0.00000000000E+00 0.  1.
</event>
<event>
 7    1  0.3662489E-015  0.9000773E+02  0.7816164E-02  0.1186339E+00
        -11   -1    0    0    0    0  0.00000000000E+00  0.00000000000E+00  0.45593999997E+02  0.45594000000E+02  0.51100000000E-03 0. -1.
         11   -1    0    0    0    0 -0.00000000000E+00 -0.00000000000E+00 -0.45593999997E+02  0.45594000000E+02  0.51100000000E-03 0.  1.
    9900012    2    1    2    0    0  0.89683702749E+00 -0.64504913201E+00  0.41548624666E+00  0.90007731447E+02  0.89999992702E+02 0.  0.
        -12    1    1    2    0    0 -0.89683702749E+00  0.64504913201E+00 -0.41548624666E+00  0.11802685532E+01  0.00000000000E+00 0.  1.
         11    1    3    3    0    0 -0.98587646821E+01 -0.30508277601E+01  0.20041223845E+01  0.10512815887E+02  0.51100000000E-03 0. -1.
        -11    1    3    3    0    0 -0.23266891143E+02 -0.12400724088E+02 -0.24412988381E+02  0.35932160850E+02  0.51100000000E-03 0.  1.
         12    1    3    3    0    0  0.34022492853E+02  0.14806502716E+02  0.22824352243E+02  0.43562754710E+02  0.00000000000E+00 0. -1.
</event>
<event>
 7    1  0.3662489E-015  0.9000830E+02  0.7816164E-02  0.1186338E+00
        -11   -1    0    0    0    0  0.00000000000E+00  0.00000000000E+00  0.45593999997E+02  0.45594000000E+02  0.51100000000E-03 0.  1.
         11   -1    0    0    0    0 -0.00000000000E+00 -0.00000000000E+00 -0.45593999997E+02  0.45594000000E+02  0.51100000000E-03 0. -1.
    9900012    2    1    2    0    0  0.74541494294E-01 -0.76226910440E+00 -0.89726934057E+00  0.90008295422E+02  0.90000564120E+02 0.  0.
        -12    1    1    2    0    0 -0.74541494294E-01  0.76226910440E+00  0.89726934057E+00  0.11797045780E+01  0.00000000000E+00 0.  1.
         11    1    3    3    0    0 -0.29523542076E+02 -0.21129862753E+02 -0.17082272691E+02  0.40123742064E+02  0.51100000000E-03 0. -1.
        -11    1    3    3    0    0 -0.49633713838E+01  0.50196432732E+01  0.89227421864E+01  0.11377486650E+02  0.51100000000E-03 0.  1.
        -12    1    3    3    0    0  0.34561454954E+02  0.15347950375E+02  0.72622611637E+01  0.38507066708E+02  0.00000000000E+00 0.  1.
</event>
<event>
 7    1  0.3662489E-015  0.9000777E+02  0.7816164E-02  0.1186339E+00
        -11   -1    0    0    0    0  0.00000000000E+00  0.00000000000E+00  0.45593999997E+02  0.45594000000E+02  0.51100000000E-03 0. -1.
         11   -1    0    0    0    0 -0.00000000000E+00 -0.00000000000E+00 -0.45593999997E+02  0.45594000000E+02  0.51100000000E-03 0.  1.
    9900012    2    1    2    0    0  0.15581286397E+00 -0.85961795638E+00  0.79355240720E+00  0.90007768623E+02  0.90000030369E+02 0.  0.
        -12    1    1    2    0    0 -0.15581286397E+00  0.85961795638E+00 -0.79355240720E+00  0.11802313767E+01  0.00000000000E+00 0.  1.
         11    1    3    3    0    0  0.96094527733E+01  0.29416864120E+02  0.87632458835E+01  0.32163456840E+02  0.51100000000E-03 0. -1.
        -11    1    3    3    0    0  0.96497962643E+00  0.12535607352E+02 -0.54723696105E+01  0.13712019063E+02  0.51100000000E-03 0.  1.
        -12    1    3    3    0    0 -0.10418619536E+02 -0.42812089428E+02 -0.24973238658E+01  0.44132292720E+02  0.00000000000E+00 0.  1.
</event>
<event>
 7    1  0.3662489E-015  0.9000775E+02  0.7816164E-02  0.1186339E+00
        -11   -1    0    0    0    0  0.00000000000E+00  0.00000000000E+00  0.45593999997E+02  0.45594000000E+02  0.51100000000E-03 0.  1.
         11   -1    0    0    0    0 -0.00000000000E+00 -0.00000000000E+00 -0.45593999997E+02  0.45594000000E+02  0.51100000000E-03 0. -1.
    9900012    2    1    2    0    0 -0.88362604136E+00  0.77024644300E+00 -0.13750070702E+00  0.90007753836E+02  0.90000015386E+02 0.  0.
        -12    1    1    2    0    0  0.88362604136E+00 -0.77024644300E+00  0.13750070702E+00  0.11802461643E+01  0.00000000000E+00 0.  1.
         11    1    3    3    0    0  0.13837940832E+02 -0.30721990134E+02  0.22181733313E+02  0.40340532685E+02  0.51100000000E-03 0. -1.
        -11    1    3    3    0    0  0.78633378315E+01  0.45422647961E+01 -0.61357455440E+01  0.10959544925E+02  0.51100000000E-03 0.  1.
        -12    1    3    3    0    0 -0.22584904705E+02  0.26949971781E+02 -0.16183488476E+02  0.38707676225E+02  0.00000000000E+00 0.  1.
</event>
<event>
 7    1  0.3662489E-015  0.9000776E+02  0.7816164E-02  0.1186339E+00
        -11   -1    0    0    0    0  0.00000000000E+00  0.00000000000E+00  0.45593999997E+02  0.45594000000E+02  0.51100000000E-03 0. -1.
         11   -1    0    0    0    0 -0.00000000000E+00 -0.00000000000E+00 -0.45593999997E+02  0.45594000000E+02  0.51100000000E-03 0.  1.
    9900012    2    1    2    0    0  0.21882728312E+00 -0.62437571160E-01  0.11580953928E+01  0.90007759021E+02  0.90000020640E+02 0.  0.
        -12    1    1    2    0    0 -0.21882728312E+00  0.62437571160E-01 -0.11580953928E+01  0.11802409792E+01  0.00000000000E+00 0.  1.
         11    1    3    3    0    0  0.18500837902E+02  0.33565870310E+02 -0.12231224958E+01  0.38346377686E+02  0.51100000000E-03 0. -1.
        -11    1    3    3    0    0  0.47226839079E+01  0.22760522065E+01  0.70269091363E+01  0.87670752940E+01  0.51100000000E-03 0.  1.
        -12    1    3    3    0    0 -0.23004694527E+02 -0.35904360087E+02 -0.46456912476E+01  0.42894306041E+02  0.00000000000E+00 0.  1.
</event>
<event>
 7    1  0.3662489E-015  0.9000749E+02  0.7816164E-02  0.1186340E+00
        -11   -1    0    0    0    0  0.00000000000E+00  0.00000000000E+00  0.45593999997E+02  0.45594000000E+02  0.51100000000E-03 0. -1.
         11   -1    0    0    0    0 -0.00000000000E+00 -0.00000000000E+00 -0.45593999997E+02  0.45594000000E+02  0.51100000000E-03 0.  1.
    9900012    2    1    2    0    0 -0.10043885929E+00  0.28216902877E+00  0.11418810523E+01  0.90007491778E+02  0.89999749869E+02 0.  0.
        -12    1    1    2    0    0  0.10043885929E+00 -0.28216902877E+00 -0.11418810523E+01  0.11805082223E+01  0.00000000000E+00 0.  1.
         11    1    3    3    0    0  0.13629572571E+02 -0.24579251140E+02  0.23530168629E+02  0.36654790561E+02  0.51100000000E-03 0. -1.
        -11    1    3    3    0    0 -0.10535536599E+02 -0.72740551016E+01  0.19022389253E+01  0.12943257791E+02  0.51100000000E-03 0.  1.
        -12    1    3    3    0    0 -0.31944748317E+01  0.32135475270E+02 -0.24290526502E+02  0.40409443426E+02  0.00000000000E+00 0.  1.
</event>
<event>
 7    1  0.3662489E-015  0.9000783E+02  0.7816164E-02  0.1186339E+00
        -11   -1    0    0    0    0  0.00000000000E+00  0.00000000000E+00  0.45593999997E+02  0.45594000000E+02  0.51100000000E-03 0. -1.
         11   -1    0    0    0    0 -0.00000000000E+00 -0.00000000000E+00 -0.45593999997E+02  0.45594000000E+02  0.51100000000E-03 0.  1.
    9900012    2    1    2    0    0 -0.85992774419E+00 -0.78979649604E+00 -0.17188170113E+00  0.90007831559E+02  0.90000094135E+02 0.  0.
        -12    1    1    2    0    0  0.85992774419E+00  0.78979649604E+00  0.17188170113E+00  0.11801684412E+01  0.00000000000E+00 0.  1.
         11    1    3    3    0    0 -0.36658386210E+02 -0.11960686698E+02  0.11884731761E+02  0.40350243557E+02  0.51100000000E-03 0. -1.
        -11    1    3    3    0    0 -0.16218628425E+01  0.10580993085E+02 -0.35516558571E+01  0.11278391433E+02  0.51100000000E-03 0.  1.
        -12    1    3    3    0    0  0.37420321308E+02  0.58989711727E+00 -0.85049576045E+01  0.38379196569E+02  0.00000000000E+00 0.  1.
</event>
<event>
 7    1  0.3662489E-015  0.9000787E+02  0.7816164E-02  0.1186339E+00
        -11   -1    0    0    0    0  0.00000000000E+00  0.00000000000E+00  0.45593999997E+02  0.45594000000E+02  0.51100000000E-03 0. -1.
         11   -1    0    0    0    0 -0.00000000000E+00 -0.00000000000E+00 -0.45593999997E+02  0.45594000000E+02  0.51100000000E-03 0.  1.
    9900012    2    1    2    0    0  0.87601979063E+00 -0.47053958171E+00 -0.63552674670E+00  0.90007867627E+02  0.90000130680E+02 0.  0.
        -12    1    1    2    0    0 -0.87601979063E+00  0.47053958171E+00  0.63552674670E+00  0.11801323728E+01  0.00000000000E+00 0.  1.
         11    1    3    3    0    0  0.44851234274E+01  0.33424938627E+01 -0.81819627549E+01  0.99112618856E+01  0.51100000000E-03 0. -1.
        -11    1    3    3    0    0 -0.12457014990E+02 -0.28730332723E+02 -0.23620669792E+02  0.39224294544E+02  0.51100000000E-03 0.  1.
         12    1    3    3    0    0  0.88479113531E+01  0.24917299279E+02  0.31167105800E+02  0.40872311197E+02  0.00000000000E+00 0. -1.
</event>
<event>
 7    1  0.3662489E-015  0.9000777E+02  0.7816164E-02  0.1186339E+00
        -11   -1    0    0    0    0  0.00000000000E+00  0.00000000000E+00  0.45593999997E+02  0.45594000000E+02  0.51100000000E-03 0.  1.
         11   -1    0    0    0    0 -0.00000000000E+00 -0.00000000000E+00 -0.45593999997E+02  0.45594000000E+02  0.51100000000E-03 0. -1.
    9900012    2    1    2    0    0  0.46112706339E+00  0.21740326022E+00 -0.10644482006E+01  0.90007765990E+02  0.90000027701E+02 0.  0.
        -12    1    1    2    0    0 -0.46112706339E+00 -0.21740326022E+00  0.10644482006E+01  0.11802340098E+01  0.00000000000E+00 0.  1.
         11    1    3    3    0    0 -0.43725162060E+01  0.30714528740E+01 -0.82318849263E+01  0.98141046678E+01  0.51100000000E-03 0. -1.
        -11    1    3    3    0    0 -0.12888180047E+02 -0.24680620718E+02  0.32186542741E+02  0.42558333589E+02  0.51100000000E-03 0.  1.
         12    1    3    3    0    0  0.17721823316E+02  0.21826571105E+02 -0.25019106015E+02  0.37635327734E+02  0.00000000000E+00 0. -1.
</event>
<event>
 7    1  0.3662489E-015  0.9000777E+02  0.7816164E-02  0.1186339E+00
        -11   -1    0    0    0    0  0.00000000000E+00  0.00000000000E+00  0.45593999997E+02  0.45594000000E+02  0.51100000000E-03 0.  1.
         11   -1    0    0    0    0 -0.00000000000E+00 -0.00000000000E+00 -0.45593999997E+02  0.45594000000E+02  0.51100000000E-03 0. -1.
    9900012    2    1    2    0    0  0.13023832614E+00 -0.59711686170E+00 -0.10096721559E+01  0.90007767637E+02  0.90000029370E+02 0.  0.
        -12    1    1    2    0    0 -0.13023832614E+00  0.59711686170E+00  0.10096721559E+01  0.11802323629E+01  0.00000000000E+00 0.  1.
         11    1    3    3    0    0  0.87225933222E+01 -0.22512965206E+01 -0.42098654693E+02  0.43051697964E+02  0.51100000000E-03 0. -1.
        -11    1    3    3    0    0  0.58850989118E+01 -0.35958807311E+01  0.87819729208E+01  0.11166368975E+02  0.51100000000E-03 0.  1.
        -12    1    3    3    0    0 -0.14477453908E+02  0.52500603900E+01  0.32307009617E+02  0.35789700699E+02  0.00000000000E+00 0.  1.
</event>
<event>
 7    1  0.3662489E-015  0.9000779E+02  0.7816164E-02  0.1186339E+00
        -11   -1    0    0    0    0  0.00000000000E+00  0.00000000000E+00  0.45593999997E+02  0.45594000000E+02  0.51100000000E-03 0.  1.
         11   -1    0    0    0    0 -0.00000000000E+00 -0.00000000000E+00 -0.45593999997E+02  0.45594000000E+02  0.51100000000E-03 0. -1.
    9900012    2    1    2    0    0 -0.98278843400E+00  0.40069034464E+00  0.51621453109E+00  0.90007786756E+02  0.90000048742E+02 0.  0.
        -12    1    1    2    0    0  0.98278843400E+00 -0.40069034464E+00 -0.51621453109E+00  0.11802132436E+01  0.00000000000E+00 0.  1.
         11    1    3    3    0    0  0.18505721753E+02 -0.32869517572E+02  0.11410192351E+02  0.39408874797E+02  0.51100000000E-03 0. -1.
        -11    1    3    3    0    0 -0.60333568729E+01 -0.43754644873E+01 -0.73445700418E+01  0.10463689311E+02  0.51100000000E-03 0.  1.
        -12    1    3    3    0    0 -0.13455153314E+02  0.37645672404E+02 -0.35494077781E+01  0.40135222648E+02  0.00000000000E+00 0.  1.
</event>
<event>
 7    1  0.3662489E-015  0.9000777E+02  0.7816164E-02  0.1186339E+00
        -11   -1    0    0    0    0  0.00000000000E+00  0.00000000000E+00  0.45593999997E+02  0.45594000000E+02  0.51100000000E-03 0. -1.
         11   -1    0    0    0    0 -0.00000000000E+00 -0.00000000000E+00 -0.45593999997E+02  0.45594000000E+02  0.51100000000E-03 0.  1.
    9900012    2    1    2    0    0  0.95774412253E-01 -0.83147912482E+00  0.83211792591E+00  0.90007766754E+02  0.90000028475E+02 0.  0.
        -12    1    1    2    0    0 -0.95774412253E-01  0.83147912482E+00 -0.83211792591E+00  0.11802332463E+01  0.00000000000E+00 0.  1.
         11    1    3    3    0    0 -0.31651561558E+01 -0.11614087966E+02 -0.10358672532E+02  0.15881037424E+02  0.51100000000E-03 0. -1.
        -11    1    3    3    0    0  0.85503513716E+01 -0.29804367862E+02  0.11842984154E+02  0.33191341132E+02  0.51100000000E-03 0.  1.
         12    1    3    3    0    0 -0.52894208035E+01  0.40586976703E+02 -0.65219369627E+00  0.40935388198E+02  0.00000000000E+00 0. -1.
</event>
<event>
 7    1  0.3662489E-015  0.9000764E+02  0.7816164E-02  0.1186339E+00
        -11   -1    0    0    0    0  0.00000000000E+00  0.00000000000E+00  0.45593999997E+02  0.45594000000E+02  0.51100000000E-03 0. -1.
         11   -1    0    0    0    0 -0.00000000000E+00 -0.00000000000E+00 -0.45593999997E+02  0.45594000000E+02  0.51100000000E-03 0.  1.
    9900012    2    1    2    0    0 -0.68036382454E+00 -0.52946900480E+00  0.80623006140E+00  0.90007644430E+02  0.89999904536E+02 0.  0.
        -12    1    1    2    0    0  0.68036382454E+00  0.52946900480E+00 -0.80623006140E+00  0.11803555705E+01  0.00000000000E+00 0.  1.
         11    1    3    3    0    0  0.11569560420E+02  0.31640983426E+02  0.10259864570E+02  0.35217486874E+02  0.51100000000E-03 0. -1.
        -11    1    3    3    0    0  0.66620495779E+01  0.66014158885E+01  0.30737157328E+01  0.98696162529E+01  0.51100000000E-03 0.  1.
        -12    1    3    3    0    0 -0.18911973823E+02 -0.38771868319E+02 -0.12527350242E+02  0.44920541302E+02  0.00000000000E+00 0.  1.
</event>
<event>
 7    1  0.3662489E-015  0.9000889E+02  0.7816164E-02  0.1186337E+00
        -11   -1    0    0    0    0  0.00000000000E+00  0.00000000000E+00  0.45593999997E+02  0.45594000000E+02  0.51100000000E-03 0. -1.
         11   -1    0    0    0    0 -0.00000000000E+00 -0.00000000000E+00 -0.45593999997E+02  0.45594000000E+02  0.51100000000E-03 0.  1.
    9900012    2    1    2    0    0 -0.35470244630E+00  0.10287841727E+01  0.45396485626E+00  0.90008892376E+02  0.90001168947E+02 0.  0.
        -12    1    1    2    0    0  0.35470244630E+00 -0.10287841727E+01 -0.45396485626E+00  0.11791076245E+01  0.00000000000E+00 0.  1.
         11    1    3    3    0    0 -0.85613594771E+00  0.89872940634E+01 -0.53054919648E+01  0.10471517015E+02  0.51100000000E-03 0. -1.
        -11    1    3    3    0    0 -0.37325077529E+02  0.76830650798E+01 -0.60616833585E+00  0.38112443400E+02  0.51100000000E-03 0.  1.
         12    1    3    3    0    0  0.37826511031E+02 -0.15641574971E+02  0.63656251569E+01  0.41424931961E+02  0.00000000000E+00 0. -1.
</event>
<event>
 7    1  0.3662489E-015  0.9000772E+02  0.7816164E-02  0.1186339E+00
        -11   -1    0    0    0    0  0.00000000000E+00  0.00000000000E+00  0.45593999997E+02  0.45594000000E+02  0.51100000000E-03 0. -1.
         11   -1    0    0    0    0 -0.00000000000E+00 -0.00000000000E+00 -0.45593999997E+02  0.45594000000E+02  0.51100000000E-03 0.  1.
    9900012    2    1    2    0    0  0.88740725103E+00  0.67499979476E+00  0.38721580110E+00  0.90007723580E+02  0.89999984731E+02 0.  0.
        -12    1    1    2    0    0 -0.88740725103E+00 -0.67499979476E+00 -0.38721580110E+00  0.11802764205E+01  0.00000000000E+00 0.  1.
         11    1    3    3    0    0  0.31565562547E+02  0.38888504768E+01  0.22482177473E+02  0.38948121920E+02  0.51100000000E-03 0. -1.
        -11    1    3    3    0    0  0.50430229139E+01  0.68808453213E+01 -0.68095415534E+01  0.10915492150E+02  0.51100000000E-03 0.  1.
        -12    1    3    3    0    0 -0.35721178210E+02 -0.10094696003E+02 -0.15285420119E+02  0.40144109509E+02  0.00000000000E+00 0.  1.
</event>
<event>
 7    1  0.3662489E-015  0.9000772E+02  0.7816164E-02  0.1186339E+00
        -11   -1    0    0    0    0  0.00000000000E+00  0.00000000000E+00  0.45593999997E+02  0.45594000000E+02  0.51100000000E-03 0.  1.
         11   -1    0    0    0    0 -0.00000000000E+00 -0.00000000000E+00 -0.45593999997E+02  0.45594000000E+02  0.51100000000E-03 0. -1.
    9900012    2    1    2    0    0  0.29629393675E+00 -0.64056662123E+00 -0.94601901207E+00  0.90007717125E+02  0.89999978191E+02 0.  0.
        -12    1    1    2    0    0 -0.29629393675E+00  0.64056662123E+00  0.94601901207E+00  0.11802828747E+01  0.00000000000E+00 0.  1.
         11    1    3    3    0    0 -0.60317542644E+01  0.70080786866E+01  0.20273781257E+01  0.94660175739E+01  0.51100000000E-03 0. -1.
        -11    1    3    3    0    0 -0.30268696009E+02 -0.24011880136E+01 -0.23371408614E+02  0.38316868385E+02  0.51100000000E-03 0.  1.
         12    1    3    3    0    0  0.36596744210E+02 -0.52474572942E+01  0.20398011476E+02  0.42224831166E+02  0.00000000000E+00 0. -1.
</event>
<event>
 7    1  0.3662489E-015  0.9000777E+02  0.7816164E-02  0.1186339E+00
        -11   -1    0    0    0    0  0.00000000000E+00  0.00000000000E+00  0.45593999997E+02  0.45594000000E+02  0.51100000000E-03 0.  1.
         11   -1    0    0    0    0 -0.00000000000E+00 -0.00000000000E+00 -0.45593999997E+02  0.45594000000E+02  0.51100000000E-03 0. -1.
    9900012    2    1    2    0    0 -0.67693868583E+00 -0.96626578940E+00 -0.32016020269E-01  0.90007770960E+02  0.90000032737E+02 0.  0.
        -12    1    1    2    0    0  0.67693868583E+00  0.96626578940E+00  0.32016020269E-01  0.11802290395E+01  0.00000000000E+00 0.  1.
         11    1    3    3    0    0 -0.39213627050E+02 -0.92308134654E+00  0.23516541007E+01  0.39294922100E+02  0.51100000000E-03 0. -1.
        -11    1    3    3    0    0  0.37235814700E+01  0.10472708719E+02  0.70248558228E+01  0.13148813120E+02  0.51100000000E-03 0.  1.
        -12    1    3    3    0    0  0.34813106894E+02 -0.10515893162E+02 -0.94085259438E+01  0.37564035740E+02  0.00000000000E+00 0.  1.
</event>
<event>
 7    1  0.4688272E-015  0.9000759E+02  0.7816164E-02  0.1186339E+00
        -11   -1    0    0    0    0  0.00000000000E+00  0.00000000000E+00  0.45593999997E+02  0.45594000000E+02  0.51100000000E-03 0. -1.
         11   -1    0    0    0    0 -0.00000000000E+00 -0.00000000000E+00 -0.45593999997E+02  0.45594000000E+02  0.51100000000E-03 0.  1.
    9900012    2    1    2    0    0 -0.41582329785E+00  0.47712760133E+00  0.99640025948E+00  0.90007587682E+02  0.89999847039E+02 0.  0.
        -12    1    1    2    0    0  0.41582329785E+00 -0.47712760133E+00 -0.99640025948E+00  0.11804123178E+01  0.00000000000E+00 0.  1.
         11    1    3    3    0    0  0.12933367845E+02  0.35978772437E+02 -0.66447986348E+01  0.38805894128E+02  0.51100000000E-03 0. -1.
        -11    1    3    3    0    0 -0.53884949739E+01  0.22657964634E+01 -0.76998778693E+01  0.96673590582E+01  0.51100000000E-03 0.  1.
        -12    1    3    3    0    0 -0.79606961690E+01 -0.37767441299E+02  0.15341076764E+02  0.41534334496E+02  0.00000000000E+00 0.  1.
</event>
<event>
 7    1  0.3662489E-015  0.9000773E+02  0.7816164E-02  0.1186339E+00
        -11   -1    0    0    0    0  0.00000000000E+00  0.00000000000E+00  0.45593999997E+02  0.45594000000E+02  0.51100000000E-03 0. -1.
         11   -1    0    0    0    0 -0.00000000000E+00 -0.00000000000E+00 -0.45593999997E+02  0.45594000000E+02  0.51100000000E-03 0.  1.
    9900012    2    1    2    0    0  0.27268801323E+00 -0.99549939356E+00  0.57240811184E+00  0.90007733572E+02  0.89999994855E+02 0.  0.
        -12    1    1    2    0    0 -0.27268801323E+00  0.99549939356E+00 -0.57240811184E+00  0.11802664282E+01  0.00000000000E+00 0.  1.
         11    1    3    3    0    0 -0.30177508081E+01 -0.80643489791E+01 -0.94873335013E+01  0.12812105277E+02  0.51100000000E-03 0. -1.
        -11    1    3    3    0    0 -0.25865200403E+02  0.28471735343E+01 -0.21695765365E+02  0.33879510387E+02  0.51100000000E-03 0.  1.
         12    1    3    3    0    0  0.29155639224E+02  0.42216760512E+01  0.31755506978E+02  0.43316117909E+02  0.00000000000E+00 0. -1.
</event>
<event>
 7    1  0.3662489E-015  0.9000771E+02  0.7816164E-02  0.1186339E+00
        -11   -1    0    0    0    0  0.00000000000E+00  0.00000000000E+00  0.45593999997E+02  0.45594000000E+02  0.51100000000E-03 0.  1.
         11   -1    0    0    0    0 -0.00000000000E+00 -0.00000000000E+00 -0.45593999997E+02  0.45594000000E+02  0.51100000000E-03 0. -1.
    9900012    2    1    2    0    0 -0.91891442279E+00 -0.29970424970E-01 -0.74012660239E+00  0.90007707947E+02  0.89999968892E+02 0.  0.
        -12    1    1    2    0    0  0.91891442279E+00  0.29970424970E-01  0.74012660239E+00  0.11802920530E+01  0.00000000000E+00 0.  1.
         11    1    3    3    0    0  0.70720250747E+01 -0.33896420934E+02 -0.19830374501E+02  0.39902689683E+02  0.51100000000E-03 0. -1.
        -11    1    3    3    0    0  0.52706742066E+01  0.15132005392E+01 -0.51785717166E+01  0.75423728196E+01  0.51100000000E-03 0.  1.
        -12    1    3    3    0    0 -0.13261613704E+02  0.32353249970E+02  0.24268819616E+02  0.42562645444E+02  0.00000000000E+00 0.  1.
</event>
<event>
 7    1  0.3662489E-015  0.9000769E+02  0.7816164E-02  0.1186339E+00
        -11   -1    0    0    0    0  0.00000000000E+00  0.00000000000E+00  0.45593999997E+02  0.45594000000E+02  0.51100000000E-03 0.  1.
         11   -1    0    0    0    0 -0.00000000000E+00 -0.00000000000E+00 -0.45593999997E+02  0.45594000000E+02  0.51100000000E-03 0. -1.
    9900012    2    1    2    0    0  0.10252610365E+01 -0.36290994875E+00 -0.45856081355E+00  0.90007685701E+02  0.89999946353E+02 0.  0.
        -12    1    1    2    0    0 -0.10252610365E+01  0.36290994875E+00  0.45856081355E+00  0.11803142987E+01  0.00000000000E+00 0.  1.
         11    1    3    3    0    0  0.83698235769E+01 -0.47118459107E+01  0.19436930087E+01  0.97996623089E+01  0.51100000000E-03 0. -1.
        -11    1    3    3    0    0  0.35550629700E+01  0.10400269100E+02  0.37147774450E+02  0.38739659483E+02  0.51100000000E-03 0.  1.
         12    1    3    3    0    0 -0.10899625510E+02 -0.60513331375E+01 -0.39550028272E+02  0.41468363909E+02  0.00000000000E+00 0. -1.
</event>
<event>
 7    1  0.3662489E-015  0.9000770E+02  0.7816164E-02  0.1186339E+00
        -11   -1    0    0    0    0  0.00000000000E+00  0.00000000000E+00  0.45593999997E+02  0.45594000000E+02  0.51100000000E-03 0.  1.
         11   -1    0    0    0    0 -0.00000000000E+00 -0.00000000000E+00 -0.45593999997E+02  0.45594000000E+02  0.51100000000E-03 0. -1.
    9900012    2    1    2    0    0  0.10603911826E+01  0.48550131199E+00  0.18156873774E+00  0.90007699957E+02  0.89999960797E+02 0.  0.
        -12    1    1    2    0    0 -0.10603911826E+01 -0.48550131199E+00 -0.18156873774E+00  0.11803000426E+01  0.00000000000E+00 0.  1.
         11    1    3    3    0    0 -0.26230604022E+02  0.23373174210E+02 -0.80192993252E+01  0.36036911937E+02  0.51100000000E-03 0. -1.
        -11    1    3    3    0    0  0.17834643493E+02 -0.34431187790E+00 -0.12627102641E+02  0.21854902895E+02  0.51100000000E-03 0.  1.
        -12    1    3    3    0    0  0.94563517120E+01 -0.22543361020E+02  0.20827970703E+02  0.32115885126E+02  0.00000000000E+00 0.  1.
</event>
<event>
 7    1  0.3662489E-015  0.9000776E+02  0.7816164E-02  0.1186339E+00
        -11   -1    0    0    0    0  0.00000000000E+00  0.00000000000E+00  0.45593999997E+02  0.45594000000E+02  0.51100000000E-03 0.  1.
         11   -1    0    0    0    0 -0.00000000000E+00 -0.00000000000E+00 -0.45593999997E+02  0.45594000000E+02  0.51100000000E-03 0. -1.
    9900012    2    1    2    0    0  0.45942525911E+00  0.10192275666E+01 -0.37824380749E+00  0.90007760711E+02  0.90000022352E+02 0.  0.
        -12    1    1    2    0    0 -0.45942525911E+00 -0.10192275666E+01  0.37824380749E+00  0.11802392889E+01  0.00000000000E+00 0.  1.
         11    1    3    3    0    0  0.32078639762E+02  0.11647867797E+02 -0.27765872568E+02  0.43996086563E+02  0.51100000000E-03 0. -1.
        -11    1    3    3    0    0 -0.43485732622E+01 -0.85577819800E+01  0.63903433234E+01  0.11531791270E+02  0.51100000000E-03 0.  1.
        -12    1    3    3    0    0 -0.27270641240E+02 -0.20708582501E+01  0.20997285437E+02  0.34479882878E+02  0.00000000000E+00 0.  1.
</event>
<event>
 7    1  0.3662489E-015  0.9000787E+02  0.7816164E-02  0.1186339E+00
        -11   -1    0    0    0    0  0.00000000000E+00  0.00000000000E+00  0.45593999997E+02  0.45594000000E+02  0.51100000000E-03 0.  1.
         11   -1    0    0    0    0 -0.00000000000E+00 -0.00000000000E+00 -0.45593999997E+02  0.45594000000E+02  0.51100000000E-03 0. -1.
    9900012    2    1    2    0    0 -0.39095596749E+00  0.34585968218E+00 -0.10584183513E+01  0.90007866578E+02  0.90000129616E+02 0.  0.
        -12    1    1    2    0    0  0.39095596749E+00 -0.34585968218E+00  0.10584183513E+01  0.11801334224E+01  0.00000000000E+00 0.  1.
         11    1    3    3    0    0 -0.22665899993E+02  0.10742666191E+02 -0.26788470628E+02  0.36698365880E+02  0.51100000000E-03 0. -1.
        -11    1    3    3    0    0 -0.44261274506E+01 -0.40987084158E+01 -0.78804315912E+01  0.99242741403E+01  0.51100000000E-03 0.  1.
        -12    1    3    3    0    0  0.26701071476E+02 -0.62980980935E+01  0.33610483868E+02  0.43385226557E+02  0.00000000000E+00 0.  1.
</event>
<event>
 7    1  0.3662489E-015  0.9000777E+02  0.7816164E-02  0.1186339E+00
        -11   -1    0    0    0    0  0.00000000000E+00  0.00000000000E+00  0.45593999997E+02  0.45594000000E+02  0.51100000000E-03 0. -1.
         11   -1    0    0    0    0 -0.00000000000E+00 -0.00000000000E+00 -0.45593999997E+02  0.45594000000E+02  0.51100000000E-03 0.  1.
    9900012    2    1    2    0    0  0.79651775245E+00 -0.25143949592E+00  0.83383010407E+00  0.90007773330E+02  0.90000035138E+02 0.  0.
        -12    1    1    2    0    0 -0.79651775245E+00  0.25143949592E+00 -0.83383010407E+00  0.11802266700E+01  0.00000000000E+00 0.  1.
         11    1    3    3    0    0  0.89521618911E+01 -0.14907346724E+01  0.48244640526E+01  0.10278080854E+02  0.51100000000E-03 0. -1.
        -11    1    3    3    0    0  0.30399191497E+02 -0.18438500850E+02  0.37700090639E+01  0.35753351254E+02  0.51100000000E-03 0.  1.
         12    1    3    3    0    0 -0.38554835635E+02  0.19677796027E+02 -0.77606430124E+01  0.43976341222E+02  0.00000000000E+00 0. -1.
</event>
<event>
 7    1  0.3662489E-015  0.9000777E+02  0.7816164E-02  0.1186339E+00
        -11   -1    0    0    0    0  0.00000000000E+00  0.00000000000E+00  0.45593999997E+02  0.45594000000E+02  0.51100000000E-03 0.  1.
         11   -1    0    0    0    0 -0.00000000000E+00 -0.00000000000E+00 -0.45593999997E+02  0.45594000000E+02  0.51100000000E-03 0. -1.
    9900012    2    1    2    0    0 -0.76146266646E+00  0.51291184036E+00 -0.74164182747E+00  0.90007772671E+02  0.90000034470E+02 0.  0.
        -12    1    1    2    0    0  0.76146266646E+00 -0.51291184036E+00  0.74164182747E+00  0.11802273292E+01  0.00000000000E+00 0.  1.
         11    1    3    3    0    0  0.12970572882E+02 -0.27996367175E+02 -0.19389317645E+02  0.36441432119E+02  0.51100000000E-03 0. -1.
        -11    1    3    3    0    0 -0.13921196743E+02  0.47399479947E+01 -0.88933974385E+01  0.17186021762E+02  0.51100000000E-03 0.  1.
        -12    1    3    3    0    0  0.18916119377E+00  0.23769331021E+02  0.27541073256E+02  0.36380318790E+02  0.00000000000E+00 0.  1.
</event>
<event>
 7    1  0.3662489E-015  0.9000773E+02  0.7816164E-02  0.1186339E+00
        -11   -1    0    0    0    0  0.00000000000E+00  0.00000000000E+00  0.45593999997E+02  0.45594000000E+02  0.51100000000E-03 0. -1.
         11   -1    0    0    0    0 -0.00000000000E+00 -0.00000000000E+00 -0.45593999997E+02  0.45594000000E+02  0.51100000000E-03 0.  1.
    9900012    2    1    2    0    0 -0.62941315233E+00  0.97786656187E+00 -0.20160965401E+00  0.90007732919E+02  0.89999994194E+02 0.  0.
        -12    1    1    2    0    0  0.62941315233E+00 -0.97786656187E+00  0.20160965401E+00  0.11802670807E+01  0.00000000000E+00 0.  1.
         11    1    3    3    0    0 -0.42859508544E+01 -0.62783281119E+01  0.44135987901E+01  0.87901440914E+01  0.51100000000E-03 0. -1.
        -11    1    3    3    0    0 -0.17057176166E+02 -0.21788813857E+02 -0.27356478862E+02  0.38911137275E+02  0.51100000000E-03 0.  1.
         12    1    3    3    0    0  0.20713713868E+02  0.29045008531E+02  0.22741270418E+02  0.42306451553E+02  0.00000000000E+00 0. -1.
</event>
<event>
 7    1  0.3662489E-015  0.9000777E+02  0.7816164E-02  0.1186339E+00
        -11   -1    0    0    0    0  0.00000000000E+00  0.00000000000E+00  0.45593999997E+02  0.45594000000E+02  0.51100000000E-03 0.  1.
         11   -1    0    0    0    0 -0.00000000000E+00 -0.00000000000E+00 -0.45593999997E+02  0.45594000000E+02  0.51100000000E-03 0. -1.
    9900012    2    1    2    0    0  0.79220266453E+00 -0.24972673379E+00 -0.83844981859E+00  0.90007768412E+02  0.90000030155E+02 0.  0.
        -12    1    1    2    0    0 -0.79220266453E+00  0.24972673379E+00  0.83844981859E+00  0.11802315881E+01  0.00000000000E+00 0.  1.
         11    1    3    3    0    0 -0.90488658356E+01 -0.15947598906E+01  0.23157696911E+01  0.94756541486E+01  0.51100000000E-03 0. -1.
        -11    1    3    3    0    0 -0.70483725689E+00  0.94585275926E+01  0.37017934732E+02  0.38213715232E+02  0.51100000000E-03 0.  1.
         12    1    3    3    0    0  0.10545905757E+02 -0.81134944358E+01 -0.40172154241E+02  0.42318399031E+02  0.00000000000E+00 0. -1.
</event>
<event>
 7    1  0.3662489E-015  0.9000778E+02  0.7816164E-02  0.1186339E+00
        -11   -1    0    0    0    0  0.00000000000E+00  0.00000000000E+00  0.45593999997E+02  0.45594000000E+02  0.51100000000E-03 0. -1.
         11   -1    0    0    0    0 -0.00000000000E+00 -0.00000000000E+00 -0.45593999997E+02  0.45594000000E+02  0.51100000000E-03 0.  1.
    9900012    2    1    2    0    0  0.11310218618E+00 -0.14800216454E+00  0.11654301544E+01  0.90007777906E+02  0.90000039775E+02 0.  0.
        -12    1    1    2    0    0 -0.11310218618E+00  0.14800216454E+00 -0.11654301544E+01  0.11802220935E+01  0.00000000000E+00 0.  1.
         11    1    3    3    0    0 -0.41833475919E+01 -0.64168003277E+01 -0.30990220152E+01  0.82631508053E+01  0.51100000000E-03 0. -1.
        -11    1    3    3    0    0 -0.24397121556E+02 -0.12922762447E+02 -0.24422771454E+02  0.36860400096E+02  0.51100000000E-03 0.  1.
         12    1    3    3    0    0  0.28693571334E+02  0.19191560610E+02  0.28687223624E+02  0.44884227005E+02  0.00000000000E+00 0. -1.
</event>
<event>
 7    1  0.3662489E-015  0.9000774E+02  0.7816164E-02  0.1186339E+00
        -11   -1    0    0    0    0  0.00000000000E+00  0.00000000000E+00  0.45593999997E+02  0.45594000000E+02  0.51100000000E-03 0.  1.
         11   -1    0    0    0    0 -0.00000000000E+00 -0.00000000000E+00 -0.45593999997E+02  0.45594000000E+02  0.51100000000E-03 0. -1.
    9900012    2    1    2    0    0  0.30574031415E+00 -0.10765135634E+01 -0.37503231908E+00  0.90007742472E+02  0.90000003873E+02 0.  0.
        -12    1    1    2    0    0 -0.30574031415E+00  0.10765135634E+01  0.37503231908E+00  0.11802575280E+01  0.00000000000E+00 0.  1.
         11    1    3    3    0    0  0.16849260187E+02  0.34747907491E+02  0.33767600427E+01  0.38764895879E+02  0.51100000000E-03 0. -1.
        -11    1    3    3    0    0  0.69188605578E+01 -0.11061804824E+01  0.47779670984E+01  0.84807568372E+01  0.51100000000E-03 0.  1.
        -12    1    3    3    0    0 -0.23462380431E+02 -0.34718240572E+02 -0.85297594602E+01  0.42762089756E+02  0.00000000000E+00 0.  1.
</event>
<event>
 7    1  0.3662489E-015  0.9000761E+02  0.7816164E-02  0.1186339E+00
        -11   -1    0    0    0    0  0.00000000000E+00  0.00000000000E+00  0.45593999997E+02  0.45594000000E+02  0.51100000000E-03 0. -1.
         11   -1    0    0    0    0 -0.00000000000E+00 -0.00000000000E+00 -0.45593999997E+02  0.45594000000E+02  0.51100000000E-03 0.  1.
    9900012    2    1    2    0    0  0.58190021082E-01 -0.91108958196E+00 -0.74823128496E+00  0.90007610081E+02  0.89999869734E+02 0.  0.
        -12    1    1    2    0    0 -0.58190021082E-01  0.91108958196E+00  0.74823128496E+00  0.11803899189E+01  0.00000000000E+00 0.  1.
         11    1    3    3    0    0  0.23615320295E+01  0.49190644774E+01 -0.74105227677E+01  0.92027102970E+01  0.51100000000E-03 0. -1.
        -11    1    3    3    0    0 -0.10252202913E+02 -0.90625060651E+01 -0.35360100441E+02  0.37915344970E+02  0.51100000000E-03 0.  1.
         12    1    3    3    0    0  0.79488609047E+01  0.32323520057E+01  0.42022391924E+02  0.42889554814E+02  0.00000000000E+00 0. -1.
</event>
<event>
 7    1  0.3662489E-015  0.9000788E+02  0.7816164E-02  0.1186339E+00
        -11   -1    0    0    0    0  0.00000000000E+00  0.00000000000E+00  0.45593999997E+02  0.45594000000E+02  0.51100000000E-03 0.  1.
         11   -1    0    0    0    0 -0.00000000000E+00 -0.00000000000E+00 -0.45593999997E+02  0.45594000000E+02  0.51100000000E-03 0. -1.
    9900012    2    1    2    0    0 -0.98865002542E+00  0.38562688221E+00  0.51627912362E+00  0.90007880896E+02  0.90000144124E+02 0.  0.
        -12    1    1    2    0    0  0.98865002542E+00 -0.38562688221E+00 -0.51627912362E+00  0.11801191035E+01  0.00000000000E+00 0.  1.
         11    1    3    3    0    0  0.14152740316E+01  0.92212953484E+01  0.30232927052E+01  0.98069152913E+01  0.51100000000E-03 0. -1.
        -11    1    3    3    0    0 -0.13244121449E+01 -0.15957311945E+02  0.36856176144E+02  0.40184170916E+02  0.51100000000E-03 0.  1.
         12    1    3    3    0    0 -0.10795119121E+01  0.71216434792E+01 -0.39363189725E+02  0.40016794689E+02  0.00000000000E+00 0. -1.
</event>
<event>
 7    1  0.3662489E-015  0.9000793E+02  0.7816164E-02  0.1186339E+00
        -11   -1    0    0    0    0  0.00000000000E+00  0.00000000000E+00  0.45593999997E+02  0.45594000000E+02  0.51100000000E-03 0.  1.
         11   -1    0    0    0    0 -0.00000000000E+00 -0.00000000000E+00 -0.45593999997E+02  0.45594000000E+02  0.51100000000E-03 0. -1.
    9900012    2    1    2    0    0 -0.10387572433E+01  0.31650321068E+00 -0.46192905116E+00  0.90007928247E+02  0.90000192100E+02 0.  0.
        -12    1    1    2    0    0  0.10387572433E+01 -0.31650321068E+00  0.46192905116E+00  0.11800717525E+01  0.00000000000E+00 0.  1.
         11    1    3    3    0    0 -0.25528628003E+01  0.27528578979E+01 -0.68198678862E+01  0.77849812672E+01  0.51100000000E-03 0. -1.
        -11    1    3    3    0    0  0.23678877319E+02  0.32609301167E+02  0.60787502285E+01  0.40755453111E+02  0.51100000000E-03 0.  1.
         12    1    3    3    0    0 -0.22164771762E+02 -0.35045655854E+02  0.27918860661E+00  0.41467493869E+02  0.00000000000E+00 0. -1.
</event>
<event>
 7    1  0.3662489E-015  0.9000776E+02  0.7816164E-02  0.1186339E+00
        -11   -1    0    0    0    0  0.00000000000E+00  0.00000000000E+00  0.45593999997E+02  0.45594000000E+02  0.51100000000E-03 0. -1.
         11   -1    0    0    0    0 -0.00000000000E+00 -0.00000000000E+00 -0.45593999997E+02  0.45594000000E+02  0.51100000000E-03 0.  1.
    9900012    2    1    2    0    0  0.32867023665E+00  0.10954549246E+01  0.29141708377E+00  0.90007758697E+02  0.90000020312E+02 0.  0.
        -12    1    1    2    0    0 -0.32867023665E+00 -0.10954549246E+01 -0.29141708377E+00  0.11802413029E+01  0.00000000000E+00 0.  1.
         11    1    3    3    0    0 -0.18554648383E+02 -0.33157160817E+02  0.69966498752E+01  0.38634510477E+02  0.51100000000E-03 0. -1.
        -11    1    3    3    0    0 -0.53414655793E+01  0.31463951187E+00  0.57514050843E+01  0.78555021013E+01  0.51100000000E-03 0.  1.
        -12    1    3    3    0    0  0.24224784199E+02  0.33937976230E+02 -0.12456637876E+02  0.43517746119E+02  0.00000000000E+00 0.  1.
</event>
<event>
 7    1  0.3662489E-015  0.9000771E+02  0.7816164E-02  0.1186339E+00
        -11   -1    0    0    0    0  0.00000000000E+00  0.00000000000E+00  0.45593999997E+02  0.45594000000E+02  0.51100000000E-03 0.  1.
         11   -1    0    0    0    0 -0.00000000000E+00 -0.00000000000E+00 -0.45593999997E+02  0.45594000000E+02  0.51100000000E-03 0. -1.
    9900012    2    1    2    0    0  0.59629165128E+00 -0.93857683085E+00 -0.39570936896E+00  0.90007713549E+02  0.89999974568E+02 0.  0.
        -12    1    1    2    0    0 -0.59629165128E+00  0.93857683085E+00  0.39570936896E+00  0.11802864506E+01  0.00000000000E+00 0.  1.
         11    1    3    3    0    0  0.20031768555E+02  0.37101801377E+02 -0.57054190431E+01  0.42548410353E+02  0.51100000000E-03 0. -1.
        -11    1    3    3    0    0 -0.55977450477E+01 -0.41547865774E+01 -0.59492654992E+01  0.91646473671E+01  0.51100000000E-03 0.  1.
        -12    1    3    3    0    0 -0.13837731856E+02 -0.33885591631E+02  0.11258975173E+02  0.38294655829E+02  0.00000000000E+00 0.  1.
</event>
<event>
 7    1  0.3662489E-015  0.9000772E+02  0.7816164E-02  0.1186339E+00
        -11   -1    0    0    0    0  0.00000000000E+00  0.00000000000E+00  0.45593999997E+02  0.45594000000E+02  0.51100000000E-03 0.  1.
         11   -1    0    0    0    0 -0.00000000000E+00 -0.00000000000E+00 -0.45593999997E+02  0.45594000000E+02  0.51100000000E-03 0. -1.
    9900012    2    1    2    0    0  0.12063019161E+00 -0.11673594948E+01  0.12563572676E+00  0.90007718606E+02  0.89999979692E+02 0.  0.
        -12    1    1    2    0    0 -0.12063019161E+00  0.11673594948E+01 -0.12563572676E+00  0.11802813940E+01  0.00000000000E+00 0.  1.
         11    1    3    3    0    0  0.91973677076E+01  0.29969029935E+02 -0.14147762898E+02  0.34393219147E+02  0.51100000000E-03 0. -1.
        -11    1    3    3    0    0  0.12883349624E+00 -0.36526201293E+01 -0.14392250971E+02  0.14849078091E+02  0.51100000000E-03 0.  1.
        -12    1    3    3    0    0 -0.92055710123E+01 -0.27483769300E+02  0.28665649595E+02  0.40765421369E+02  0.00000000000E+00 0.  1.
</event>
<event>
 7    1  0.3662489E-015  0.9000770E+02  0.7816164E-02  0.1186339E+00
        -11   -1    0    0    0    0  0.00000000000E+00  0.00000000000E+00  0.45593999997E+02  0.45594000000E+02  0.51100000000E-03 0.  1.
         11   -1    0    0    0    0 -0.00000000000E+00 -0.00000000000E+00 -0.45593999997E+02  0.45594000000E+02  0.51100000000E-03 0. -1.
    9900012    2    1    2    0    0  0.25952082382E+00 -0.91025567460E-01 -0.11478156268E+01  0.90007696045E+02  0.89999956833E+02 0.  0.
        -12    1    1    2    0    0 -0.25952082382E+00  0.91025567460E-01  0.11478156268E+01  0.11803039545E+01  0.00000000000E+00 0.  1.
         11    1    3    3    0    0  0.31464251714E+01  0.82940966959E+00  0.87965965786E+01  0.93791270056E+01  0.51100000000E-03 0. -1.
        -11    1    3    3    0    0  0.23998635694E+02  0.26491084122E+02  0.10331346533E+02  0.37208181555E+02  0.51100000000E-03 0.  1.
         12    1    3    3    0    0 -0.26885540042E+02 -0.27411519359E+02 -0.20275758739E+02  0.43420387485E+02  0.00000000000E+00 0. -1.
</event>
<event>
 7    1  0.3662489E-015  0.9000771E+02  0.7816164E-02  0.1186339E+00
        -11   -1    0    0    0    0  0.00000000000E+00  0.00000000000E+00  0.45593999997E+02  0.45594000000E+02  0.51100000000E-03 0.  1.
         11   -1    0    0    0    0 -0.00000000000E+00 -0.00000000000E+00 -0.45593999997E+02  0.45594000000E+02  0.51100000000E-03 0. -1.
    9900012    2    1    2    0    0 -0.27610746552E+00 -0.80695097503E+00  0.81588735981E+00  0.90007713004E+02  0.89999974016E+02 0.  0.
        -12    1    1    2    0    0  0.27610746552E+00  0.80695097503E+00 -0.81588735981E+00  0.11802869958E+01  0.00000000000E+00 0.  1.
         11    1    3    3    0    0 -0.59328259957E+01  0.21271608571E+01 -0.58068228667E+01  0.85698558724E+01  0.51100000000E-03 0. -1.
        -11    1    3    3    0    0 -0.28782267884E+02 -0.18968321329E+02  0.21515622216E+02  0.40634199367E+02  0.51100000000E-03 0.  1.
         12    1    3    3    0    0  0.34438986415E+02  0.16034209496E+02 -0.14892911990E+02  0.40803657765E+02  0.00000000000E+00 0. -1.
</event>
<event>
 7    1  0.3662489E-015  0.9000777E+02  0.7816164E-02  0.1186339E+00
        -11   -1    0    0    0    0  0.00000000000E+00  0.00000000000E+00  0.45593999997E+02  0.45594000000E+02  0.51100000000E-03 0.  1.
         11   -1    0    0    0    0 -0.00000000000E+00 -0.00000000000E+00 -0.45593999997E+02  0.45594000000E+02  0.51100000000E-03 0. -1.
    9900012    2    1    2    0    0  0.67160669972E+00 -0.44266295283E-01 -0.96950359044E+00  0.90007766008E+02  0.90000027719E+02 0.  0.
        -12    1    1    2    0    0 -0.67160669972E+00  0.44266295283E-01  0.96950359044E+00  0.11802339920E+01  0.00000000000E+00 0.  1.
         11    1    3    3    0    0  0.29756053043E+02 -0.16332244261E+02  0.20190746151E+02  0.39494697438E+02  0.51100000000E-03 0. -1.
        -11    1    3    3    0    0 -0.25154865478E+00 -0.21023058583E+01 -0.15747081095E+02  0.15888786295E+02  0.51100000000E-03 0.  1.
        -12    1    3    3    0    0 -0.28832897689E+02  0.18390283824E+02 -0.54131686460E+01  0.34624282275E+02  0.00000000000E+00 0.  1.
</event>
<event>
 7    1  0.3662489E-015  0.9000795E+02  0.7816164E-02  0.1186339E+00
        -11   -1    0    0    0    0  0.00000000000E+00  0.00000000000E+00  0.45593999997E+02  0.45594000000E+02  0.51100000000E-03 0.  1.
         11   -1    0    0    0    0 -0.00000000000E+00 -0.00000000000E+00 -0.45593999997E+02  0.45594000000E+02  0.51100000000E-03 0. -1.
    9900012    2    1    2    0    0 -0.33126231043E+00 -0.21911878915E-01  0.11323927223E+01  0.90007945710E+02  0.90000209794E+02 0.  0.
        -12    1    1    2    0    0  0.33126231043E+00  0.21911878915E-01 -0.11323927223E+01  0.11800542896E+01  0.00000000000E+00 0.  1.
         11    1    3    3    0    0 -0.36095621942E+02 -0.13245216970E+02 -0.30684087819E+01  0.38571295397E+02  0.51100000000E-03 0. -1.
        -11    1    3    3    0    0  0.17172065139E+01 -0.22745979188E+00 -0.11481333225E+02  0.11611268193E+02  0.51100000000E-03 0.  1.
        -12    1    3    3    0    0  0.34047153117E+02  0.13450764883E+02  0.15682134729E+02  0.39825382120E+02  0.00000000000E+00 0.  1.
</event>
<event>
 7    1  0.3662489E-015  0.9000739E+02  0.7816164E-02  0.1186340E+00
        -11   -1    0    0    0    0  0.00000000000E+00  0.00000000000E+00  0.45593999997E+02  0.45594000000E+02  0.51100000000E-03 0. -1.
         11   -1    0    0    0    0 -0.00000000000E+00 -0.00000000000E+00 -0.45593999997E+02  0.45594000000E+02  0.51100000000E-03 0.  1.
    9900012    2    1    2    0    0  0.62866322612E+00  0.59089805583E+00  0.80589929946E+00  0.90007385056E+02  0.89999641738E+02 0.  0.
        -12    1    1    2    0    0 -0.62866322612E+00 -0.59089805583E+00 -0.80589929946E+00  0.11806149436E+01  0.00000000000E+00 0.  1.
         11    1    3    3    0    0  0.35239140748E+02  0.13897752889E+02  0.83258606458E+00  0.37889810976E+02  0.51100000000E-03 0. -1.
        -11    1    3    3    0    0  0.22222992223E+01  0.87787011770E+01  0.13107179332E+01  0.91499830574E+01  0.51100000000E-03 0.  1.
        -12    1    3    3    0    0 -0.36832776744E+02 -0.22085556010E+02 -0.13374046983E+01  0.42967591023E+02  0.00000000000E+00 0.  1.
</event>
<event>
 7    1  0.3662489E-015  0.9000771E+02  0.7816164E-02  0.1186339E+00
        -11   -1    0    0    0    0  0.00000000000E+00  0.00000000000E+00  0.45593999997E+02  0.45594000000E+02  0.51100000000E-03 0.  1.
         11   -1    0    0    0    0 -0.00000000000E+00 -0.00000000000E+00 -0.45593999997E+02  0.45594000000E+02  0.51100000000E-03 0. -1.
    9900012    2    1    2    0    0  0.80268496633E+00 -0.68743754423E+00 -0.52554992018E+00  0.90007713488E+02  0.89999974506E+02 0.  0.
        -12    1    1    2    0    0 -0.80268496633E+00  0.68743754423E+00  0.52554992018E+00  0.11802865122E+01  0.00000000000E+00 0.  1.
         11    1    3    3    0    0  0.37955072780E+02 -0.21626030670E+02 -0.82154699920E+01  0.44449597295E+02  0.51100000000E-03 0. -1.
        -11    1    3    3    0    0 -0.95053582937E+01 -0.81483619399E+00  0.33548739946E+01  0.10112911257E+02  0.51100000000E-03 0.  1.
        -12    1    3    3    0    0 -0.27647029520E+02  0.21753429319E+02  0.43350460772E+01  0.35445204935E+02  0.00000000000E+00 0.  1.
</event>
<event>
 7    1  0.4846975E-015  0.9000769E+02  0.7816164E-02  0.1186339E+00
        -11   -1    0    0    0    0  0.00000000000E+00  0.00000000000E+00  0.45593999997E+02  0.45594000000E+02  0.51100000000E-03 0. -1.
         11   -1    0    0    0    0 -0.00000000000E+00 -0.00000000000E+00 -0.45593999997E+02  0.45594000000E+02  0.51100000000E-03 0.  1.
    9900012    2    1    2    0    0 -0.19279189863E+00  0.18110078007E+00  0.11502851490E+01  0.90007694051E+02  0.89999954813E+02 0.  0.
        -12    1    1    2    0    0  0.19279189863E+00 -0.18110078007E+00 -0.11502851490E+01  0.11803059488E+01  0.00000000000E+00 0.  1.
         11    1    3    3    0    0  0.11255396805E+02  0.33428448695E+02  0.19396176714E+02  0.40253655869E+02  0.51100000000E-03 0. -1.
        -11    1    3    3    0    0 -0.96544447061E+01 -0.21548240373E+00  0.33806832750E+01  0.10231507949E+02  0.51100000000E-03 0.  1.
        -12    1    3    3    0    0 -0.17937439975E+01 -0.33031865512E+02 -0.21626574840E+02  0.39522530233E+02  0.00000000000E+00 0.  1.
</event>
<event>
 7    1  0.3662489E-015  0.9000776E+02  0.7816164E-02  0.1186339E+00
        -11   -1    0    0    0    0  0.00000000000E+00  0.00000000000E+00  0.45593999997E+02  0.45594000000E+02  0.51100000000E-03 0. -1.
         11   -1    0    0    0    0 -0.00000000000E+00 -0.00000000000E+00 -0.45593999997E+02  0.45594000000E+02  0.51100000000E-03 0.  1.
    9900012    2    1    2    0    0 -0.10784190695E+01 -0.14830682399E-01 -0.47934328420E+00  0.90007755270E+02  0.90000016840E+02 0.  0.
        -12    1    1    2    0    0  0.10784190695E+01  0.14830682399E-01  0.47934328420E+00  0.11802447300E+01  0.00000000000E+00 0.  1.
         11    1    3    3    0    0  0.62729950083E+01 -0.13005371020E+01  0.16842225819E+02  0.18019501490E+02  0.51100000000E-03 0. -1.
        -11    1    3    3    0    0  0.30746018814E+02 -0.14254051369E+01 -0.13480942049E+02  0.33601863810E+02  0.51100000000E-03 0.  1.
         12    1    3    3    0    0 -0.38097432892E+02  0.27111115566E+01 -0.38406270544E+01  0.38386389971E+02  0.00000000000E+00 0. -1.
</event>
<event>
 7    1  0.3662489E-015  0.9000765E+02  0.7816164E-02  0.1186339E+00
        -11   -1    0    0    0    0  0.00000000000E+00  0.00000000000E+00  0.45593999997E+02  0.45594000000E+02  0.51100000000E-03 0.  1.
         11   -1    0    0    0    0 -0.00000000000E+00 -0.00000000000E+00 -0.45593999997E+02  0.45594000000E+02  0.51100000000E-03 0. -1.
    9900012    2    1    2    0    0  0.22297544397E+00  0.14825930315E-01 -0.11590070742E+01  0.90007646131E+02  0.89999906260E+02 0.  0.
        -12    1    1    2    0    0 -0.22297544397E+00 -0.14825930315E-01  0.11590070742E+01  0.11803538685E+01  0.00000000000E+00 0.  1.
         11    1    3    3    0    0  0.10794244998E+02 -0.13029868974E+02 -0.39048244097E+02  0.42556533903E+02  0.51100000000E-03 0. -1.
        -11    1    3    3    0    0  0.26445865603E+01 -0.53164646423E+01  0.75119525298E+01  0.95753885268E+01  0.51100000000E-03 0.  1.
        -12    1    3    3    0    0 -0.13215856114E+02  0.18361159546E+02  0.30377284493E+02  0.37875723701E+02  0.00000000000E+00 0.  1.
</event>
<event>
 7    1  0.3662489E-015  0.9000776E+02  0.7816164E-02  0.1186339E+00
        -11   -1    0    0    0    0  0.00000000000E+00  0.00000000000E+00  0.45593999997E+02  0.45594000000E+02  0.51100000000E-03 0.  1.
         11   -1    0    0    0    0 -0.00000000000E+00 -0.00000000000E+00 -0.45593999997E+02  0.45594000000E+02  0.51100000000E-03 0. -1.
    9900012    2    1    2    0    0 -0.36995214354E-01 -0.82609600254E+00 -0.84211186613E+00  0.90007764580E+02  0.90000026273E+02 0.  0.
        -12    1    1    2    0    0  0.36995214354E-01  0.82609600254E+00  0.84211186613E+00  0.11802354199E+01  0.00000000000E+00 0.  1.
         11    1    3    3    0    0  0.26257356416E+02 -0.26472369577E+02  0.11038170083E+02  0.38885425496E+02  0.51100000000E-03 0. -1.
        -11    1    3    3    0    0 -0.15498472560E+01 -0.78844913258E+01 -0.14633399179E+01  0.81675329176E+01  0.51100000000E-03 0.  1.
        -12    1    3    3    0    0 -0.24744504374E+02  0.33530764900E+02 -0.10416942031E+02  0.42954806167E+02  0.00000000000E+00 0.  1.
</event>
<event>
 7    1  0.3662489E-015  0.9000775E+02  0.7816164E-02  0.1186339E+00
        -11   -1    0    0    0    0  0.00000000000E+00  0.00000000000E+00  0.45593999997E+02  0.45594000000E+02  0.51100000000E-03 0.  1.
         11   -1    0    0    0    0 -0.00000000000E+00 -0.00000000000E+00 -0.45593999997E+02  0.45594000000E+02  0.51100000000E-03 0. -1.
    9900012    2    1    2    0    0 -0.46178185385E+00 -0.16921147427E+00 -0.10729041302E+01  0.90007746520E+02  0.90000007974E+02 0.  0.
        -12    1    1    2    0    0  0.46178185385E+00  0.16921147427E+00  0.10729041302E+01  0.11802534796E+01  0.00000000000E+00 0.  1.
         11    1    3    3    0    0  0.65208849390E+01 -0.61784206409E+01  0.42378803599E+01  0.99324947626E+01  0.51100000000E-03 0. -1.
        -11    1    3    3    0    0 -0.20153856774E+02  0.28322567688E+02  0.23012271226E+02  0.41688252668E+02  0.51100000000E-03 0.  1.
         12    1    3    3    0    0  0.13171189981E+02 -0.22313358521E+02 -0.28323055716E+02  0.38386999090E+02  0.00000000000E+00 0. -1.
</event>
<event>
 7    1  0.3662489E-015  0.9000778E+02  0.7816164E-02  0.1186339E+00
        -11   -1    0    0    0    0  0.00000000000E+00  0.00000000000E+00  0.45593999997E+02  0.45594000000E+02  0.51100000000E-03 0. -1.
         11   -1    0    0    0    0 -0.00000000000E+00 -0.00000000000E+00 -0.45593999997E+02  0.45594000000E+02  0.51100000000E-03 0.  1.
    9900012    2    1    2    0    0  0.98170469408E+00 -0.58236026067E+00  0.30005653815E+00  0.90007779044E+02  0.90000040927E+02 0.  0.
        -12    1    1    2    0    0 -0.98170469408E+00  0.58236026067E+00 -0.30005653815E+00  0.11802209563E+01  0.00000000000E+00 0.  1.
         11    1    3    3    0    0 -0.16324769865E+02 -0.22969077021E+01  0.33201172530E+02  0.37068743623E+02  0.51100000000E-03 0. -1.
        -11    1    3    3    0    0 -0.73644839828E+01  0.98697852730E+01 -0.18539147193E+01  0.12453324284E+02  0.51100000000E-03 0.  1.
        -12    1    3    3    0    0  0.24670958542E+02 -0.81552378316E+01 -0.31047201272E+02  0.40485711137E+02  0.00000000000E+00 0.  1.
</event>
<event>
 7    1  0.3662489E-015  0.9000777E+02  0.7816164E-02  0.1186339E+00
        -11   -1    0    0    0    0  0.00000000000E+00  0.00000000000E+00  0.45593999997E+02  0.45594000000E+02  0.51100000000E-03 0.  1.
         11   -1    0    0    0    0 -0.00000000000E+00 -0.00000000000E+00 -0.45593999997E+02  0.45594000000E+02  0.51100000000E-03 0. -1.
    9900012    2    1    2    0    0  0.88369163466E+00  0.15574880809E+00 -0.76666923103E+00  0.90007766842E+02  0.90000028565E+02 0.  0.
        -12    1    1    2    0    0 -0.88369163466E+00 -0.15574880809E+00  0.76666923103E+00  0.11802331576E+01  0.00000000000E+00 0.  1.
         11    1    3    3    0    0  0.42126961914E+01 -0.98580022434E+01  0.25523650759E+01  0.11020053774E+02  0.51100000000E-03 0. -1.
        -11    1    3    3    0    0  0.26756985994E+02  0.22432682958E+02 -0.22183710224E+02  0.41367602828E+02  0.51100000000E-03 0.  1.
         12    1    3    3    0    0 -0.30085990550E+02 -0.12418931907E+02  0.18864675917E+02  0.37620110241E+02  0.00000000000E+00 0. -1.
</event>
<event>
 7    1  0.3662489E-015  0.9000791E+02  0.7816164E-02  0.1186339E+00
        -11   -1    0    0    0    0  0.00000000000E+00  0.00000000000E+00  0.45593999997E+02  0.45594000000E+02  0.51100000000E-03 0.  1.
         11   -1    0    0    0    0 -0.00000000000E+00 -0.00000000000E+00 -0.45593999997E+02  0.45594000000E+02  0.51100000000E-03 0. -1.
    9900012    2    1    2    0    0  0.28253511526E+00 -0.86661360322E+00 -0.74951201008E+00  0.90007909545E+02  0.90000173151E+02 0.  0.
        -12    1    1    2    0    0 -0.28253511526E+00  0.86661360322E+00  0.74951201008E+00  0.11800904550E+01  0.00000000000E+00 0.  1.
         11    1    3    3    0    0  0.99381131935E+01 -0.13486397135E+02  0.20714259856E+02  0.26640750049E+02  0.51100000000E-03 0. -1.
        -11    1    3    3    0    0  0.55018778215E+01  0.29403618845E+02  0.29852259917E+01  0.30062518777E+02  0.51100000000E-03 0.  1.
         12    1    3    3    0    0 -0.15157455900E+02 -0.16783835313E+02 -0.24448997858E+02  0.33304640719E+02  0.00000000000E+00 0. -1.
</event>
<event>
 7    1  0.3662489E-015  0.9000776E+02  0.7816164E-02  0.1186339E+00
        -11   -1    0    0    0    0  0.00000000000E+00  0.00000000000E+00  0.45593999997E+02  0.45594000000E+02  0.51100000000E-03 0. -1.
         11   -1    0    0    0    0 -0.00000000000E+00 -0.00000000000E+00 -0.45593999997E+02  0.45594000000E+02  0.51100000000E-03 0.  1.
    9900012    2    1    2    0    0  0.31661165537E+00 -0.11060150737E+01 -0.26355339514E+00  0.90007757366E+02  0.90000018963E+02 0.  0.
        -12    1    1    2    0    0 -0.31661165537E+00  0.11060150737E+01  0.26355339514E+00  0.11802426343E+01  0.00000000000E+00 0.  1.
         11    1    3    3    0    0  0.63849100806E+01 -0.14760783103E+01 -0.79762046698E+01  0.10323067621E+02  0.51100000000E-03 0. -1.
        -11    1    3    3    0    0  0.35206939254E+02 -0.83534410623E+01 -0.25278654665E+01  0.36272560611E+02  0.51100000000E-03 0.  1.
         12    1    3    3    0    0 -0.41275237679E+02  0.87235042989E+01  0.10240516741E+02  0.43412129133E+02  0.00000000000E+00 0. -1.
</event>
<event>
 7    1  0.3662489E-015  0.9000774E+02  0.7816164E-02  0.1186339E+00
        -11   -1    0    0    0    0  0.00000000000E+00  0.00000000000E+00  0.45593999997E+02  0.45594000000E+02  0.51100000000E-03 0. -1.
         11   -1    0    0    0    0 -0.00000000000E+00 -0.00000000000E+00 -0.45593999997E+02  0.45594000000E+02  0.51100000000E-03 0.  1.
    9900012    2    1    2    0    0  0.23384967431E+00  0.11523936053E+01  0.10154162614E+00  0.90007742658E+02  0.90000004061E+02 0.  0.
        -12    1    1    2    0    0 -0.23384967431E+00 -0.11523936053E+01 -0.10154162614E+00  0.11802573421E+01  0.00000000000E+00 0.  1.
         11    1    3    3    0    0 -0.41623308377E+01 -0.12461781703E+02  0.32590884063E+02  0.35139532232E+02  0.51100000000E-03 0. -1.
        -11    1    3    3    0    0 -0.22764735105E+01  0.42278425859E+00  0.97998315541E+01  0.10069646316E+02  0.51100000000E-03 0.  1.
        -12    1    3    3    0    0  0.66726540226E+01  0.13191391049E+02 -0.42289173991E+02  0.44798564110E+02  0.00000000000E+00 0.  1.
</event>
<event>
 7    1  0.3662489E-015  0.9000767E+02  0.7816164E-02  0.1186339E+00
        -11   -1    0    0    0    0  0.00000000000E+00  0.00000000000E+00  0.45593999997E+02  0.45594000000E+02  0.51100000000E-03 0. -1.
         11   -1    0    0    0    0 -0.00000000000E+00 -0.00000000000E+00 -0.45593999997E+02  0.45594000000E+02  0.51100000000E-03 0.  1.
    9900012    2    1    2    0    0 -0.34100562043E+00  0.30724131688E+00  0.10874290767E+01  0.90007667819E+02  0.89999928234E+02 0.  0.
        -12    1    1    2    0    0  0.34100562043E+00 -0.30724131688E+00 -0.10874290767E+01  0.11803321807E+01  0.00000000000E+00 0.  1.
         11    1    3    3    0    0 -0.61486732208E+01 -0.38344992323E+00 -0.37841217232E+01  0.72299926485E+01  0.51100000000E-03 0. -1.
        -11    1    3    3    0    0 -0.63301271513E+01 -0.30787419533E+02 -0.23056065859E+02  0.38980993887E+02  0.51100000000E-03 0.  1.
         12    1    3    3    0    0  0.12137794752E+02  0.31478110773E+02  0.27927616659E+02  0.43796681284E+02  0.00000000000E+00 0. -1.
</event>
<event>
 7    1  0.4606521E-015  0.9000776E+02  0.7816164E-02  0.1186339E+00
        -11   -1    0    0    0    0  0.00000000000E+00  0.00000000000E+00  0.45593999997E+02  0.45594000000E+02  0.51100000000E-03 0. -1.
         11   -1    0    0    0    0 -0.00000000000E+00 -0.00000000000E+00 -0.45593999997E+02  0.45594000000E+02  0.51100000000E-03 0.  1.
    9900012    2    1    2    0    0  0.87605841888E+00 -0.62315596112E+00  0.48700525970E+00  0.90007756030E+02  0.90000017610E+02 0.  0.
        -12    1    1    2    0    0 -0.87605841888E+00  0.62315596112E+00 -0.48700525970E+00  0.11802439698E+01  0.00000000000E+00 0.  1.
         11    1    3    3    0    0  0.73662829091E+01  0.61355168820E+01  0.27795114311E+01  0.99816018436E+01  0.51100000000E-03 0. -1.
        -11    1    3    3    0    0 -0.19943469852E+02  0.28050334758E+02 -0.18802792787E+02  0.39218723674E+02  0.51100000000E-03 0.  1.
         12    1    3    3    0    0  0.13453245362E+02 -0.34809007601E+02  0.16510286616E+02  0.40807430513E+02  0.00000000000E+00 0. -1.
</event>
<event>
 7    1  0.3662489E-015  0.9000776E+02  0.7816164E-02  0.1186339E+00
        -11   -1    0    0    0    0  0.00000000000E+00  0.00000000000E+00  0.45593999997E+02  0.45594000000E+02  0.51100000000E-03 0. -1.
         11   -1    0    0    0    0 -0.00000000000E+00 -0.00000000000E+00 -0.45593999997E+02  0.45594000000E+02  0.51100000000E-03 0.  1.
    9900012    2    1    2    0    0 -0.33676084342E+00  0.10850502940E+01 -0.31974120896E+00  0.90007755768E+02  0.90000017344E+02 0.  0.
        -12    1    1    2    0    0  0.33676084342E+00 -0.10850502940E+01  0.31974120896E+00  0.11802442319E+01  0.00000000000E+00 0.  1.
         11    1    3    3    0    0  0.56854609924E+00 -0.41017799762E+01  0.74849851544E+01  0.85541128507E+01  0.51100000000E-03 0. -1.
        -11    1    3    3    0    0  0.90787555164E+01  0.30096385618E+02  0.24210849647E+02  0.39678476154E+02  0.51100000000E-03 0.  1.
         12    1    3    3    0    0 -0.99840624590E+01 -0.24909555348E+02 -0.32015576011E+02  0.41775166763E+02  0.00000000000E+00 0. -1.
</event>
<event>
 7    1  0.3970307E-015  0.9000777E+02  0.7816164E-02  0.1186339E+00
        -11   -1    0    0    0    0  0.00000000000E+00  0.00000000000E+00  0.45593999997E+02  0.45594000000E+02  0.51100000000E-03 0. -1.
         11   -1    0    0    0    0 -0.00000000000E+00 -0.00000000000E+00 -0.45593999997E+02  0.45594000000E+02  0.51100000000E-03 0.  1.
    9900012    2    1    2    0    0  0.32437418229E+00 -0.57869785506E+00  0.97612679837E+00  0.90007774028E+02  0.90000035846E+02 0.  0.
        -12    1    1    2    0    0 -0.32437418229E+00  0.57869785506E+00 -0.97612679837E+00  0.11802259716E+01  0.00000000000E+00 0.  1.
         11    1    3    3    0    0 -0.86421553509E+01 -0.29410939870E+01 -0.19935365294E+01  0.93440393356E+01  0.51100000000E-03 0. -1.
        -11    1    3    3    0    0  0.10057158880E+02 -0.36248628137E+02 -0.11623172353E+02  0.39372676088E+02  0.51100000000E-03 0.  1.
         12    1    3    3    0    0 -0.10906293472E+01  0.38611024269E+02  0.14592835681E+02  0.41291058604E+02  0.00000000000E+00 0. -1.
</event>
<event>
 7    1  0.5181357E-015  0.9000776E+02  0.7816164E-02  0.1186339E+00
        -11   -1    0    0    0    0  0.00000000000E+00  0.00000000000E+00  0.45593999997E+02  0.45594000000E+02  0.51100000000E-03 0. -1.
         11   -1    0    0    0    0 -0.00000000000E+00 -0.00000000000E+00 -0.45593999997E+02  0.45594000000E+02  0.51100000000E-03 0.  1.
    9900012    2    1    2    0    0  0.93466339630E-01 -0.35593996523E+00  0.11214007214E+01  0.90007759010E+02  0.90000020629E+02 0.  0.
        -12    1    1    2    0    0 -0.93466339630E-01  0.35593996523E+00 -0.11214007214E+01  0.11802409896E+01  0.00000000000E+00 0.  1.
         11    1    3    3    0    0 -0.33966766922E+01 -0.41975108634E+02  0.91505603924E+01  0.43095010305E+02  0.51100000000E-03 0. -1.
        -11    1    3    3    0    0 -0.28633286686E+01  0.76141571128E+01  0.54438517769E+01  0.97882358999E+01  0.51100000000E-03 0.  1.
        -12    1    3    3    0    0  0.63534717004E+01  0.34005011556E+02 -0.13473011448E+02  0.37124512806E+02  0.00000000000E+00 0.  1.
</event>
<event>
 7    1  0.3662489E-015  0.9000774E+02  0.7816164E-02  0.1186339E+00
        -11   -1    0    0    0    0  0.00000000000E+00  0.00000000000E+00  0.45593999997E+02  0.45594000000E+02  0.51100000000E-03 0. -1.
         11   -1    0    0    0    0 -0.00000000000E+00 -0.00000000000E+00 -0.45593999997E+02  0.45594000000E+02  0.51100000000E-03 0.  1.
    9900012    2    1    2    0    0 -0.17496543857E+00  0.49243863587E+00 -0.10582605982E+01  0.90007735534E+02  0.89999996844E+02 0.  0.
        -12    1    1    2    0    0  0.17496543857E+00 -0.49243863587E+00  0.10582605982E+01  0.11802644655E+01  0.00000000000E+00 0.  1.
         11    1    3    3    0    0  0.72722833665E+01 -0.33995297334E+01  0.59320052267E+01  0.99815627054E+01  0.51100000000E-03 0. -1.
        -11    1    3    3    0    0 -0.11937750742E+01  0.41538372777E+02 -0.33265972551E+01  0.41688460770E+02  0.51100000000E-03 0.  1.
         12    1    3    3    0    0 -0.62534737309E+01 -0.37646404407E+02 -0.36636685698E+01  0.38337712059E+02  0.00000000000E+00 0. -1.
</event>
<event>
 7    1  0.3662489E-015  0.9000777E+02  0.7816164E-02  0.1186339E+00
        -11   -1    0    0    0    0  0.00000000000E+00  0.00000000000E+00  0.45593999997E+02  0.45594000000E+02  0.51100000000E-03 0. -1.
         11   -1    0    0    0    0 -0.00000000000E+00 -0.00000000000E+00 -0.45593999997E+02  0.45594000000E+02  0.51100000000E-03 0.  1.
    9900012    2    1    2    0    0  0.10449031777E+00 -0.11353787838E+01  0.30485926902E+00  0.90007770199E+02  0.90000031966E+02 0.  0.
        -12    1    1    2    0    0 -0.10449031777E+00  0.11353787838E+01 -0.30485926902E+00  0.11802298009E+01  0.00000000000E+00 0.  1.
         11    1    3    3    0    0 -0.57029425334E+01 -0.62202977641E+01 -0.68187658662E+01  0.10849480449E+02  0.51100000000E-03 0. -1.
        -11    1    3    3    0    0 -0.27706946316E+02 -0.18065437460E+02 -0.10604945442E+02  0.34734705597E+02  0.51100000000E-03 0.  1.
         12    1    3    3    0    0  0.33514379168E+02  0.23150356440E+02  0.17728570578E+02  0.44423584153E+02  0.00000000000E+00 0. -1.
</event>
<event>
 7    1  0.3662489E-015  0.9000777E+02  0.7816164E-02  0.1186339E+00
        -11   -1    0    0    0    0  0.00000000000E+00  0.00000000000E+00  0.45593999997E+02  0.45594000000E+02  0.51100000000E-03 0.  1.
         11   -1    0    0    0    0 -0.00000000000E+00 -0.00000000000E+00 -0.45593999997E+02  0.45594000000E+02  0.51100000000E-03 0. -1.
    9900012    2    1    2    0    0  0.96387343548E+00 -0.55234218322E+00 -0.39849785762E+00  0.90007773569E+02  0.90000035380E+02 0.  0.
        -12    1    1    2    0    0 -0.96387343548E+00  0.55234218322E+00  0.39849785762E+00  0.11802264315E+01  0.00000000000E+00 0.  1.
         11    1    3    3    0    0 -0.20354234908E+02  0.28146856588E+02 -0.23608950794E+02  0.41999082994E+02  0.51100000000E-03 0. -1.
        -11    1    3    3    0    0  0.11802830216E+01  0.24149816271E+01 -0.18551427402E+01  0.32660004773E+01  0.51100000000E-03 0.  1.
        -12    1    3    3    0    0  0.20137825322E+02 -0.31114180398E+02  0.25065595676E+02  0.44742690097E+02  0.00000000000E+00 0.  1.
</event>
<event>
 7    1  0.3662489E-015  0.9000769E+02  0.7816164E-02  0.1186339E+00
        -11   -1    0    0    0    0  0.00000000000E+00  0.00000000000E+00  0.45593999997E+02  0.45594000000E+02  0.51100000000E-03 0.  1.
         11   -1    0    0    0    0 -0.00000000000E+00 -0.00000000000E+00 -0.45593999997E+02  0.45594000000E+02  0.51100000000E-03 0. -1.
    9900012    2    1    2    0    0 -0.92653169543E+00  0.15964951249E+00 -0.71357335864E+00  0.90007688224E+02  0.89999948909E+02 0.  0.
        -12    1    1    2    0    0  0.92653169543E+00 -0.15964951249E+00  0.71357335864E+00  0.11803117756E+01  0.00000000000E+00 0.  1.
         11    1    3    3    0    0  0.93505504439E+01  0.49453847836E+00  0.66627160592E+01  0.11492134156E+02  0.51100000000E-03 0. -1.
        -11    1    3    3    0    0 -0.23465007196E+02  0.23994998645E+02  0.20425252130E+02  0.39288133673E+02  0.51100000000E-03 0.  1.
         12    1    3    3    0    0  0.13187925057E+02 -0.24329887611E+02 -0.27801541547E+02  0.39227420395E+02  0.00000000000E+00 0. -1.
</event>
<event>
 7    1  0.4555203E-015  0.9000773E+02  0.7816164E-02  0.1186339E+00
        -11   -1    0    0    0    0  0.00000000000E+00  0.00000000000E+00  0.45593999997E+02  0.45594000000E+02  0.51100000000E-03 0. -1.
         11   -1    0    0    0    0 -0.00000000000E+00 -0.00000000000E+00 -0.45593999997E+02  0.45594000000E+02  0.51100000000E-03 0.  1.
    9900012    2    1    2    0    0  0.54770133105E+00 -0.83278874661E+00  0.63208107980E+00  0.90007728702E+02  0.89999989921E+02 0.  0.
        -12    1    1    2    0    0 -0.54770133105E+00  0.83278874661E+00 -0.63208107980E+00  0.11802712976E+01  0.00000000000E+00 0.  1.
         11    1    3    3    0    0  0.51362649558E+01 -0.93026227023E+00  0.84013804967E+01  0.98908948078E+01  0.51100000000E-03 0. -1.
        -11    1    3    3    0    0  0.35181251792E+02  0.10644339333E+02 -0.12215017766E+02  0.38732790976E+02  0.51100000000E-03 0.  1.
         12    1    3    3    0    0 -0.39769815417E+02 -0.10546865809E+02  0.44457183495E+01  0.41384042919E+02  0.00000000000E+00 0. -1.
</event>
<event>
 7    1  0.3662489E-015  0.9000776E+02  0.7816164E-02  0.1186339E+00
        -11   -1    0    0    0    0  0.00000000000E+00  0.00000000000E+00  0.45593999997E+02  0.45594000000E+02  0.51100000000E-03 0. -1.
         11   -1    0    0    0    0 -0.00000000000E+00 -0.00000000000E+00 -0.45593999997E+02  0.45594000000E+02  0.51100000000E-03 0.  1.
    9900012    2    1    2    0    0  0.63668013089E+00  0.59905860117E+00  0.79292002901E+00  0.90007764867E+02  0.90000026563E+02 0.  0.
        -12    1    1    2    0    0 -0.63668013089E+00 -0.59905860117E+00 -0.79292002901E+00  0.11802351330E+01  0.00000000000E+00 0.  1.
         11    1    3    3    0    0 -0.13111636744E+02  0.42823484962E+01  0.41829372744E+02  0.44044862937E+02  0.51100000000E-03 0. -1.
        -11    1    3    3    0    0  0.76692216642E+01 -0.78938822761E-01 -0.48091541056E+01  0.90526877636E+01  0.51100000000E-03 0.  1.
        -12    1    3    3    0    0  0.60790952108E+01 -0.36043510723E+01 -0.36227298610E+02  0.36910214166E+02  0.00000000000E+00 0.  1.
</event>
<event>
 7    1  0.3662489E-015  0.9000768E+02  0.7816164E-02  0.1186339E+00
        -11   -1    0    0    0    0  0.00000000000E+00  0.00000000000E+00  0.45593999997E+02  0.45594000000E+02  0.51100000000E-03 0.  1.
         11   -1    0    0    0    0 -0.00000000000E+00 -0.00000000000E+00 -0.45593999997E+02  0.45594000000E+02  0.51100000000E-03 0. -1.
    9900012    2    1    2    0    0 -0.13706095736E+00  0.92894047372E+00 -0.71514494304E+00  0.90007682924E+02  0.89999943539E+02 0.  0.
        -12    1    1    2    0    0  0.13706095736E+00 -0.92894047372E+00  0.71514494304E+00  0.11803170758E+01  0.00000000000E+00 0.  1.
         11    1    3    3    0    0  0.29389641791E+01 -0.59997199755E+01 -0.72037649748E+01  0.98248857654E+01  0.51100000000E-03 0. -1.
        -11    1    3    3    0    0  0.31629315059E+02 -0.47060801246E+01 -0.17466921569E+02  0.36436988221E+02  0.51100000000E-03 0.  1.
         12    1    3    3    0    0 -0.34705340195E+02  0.11634740574E+02  0.23955541601E+02  0.43745808938E+02  0.00000000000E+00 0. -1.
</event>
<event>
 7    1  0.3662489E-015  0.9000776E+02  0.7816164E-02  0.1186339E+00
        -11   -1    0    0    0    0  0.00000000000E+00  0.00000000000E+00  0.45593999997E+02  0.45594000000E+02  0.51100000000E-03 0.  1.
         11   -1    0    0    0    0 -0.00000000000E+00 -0.00000000000E+00 -0.45593999997E+02  0.45594000000E+02  0.51100000000E-03 0. -1.
    9900012    2    1    2    0    0  0.62890235847E+00 -0.74722359111E+00 -0.66264177691E+00  0.90007764686E+02  0.90000026380E+02 0.  0.
        -12    1    1    2    0    0 -0.62890235847E+00  0.74722359111E+00  0.66264177691E+00  0.11802353139E+01  0.00000000000E+00 0.  1.
         11    1    3    3    0    0  0.15960406828E+02  0.86789545972E+01 -0.35189558182E+02  0.39602573708E+02  0.51100000000E-03 0. -1.
        -11    1    3    3    0    0 -0.78164336498E+01  0.18484578563E+01 -0.44205156910E+01  0.91681181648E+01  0.51100000000E-03 0.  1.
        -12    1    3    3    0    0 -0.75150708197E+01 -0.11274636045E+02  0.38947432096E+02  0.41237072813E+02  0.00000000000E+00 0.  1.
</event>
<event>
 7    1  0.3662489E-015  0.9000770E+02  0.7816164E-02  0.1186339E+00
        -11   -1    0    0    0    0  0.00000000000E+00  0.00000000000E+00  0.45593999997E+02  0.45594000000E+02  0.51100000000E-03 0. -1.
         11   -1    0    0    0    0 -0.00000000000E+00 -0.00000000000E+00 -0.45593999997E+02  0.45594000000E+02  0.51100000000E-03 0.  1.
    9900012    2    1    2    0    0  0.10976373290E+01  0.40006357881E+00 -0.16807362643E+00  0.90007700327E+02  0.89999961172E+02 0.  0.
        -12    1    1    2    0    0 -0.10976373290E+01 -0.40006357881E+00  0.16807362643E+00  0.11802996726E+01  0.00000000000E+00 0.  1.
         11    1    3    3    0    0  0.34157303776E+01 -0.41784990851E+02  0.42680457707E+01  0.42141059424E+02  0.51100000000E-03 0. -1.
        -11    1    3    3    0    0 -0.35854843995E+01  0.33290143939E+01  0.58752779778E+01  0.76457129682E+01  0.51100000000E-03 0.  1.
        -12    1    3    3    0    0  0.12673913509E+01  0.38856040036E+02 -0.10311397375E+02  0.40220927935E+02  0.00000000000E+00 0.  1.
</event>
<event>
 7    1  0.3662489E-015  0.9000777E+02  0.7816164E-02  0.1186339E+00
        -11   -1    0    0    0    0  0.00000000000E+00  0.00000000000E+00  0.45593999997E+02  0.45594000000E+02  0.51100000000E-03 0.  1.
         11   -1    0    0    0    0 -0.00000000000E+00 -0.00000000000E+00 -0.45593999997E+02  0.45594000000E+02  0.51100000000E-03 0. -1.
    9900012    2    1    2    0    0 -0.55441206727E+00  0.25988892987E+00 -0.10089747043E+01  0.90007769112E+02  0.90000030864E+02 0.  0.
        -12    1    1    2    0    0  0.55441206727E+00 -0.25988892987E+00  0.10089747043E+01  0.11802308885E+01  0.00000000000E+00 0.  1.
         11    1    3    3    0    0 -0.90977146631E+01 -0.53069290652E+01 -0.50940032630E-03  0.10532421788E+02  0.51100000000E-03 0. -1.
        -11    1    3    3    0    0  0.26113886573E+00 -0.16853878664E+02  0.33497762769E+02  0.37499620403E+02  0.51100000000E-03 0.  1.
         12    1    3    3    0    0  0.82821637301E+01  0.22420696659E+02 -0.34506228073E+02  0.41975726921E+02  0.00000000000E+00 0. -1.
</event>
<event>
 7    1  0.3662489E-015  0.9000764E+02  0.7816164E-02  0.1186339E+00
        -11   -1    0    0    0    0  0.00000000000E+00  0.00000000000E+00  0.45593999997E+02  0.45594000000E+02  0.51100000000E-03 0.  1.
         11   -1    0    0    0    0 -0.00000000000E+00 -0.00000000000E+00 -0.45593999997E+02  0.45594000000E+02  0.51100000000E-03 0. -1.
    9900012    2    1    2    0    0  0.72615558102E+00 -0.81255218402E+00 -0.45354080692E+00  0.90007643171E+02  0.89999903261E+02 0.  0.
        -12    1    1    2    0    0 -0.72615558102E+00  0.81255218402E+00  0.45354080692E+00  0.11803568287E+01  0.00000000000E+00 0.  1.
         11    1    3    3    0    0 -0.36707401667E+01 -0.39830116471E+02  0.78678732716E+01  0.40765376749E+02  0.51100000000E-03 0. -1.
        -11    1    3    3    0    0 -0.78327765773E+01  0.37769574391E+01  0.45085877335E+01  0.97951600303E+01  0.51100000000E-03 0.  1.
        -12    1    3    3    0    0  0.12229672325E+02  0.35240606848E+02 -0.12830001812E+02  0.39447106392E+02  0.00000000000E+00 0.  1.
</event>
<event>
 7    1  0.3662489E-015  0.9000788E+02  0.7816164E-02  0.1186339E+00
        -11   -1    0    0    0    0  0.00000000000E+00  0.00000000000E+00  0.45593999997E+02  0.45594000000E+02  0.51100000000E-03 0. -1.
         11   -1    0    0    0    0 -0.00000000000E+00 -0.00000000000E+00 -0.45593999997E+02  0.45594000000E+02  0.51100000000E-03 0.  1.
    9900012    2    1    2    0    0  0.72543161094E+00 -0.85910086140E+00  0.35831261731E+00  0.90007875751E+02  0.90000138910E+02 0.  0.
        -12    1    1    2    0    0 -0.72543161094E+00  0.85910086140E+00 -0.35831261731E+00  0.11801242494E+01  0.00000000000E+00 0.  1.
         11    1    3    3    0    0 -0.38486757689E+01 -0.51824854605E+01 -0.10642028847E+02  0.12446816419E+02  0.51100000000E-03 0. -1.
        -11    1    3    3    0    0  0.40716530093E+01 -0.54893661514E+01 -0.32374086902E+02  0.33087656338E+02  0.51100000000E-03 0.  1.
         12    1    3    3    0    0  0.50245437059E+00  0.98127507505E+01  0.43374428366E+02  0.44473402993E+02  0.00000000000E+00 0. -1.
</event>
<event>
 7    1  0.3662489E-015  0.9000774E+02  0.7816164E-02  0.1186339E+00
        -11   -1    0    0    0    0  0.00000000000E+00  0.00000000000E+00  0.45593999997E+02  0.45594000000E+02  0.51100000000E-03 0.  1.
         11   -1    0    0    0    0 -0.00000000000E+00 -0.00000000000E+00 -0.45593999997E+02  0.45594000000E+02  0.51100000000E-03 0. -1.
    9900012    2    1    2    0    0  0.71430063698E+00  0.30633164047E+00 -0.88822177957E+00  0.90007744772E+02  0.90000006203E+02 0.  0.
        -12    1    1    2    0    0 -0.71430063698E+00 -0.30633164047E+00  0.88822177957E+00  0.11802552282E+01  0.00000000000E+00 0.  1.
         11    1    3    3    0    0  0.81625038989E+00  0.35434153401E+01 -0.11830458318E+02  0.12376663574E+02  0.51100000000E-03 0. -1.
        -11    1    3    3    0    0  0.34551251152E+02 -0.92338101667E+01 -0.94328524254E+01  0.36986901891E+02  0.51100000000E-03 0.  1.
         12    1    3    3    0    0 -0.34653200904E+02  0.59967264671E+01  0.20375088963E+02  0.40644179307E+02  0.00000000000E+00 0. -1.
</event>
<event>
 7    1  0.3662489E-015  0.9000767E+02  0.7816164E-02  0.1186339E+00
        -11   -1    0    0    0    0  0.00000000000E+00  0.00000000000E+00  0.45593999997E+02  0.45594000000E+02  0.51100000000E-03 0.  1.
         11   -1    0    0    0    0 -0.00000000000E+00 -0.00000000000E+00 -0.45593999997E+02  0.45594000000E+02  0.51100000000E-03 0. -1.
    9900012    2    1    2    0    0 -0.25771015575E+00 -0.11253715968E+01 -0.24558507134E+00  0.90007666241E+02  0.89999926635E+02 0.  0.
        -12    1    1    2    0    0  0.25771015575E+00  0.11253715968E+01  0.24558507134E+00  0.11803337590E+01  0.00000000000E+00 0.  1.
         11    1    3    3    0    0 -0.87720799366E+01  0.77495945711E+01  0.91990467986E-01  0.11705300720E+02  0.51100000000E-03 0. -1.
        -11    1    3    3    0    0  0.29774450871E+02  0.24062314747E+02 -0.58069063488E+01  0.38719931266E+02  0.51100000000E-03 0.  1.
         12    1    3    3    0    0 -0.21260081090E+02 -0.32937280915E+02  0.54693308095E+01  0.39582434255E+02  0.00000000000E+00 0. -1.
</event>
<event>
 7    1  0.3662489E-015  0.9000810E+02  0.7816164E-02  0.1186338E+00
        -11   -1    0    0    0    0  0.00000000000E+00  0.00000000000E+00  0.45593999997E+02  0.45594000000E+02  0.51100000000E-03 0. -1.
         11   -1    0    0    0    0 -0.00000000000E+00 -0.00000000000E+00 -0.45593999997E+02  0.45594000000E+02  0.51100000000E-03 0.  1.
    9900012    2    1    2    0    0 -0.21191459575E-01 -0.99945710607E+00  0.62674587751E+00  0.90008095775E+02  0.90000361839E+02 0.  0.
        -12    1    1    2    0    0  0.21191459575E-01  0.99945710607E+00 -0.62674587751E+00  0.11799042248E+01  0.00000000000E+00 0.  1.
         11    1    3    3    0    0  0.31012647060E+01 -0.46553940203E+01  0.36629590128E+01  0.66863895528E+01  0.51100000000E-03 0. -1.
        -11    1    3    3    0    0 -0.33858582250E+02  0.56591478854E+01 -0.27501813076E+02  0.43986125875E+02  0.51100000000E-03 0.  1.
         12    1    3    3    0    0  0.30736126084E+02 -0.20032109712E+01  0.24465599940E+02  0.39335580348E+02  0.00000000000E+00 0. -1.
</event>
<event>
 7    1  0.3662489E-015  0.9000774E+02  0.7816164E-02  0.1186339E+00
        -11   -1    0    0    0    0  0.00000000000E+00  0.00000000000E+00  0.45593999997E+02  0.45594000000E+02  0.51100000000E-03 0. -1.
         11   -1    0    0    0    0 -0.00000000000E+00 -0.00000000000E+00 -0.45593999997E+02  0.45594000000E+02  0.51100000000E-03 0.  1.
    9900012    2    1    2    0    0 -0.38123748154E+00  0.10628522643E+01 -0.34352992910E+00  0.90007741653E+02  0.90000003043E+02 0.  0.
        -12    1    1    2    0    0  0.38123748154E+00 -0.10628522643E+01  0.34352992910E+00  0.11802583469E+01  0.00000000000E+00 0.  1.
         11    1    3    3    0    0 -0.92800133784E+01  0.36858103054E+01 -0.59982381915E+00  0.10003181233E+02  0.51100000000E-03 0. -1.
        -11    1    3    3    0    0 -0.94430181178E+01 -0.38512565669E+02 -0.12275928001E+01  0.39672349186E+02  0.51100000000E-03 0.  1.
         12    1    3    3    0    0  0.18341794015E+02  0.35889607628E+02  0.14838866901E+01  0.40332211234E+02  0.00000000000E+00 0. -1.
</event>
<event>
 7    1  0.3662489E-015  0.9000774E+02  0.7816164E-02  0.1186339E+00
        -11   -1    0    0    0    0  0.00000000000E+00  0.00000000000E+00  0.45593999997E+02  0.45594000000E+02  0.51100000000E-03 0.  1.
         11   -1    0    0    0    0 -0.00000000000E+00 -0.00000000000E+00 -0.45593999997E+02  0.45594000000E+02  0.51100000000E-03 0. -1.
    9900012    2    1    2    0    0 -0.11455854279E+01 -0.21546013129E+00  0.18497254477E+00  0.90007744145E+02  0.90000005568E+02 0.  0.
        -12    1    1    2    0    0  0.11455854279E+01  0.21546013129E+00 -0.18497254477E+00  0.11802558549E+01  0.00000000000E+00 0.  1.
         11    1    3    3    0    0 -0.68460141203E+01  0.56551078716E+01  0.66701480257E+01  0.11105810611E+02  0.51100000000E-03 0. -1.
        -11    1    3    3    0    0  0.44076424190E+01  0.22943120790E+02  0.26338166252E+02  0.35206719601E+02  0.51100000000E-03 0.  1.
         12    1    3    3    0    0  0.12927862734E+01 -0.28813688793E+02 -0.32823341733E+02  0.43695213934E+02  0.00000000000E+00 0. -1.
</event>
<event>
 7    1  0.3662489E-015  0.9000772E+02  0.7816164E-02  0.1186339E+00
        -11   -1    0    0    0    0  0.00000000000E+00  0.00000000000E+00  0.45593999997E+02  0.45594000000E+02  0.51100000000E-03 0.  1.
         11   -1    0    0    0    0 -0.00000000000E+00 -0.00000000000E+00 -0.45593999997E+02  0.45594000000E+02  0.51100000000E-03 0. -1.
    9900012    2    1    2    0    0  0.49392958564E+00  0.94448101821E+00 -0.50699081926E+00  0.90007724388E+02  0.89999985550E+02 0.  0.
        -12    1    1    2    0    0 -0.49392958564E+00 -0.94448101821E+00  0.50699081926E+00  0.11802756119E+01  0.00000000000E+00 0.  1.
         11    1    3    3    0    0 -0.51557086904E+01  0.34811293575E+02 -0.23341443223E+02  0.42228313541E+02  0.51100000000E-03 0. -1.
        -11    1    3    3    0    0  0.34801160893E+01 -0.73926563470E+01 -0.47773180952E+01  0.94649534761E+01  0.51100000000E-03 0.  1.
        -12    1    3    3    0    0  0.21695221868E+01 -0.26474156210E+02  0.27611770499E+02  0.38314457371E+02  0.00000000000E+00 0.  1.
</event>
<event>
 7    1  0.3662489E-015  0.9000777E+02  0.7816164E-02  0.1186339E+00
        -11   -1    0    0    0    0  0.00000000000E+00  0.00000000000E+00  0.45593999997E+02  0.45594000000E+02  0.51100000000E-03 0.  1.
         11   -1    0    0    0    0 -0.00000000000E+00 -0.00000000000E+00 -0.45593999997E+02  0.45594000000E+02  0.51100000000E-03 0. -1.
    9900012    2    1    2    0    0 -0.10302694375E+01 -0.42345090286E-01  0.57420032555E+00  0.90007765178E+02  0.90000026879E+02 0.  0.
        -12    1    1    2    0    0  0.10302694375E+01  0.42345090286E-01 -0.57420032555E+00  0.11802348217E+01  0.00000000000E+00 0.  1.
         11    1    3    3    0    0 -0.62467995296E+01  0.15664966352E+02 -0.36565049317E+02  0.40266816450E+02  0.51100000000E-03 0. -1.
        -11    1    3    3    0    0 -0.94381517081E+01 -0.31646518174E+01  0.27767394751E+01  0.10334602613E+02  0.51100000000E-03 0.  1.
        -12    1    3    3    0    0  0.14654681800E+02 -0.12542659625E+02  0.34362510168E+02  0.39406346115E+02  0.00000000000E+00 0.  1.
</event>
<event>
 7    1  0.3662489E-015  0.9000773E+02  0.7816164E-02  0.1186339E+00
        -11   -1    0    0    0    0  0.00000000000E+00  0.00000000000E+00  0.45593999997E+02  0.45594000000E+02  0.51100000000E-03 0.  1.
         11   -1    0    0    0    0 -0.00000000000E+00 -0.00000000000E+00 -0.45593999997E+02  0.45594000000E+02  0.51100000000E-03 0. -1.
    9900012    2    1    2    0    0 -0.94243351105E+00  0.26762821270E+00 -0.65820041061E+00  0.90007731571E+02  0.89999992828E+02 0.  0.
        -12    1    1    2    0    0  0.94243351105E+00 -0.26762821270E+00  0.65820041061E+00  0.11802684286E+01  0.00000000000E+00 0.  1.
         11    1    3    3    0    0  0.19929659652E+02  0.13077876155E+02 -0.26802576842E+02  0.35869211090E+02  0.51100000000E-03 0. -1.
        -11    1    3    3    0    0 -0.33906059387E+01 -0.17477773795E+02 -0.46688107465E+01  0.18405612718E+02  0.51100000000E-03 0.  1.
        -12    1    3    3    0    0 -0.17481487224E+02  0.46675258532E+01  0.30813187178E+02  0.35732907763E+02  0.00000000000E+00 0.  1.
</event>
<event>
 7    1  0.3662489E-015  0.9000779E+02  0.7816164E-02  0.1186339E+00
        -11   -1    0    0    0    0  0.00000000000E+00  0.00000000000E+00  0.45593999997E+02  0.45594000000E+02  0.51100000000E-03 0.  1.
         11   -1    0    0    0    0 -0.00000000000E+00 -0.00000000000E+00 -0.45593999997E+02  0.45594000000E+02  0.51100000000E-03 0. -1.
    9900012    2    1    2    0    0 -0.63377622493E+00 -0.79866221695E+00 -0.59444532797E+00  0.90007788626E+02  0.90000050636E+02 0.  0.
        -12    1    1    2    0    0  0.63377622493E+00  0.79866221695E+00  0.59444532797E+00  0.11802113743E+01  0.00000000000E+00 0.  1.
         11    1    3    3    0    0  0.27475912325E+02 -0.14108319425E+02 -0.13979108134E+02  0.33902594290E+02  0.51100000000E-03 0. -1.
        -11    1    3    3    0    0  0.10862474295E+02  0.29053108494E+01 -0.43306256105E+01  0.12049418964E+02  0.51100000000E-03 0.  1.
        -12    1    3    3    0    0 -0.38972162844E+02  0.10404346359E+02  0.17715288417E+02  0.44055775372E+02  0.00000000000E+00 0.  1.
</event>
<event>
 7    1  0.3662489E-015  0.9000773E+02  0.7816164E-02  0.1186339E+00
        -11   -1    0    0    0    0  0.00000000000E+00  0.00000000000E+00  0.45593999997E+02  0.45594000000E+02  0.51100000000E-03 0.  1.
         11   -1    0    0    0    0 -0.00000000000E+00 -0.00000000000E+00 -0.45593999997E+02  0.45594000000E+02  0.51100000000E-03 0. -1.
    9900012    2    1    2    0    0  0.68191643411E+00 -0.77208237582E+00 -0.57612664641E+00  0.90007727518E+02  0.89999988722E+02 0.  0.
        -12    1    1    2    0    0 -0.68191643411E+00  0.77208237582E+00  0.57612664641E+00  0.11802724816E+01  0.00000000000E+00 0.  1.
         11    1    3    3    0    0 -0.28507627474E+02  0.38434215122E+01 -0.20960027862E+02  0.35591845715E+02  0.51100000000E-03 0. -1.
        -11    1    3    3    0    0 -0.66483981940E+01 -0.30148854127E+01 -0.63508001629E+01  0.96759183321E+01  0.51100000000E-03 0.  1.
        -12    1    3    3    0    0  0.35837942102E+02 -0.16006184753E+01  0.26734701379E+02  0.44739963472E+02  0.00000000000E+00 0.  1.
</event>
<event>
 7    1  0.3662489E-015  0.9000774E+02  0.7816164E-02  0.1186339E+00
        -11   -1    0    0    0    0  0.00000000000E+00  0.00000000000E+00  0.45593999997E+02  0.45594000000E+02  0.51100000000E-03 0.  1.
         11   -1    0    0    0    0 -0.00000000000E+00 -0.00000000000E+00 -0.45593999997E+02  0.45594000000E+02  0.51100000000E-03 0. -1.
    9900012    2    1    2    0    0  0.19254638547E+00  0.98629482210E+00  0.61899195065E+00  0.90007744679E+02  0.90000006109E+02 0.  0.
        -12    1    1    2    0    0 -0.19254638547E+00 -0.98629482210E+00 -0.61899195065E+00  0.11802553205E+01  0.00000000000E+00 0.  1.
         11    1    3    3    0    0 -0.26855198220E+02 -0.10645157136E+02 -0.19710809514E+02  0.34971946670E+02  0.51100000000E-03 0. -1.
        -11    1    3    3    0    0 -0.94029100060E+01  0.77928843667E+00 -0.36036966605E+01  0.10099932521E+02  0.51100000000E-03 0.  1.
        -12    1    3    3    0    0  0.36450654612E+02  0.10852163522E+02  0.23933498125E+02  0.44935865489E+02  0.00000000000E+00 0.  1.
</event>
<event>
 7    1  0.3662489E-015  0.9000773E+02  0.7816164E-02  0.1186339E+00
        -11   -1    0    0    0    0  0.00000000000E+00  0.00000000000E+00  0.45593999997E+02  0.45594000000E+02  0.51100000000E-03 0.  1.
         11   -1    0    0    0    0 -0.00000000000E+00 -0.00000000000E+00 -0.45593999997E+02  0.45594000000E+02  0.51100000000E-03 0. -1.
    9900012    2    1    2    0    0 -0.29471367965E+00 -0.18707775275E+00 -0.11274660790E+01  0.90007731387E+02  0.89999992642E+02 0.  0.
        -12    1    1    2    0    0  0.29471367965E+00  0.18707775275E+00  0.11274660790E+01  0.11802686126E+01  0.00000000000E+00 0.  1.
         11    1    3    3    0    0  0.55155373696E+01  0.52746445486E+01 -0.30013079262E+01  0.82006632121E+01  0.51100000000E-03 0. -1.
        -11    1    3    3    0    0  0.27778405851E+02  0.24178720484E+02  0.34028063737E+01  0.36984178338E+02  0.51100000000E-03 0.  1.
         12    1    3    3    0    0 -0.33588656900E+02 -0.29640442785E+02 -0.15289645265E+01  0.44822889837E+02  0.00000000000E+00 0. -1.
</event>
<event>
 7    1  0.3662489E-015  0.9000776E+02  0.7816164E-02  0.1186339E+00
        -11   -1    0    0    0    0  0.00000000000E+00  0.00000000000E+00  0.45593999997E+02  0.45594000000E+02  0.51100000000E-03 0.  1.
         11   -1    0    0    0    0 -0.00000000000E+00 -0.00000000000E+00 -0.45593999997E+02  0.45594000000E+02  0.51100000000E-03 0. -1.
    9900012    2    1    2    0    0  0.52382597588E+00 -0.94753304185E+00 -0.46985338580E+00  0.90007756499E+02  0.90000018084E+02 0.  0.
        -12    1    1    2    0    0 -0.52382597588E+00  0.94753304185E+00  0.46985338580E+00  0.11802435014E+01  0.00000000000E+00 0.  1.
         11    1    3    3    0    0  0.66236486243E+01 -0.65407063811E+01  0.16097094450E+01  0.94469426705E+01  0.51100000000E-03 0. -1.
        -11    1    3    3    0    0 -0.24206406484E+02 -0.24886944479E+02  0.18734489950E+02  0.39449857216E+02  0.51100000000E-03 0.  1.
         12    1    3    3    0    0  0.18106583836E+02  0.30480117818E+02 -0.20814052781E+02  0.41110956612E+02  0.00000000000E+00 0. -1.
</event>
<event>
 7    1  0.3662489E-015  0.9000770E+02  0.7816164E-02  0.1186339E+00
        -11   -1    0    0    0    0  0.00000000000E+00  0.00000000000E+00  0.45593999997E+02  0.45594000000E+02  0.51100000000E-03 0. -1.
         11   -1    0    0    0    0 -0.00000000000E+00 -0.00000000000E+00 -0.45593999997E+02  0.45594000000E+02  0.51100000000E-03 0.  1.
    9900012    2    1    2    0    0 -0.68155659574E+00 -0.18841961384E+00  0.94503755771E+00  0.90007696086E+02  0.89999956874E+02 0.  0.
        -12    1    1    2    0    0  0.68155659574E+00  0.18841961384E+00 -0.94503755771E+00  0.11803039141E+01  0.00000000000E+00 0.  1.
         11    1    3    3    0    0  0.53592646447E+01 -0.43230223379E+01 -0.48679418378E+01  0.84325024556E+01  0.51100000000E-03 0. -1.
        -11    1    3    3    0    0 -0.33823081435E+02 -0.59177392386E+01 -0.22177892656E+02  0.40876391699E+02  0.51100000000E-03 0.  1.
         12    1    3    3    0    0  0.27782260194E+02  0.10052341963E+02  0.27990872051E+02  0.40698801931E+02  0.00000000000E+00 0. -1.
</event>
<event>
 7    1  0.3662489E-015  0.9000774E+02  0.7816164E-02  0.1186339E+00
        -11   -1    0    0    0    0  0.00000000000E+00  0.00000000000E+00  0.45593999997E+02  0.45594000000E+02  0.51100000000E-03 0. -1.
         11   -1    0    0    0    0 -0.00000000000E+00 -0.00000000000E+00 -0.45593999997E+02  0.45594000000E+02  0.51100000000E-03 0.  1.
    9900012    2    1    2    0    0 -0.99582554333E+00 -0.58784389755E+00 -0.23617223371E+00  0.90007743128E+02  0.90000004537E+02 0.  0.
        -12    1    1    2    0    0  0.99582554333E+00  0.58784389755E+00  0.23617223371E+00  0.11802568723E+01  0.00000000000E+00 0.  1.
         11    1    3    3    0    0  0.74629957189E+01  0.32704564158E+01 -0.44701248531E+01  0.92937724704E+01  0.51100000000E-03 0. -1.
        -11    1    3    3    0    0 -0.47342874397E+01  0.20161670600E+02 -0.31378608450E+02  0.37596855021E+02  0.51100000000E-03 0.  1.
         12    1    3    3    0    0 -0.37245338225E+01 -0.24019970913E+02  0.35612561070E+02  0.43117115636E+02  0.00000000000E+00 0. -1.
</event>
<event>
 7    1  0.3662489E-015  0.9000778E+02  0.7816164E-02  0.1186339E+00
        -11   -1    0    0    0    0  0.00000000000E+00  0.00000000000E+00  0.45593999997E+02  0.45594000000E+02  0.51100000000E-03 0.  1.
         11   -1    0    0    0    0 -0.00000000000E+00 -0.00000000000E+00 -0.45593999997E+02  0.45594000000E+02  0.51100000000E-03 0. -1.
    9900012    2    1    2    0    0  0.12929897758E+00  0.22494777022E+00 -0.11513455660E+01  0.90007781233E+02  0.90000043146E+02 0.  0.
        -12    1    1    2    0    0 -0.12929897758E+00 -0.22494777022E+00  0.11513455660E+01  0.11802187667E+01  0.00000000000E+00 0.  1.
         11    1    3    3    0    0  0.18328580682E+02  0.43755758777E+01 -0.32273265407E+02  0.37371729883E+02  0.51100000000E-03 0. -1.
        -11    1    3    3    0    0  0.15139813884E+01  0.89542266902E+01 -0.42877677394E+01  0.10042672339E+02  0.51100000000E-03 0.  1.
        -12    1    3    3    0    0 -0.19713263093E+02 -0.13104854798E+02  0.35409687581E+02  0.42593379012E+02  0.00000000000E+00 0.  1.
</event>
<event>
 7    1  0.3662489E-015  0.9000777E+02  0.7816164E-02  0.1186339E+00
        -11   -1    0    0    0    0  0.00000000000E+00  0.00000000000E+00  0.45593999997E+02  0.45594000000E+02  0.51100000000E-03 0.  1.
         11   -1    0    0    0    0 -0.00000000000E+00 -0.00000000000E+00 -0.45593999997E+02  0.45594000000E+02  0.51100000000E-03 0. -1.
    9900012    2    1    2    0    0  0.79101357162E+00  0.10444288311E+00 -0.86967811523E+00  0.90007766629E+02  0.90000028348E+02 0.  0.
        -12    1    1    2    0    0 -0.79101357162E+00 -0.10444288311E+00  0.86967811523E+00  0.11802333712E+01  0.00000000000E+00 0.  1.
         11    1    3    3    0    0 -0.72410219297E+01 -0.25449319109E+02 -0.26976496221E+02  0.37786658893E+02  0.51100000000E-03 0. -1.
        -11    1    3    3    0    0  0.37028011215E+01  0.23894554853E+01 -0.89522761626E+01  0.99781502501E+01  0.51100000000E-03 0.  1.
        -12    1    3    3    0    0  0.43292343798E+01  0.23164306507E+02  0.35059094268E+02  0.42242957486E+02  0.00000000000E+00 0.  1.
</event>
<event>
 7    1  0.3662489E-015  0.9000753E+02  0.7816164E-02  0.1186339E+00
        -11   -1    0    0    0    0  0.00000000000E+00  0.00000000000E+00  0.45593999997E+02  0.45594000000E+02  0.51100000000E-03 0.  1.
         11   -1    0    0    0    0 -0.00000000000E+00 -0.00000000000E+00 -0.45593999997E+02  0.45594000000E+02  0.51100000000E-03 0. -1.
    9900012    2    1    2    0    0  0.10004382580E+01 -0.44810739666E+00 -0.43798460871E+00  0.90007530829E+02  0.89999789435E+02 0.  0.
        -12    1    1    2    0    0 -0.10004382580E+01  0.44810739666E+00  0.43798460871E+00  0.11804691714E+01  0.00000000000E+00 0.  1.
         11    1    3    3    0    0 -0.14542990172E+01  0.84743288609E+01  0.47328973852E+01  0.98147620040E+01  0.51100000000E-03 0. -1.
        -11    1    3    3    0    0 -0.31248782989E+02 -0.23678922608E+02  0.98933921103E+01  0.40435838335E+02  0.51100000000E-03 0.  1.
         12    1    3    3    0    0  0.33703520265E+02  0.14756486350E+02 -0.15064274104E+02  0.39756930489E+02  0.00000000000E+00 0. -1.
</event>
<event>
 7    1  0.3662489E-015  0.9000772E+02  0.7816164E-02  0.1186339E+00
        -11   -1    0    0    0    0  0.00000000000E+00  0.00000000000E+00  0.45593999997E+02  0.45594000000E+02  0.51100000000E-03 0.  1.
         11   -1    0    0    0    0 -0.00000000000E+00 -0.00000000000E+00 -0.45593999997E+02  0.45594000000E+02  0.51100000000E-03 0. -1.
    9900012    2    1    2    0    0  0.10857448071E+00  0.37313959723E+00 -0.11144663629E+01  0.90007721706E+02  0.89999982833E+02 0.  0.
        -12    1    1    2    0    0 -0.10857448071E+00 -0.37313959723E+00  0.11144663629E+01  0.11802782938E+01  0.00000000000E+00 0.  1.
         11    1    3    3    0    0 -0.37748875796E+02  0.15008916352E+02  0.39576516311E+01  0.40815538715E+02  0.51100000000E-03 0. -1.
        -11    1    3    3    0    0  0.27937146335E+01 -0.50738922326E+01  0.85939338565E+01  0.10363634654E+02  0.51100000000E-03 0.  1.
        -12    1    3    3    0    0  0.35063735643E+02 -0.95618845220E+01 -0.13666051850E+02  0.38828548338E+02  0.00000000000E+00 0.  1.
</event>
<event>
 7    1  0.3662489E-015  0.9000784E+02  0.7816164E-02  0.1186339E+00
        -11   -1    0    0    0    0  0.00000000000E+00  0.00000000000E+00  0.45593999997E+02  0.45594000000E+02  0.51100000000E-03 0. -1.
         11   -1    0    0    0    0 -0.00000000000E+00 -0.00000000000E+00 -0.45593999997E+02  0.45594000000E+02  0.51100000000E-03 0.  1.
    9900012    2    1    2    0    0 -0.16828753738E+00 -0.11421156711E+01 -0.24499689364E+00  0.90007842223E+02  0.90000104940E+02 0.  0.
        -12    1    1    2    0    0  0.16828753738E+00  0.11421156711E+01  0.24499689364E+00  0.11801577773E+01  0.00000000000E+00 0.  1.
         11    1    3    3    0    0 -0.29291024663E+01  0.31645415170E+01 -0.81027970165E+01  0.91787408734E+01  0.51100000000E-03 0. -1.
        -11    1    3    3    0    0  0.14677659988E+02  0.29453548661E+02 -0.17197580959E+02  0.37130876943E+02  0.51100000000E-03 0.  1.
         12    1    3    3    0    0 -0.11916845059E+02 -0.33760205849E+02  0.25055381082E+02  0.43698224406E+02  0.00000000000E+00 0. -1.
</event>
<event>
 7    1  0.3662489E-015  0.9000774E+02  0.7816164E-02  0.1186339E+00
        -11   -1    0    0    0    0  0.00000000000E+00  0.00000000000E+00  0.45593999997E+02  0.45594000000E+02  0.51100000000E-03 0.  1.
         11   -1    0    0    0    0 -0.00000000000E+00 -0.00000000000E+00 -0.45593999997E+02  0.45594000000E+02  0.51100000000E-03 0. -1.
    9900012    2    1    2    0    0 -0.14350519395E+00 -0.88380736561E+00 -0.76896736694E+00  0.90007737312E+02  0.89999998645E+02 0.  0.
        -12    1    1    2    0    0  0.14350519395E+00  0.88380736561E+00  0.76896736694E+00  0.11802626875E+01  0.00000000000E+00 0.  1.
         11    1    3    3    0    0  0.83320915973E+00 -0.88145578809E+01  0.13441524480E+01  0.89553008997E+01  0.51100000000E-03 0. -1.
        -11    1    3    3    0    0  0.91960564759E+01  0.18099948400E+02  0.35437555757E+02  0.40841106071E+02  0.51100000000E-03 0.  1.
         12    1    3    3    0    0 -0.10172770830E+02 -0.10169197885E+02 -0.37550675572E+02  0.40211330342E+02  0.00000000000E+00 0. -1.
</event>
<event>
 7    1  0.3662489E-015  0.9000774E+02  0.7816164E-02  0.1186339E+00
        -11   -1    0    0    0    0  0.00000000000E+00  0.00000000000E+00  0.45593999997E+02  0.45594000000E+02  0.51100000000E-03 0.  1.
         11   -1    0    0    0    0 -0.00000000000E+00 -0.00000000000E+00 -0.45593999997E+02  0.45594000000E+02  0.51100000000E-03 0. -1.
    9900012    2    1    2    0    0 -0.32340283021E+00 -0.11323460822E+01  0.78833454886E-01  0.90007740811E+02  0.90000002189E+02 0.  0.
        -12    1    1    2    0    0  0.32340283021E+00  0.11323460822E+01 -0.78833454886E-01  0.11802591894E+01  0.00000000000E+00 0.  1.
         11    1    3    3    0    0 -0.54302865786E+01  0.34370322015E+01 -0.36279195457E+02  0.36844012077E+02  0.51100000000E-03 0. -1.
        -11    1    3    3    0    0  0.11529478706E+01  0.42353569660E+01 -0.72636965244E+01  0.84869797268E+01  0.51100000000E-03 0.  1.
        -12    1    3    3    0    0  0.39539358778E+01 -0.88047352497E+01  0.43621725436E+02  0.44676749007E+02  0.00000000000E+00 0.  1.
</event>
<event>
 7    1  0.3662489E-015  0.9000769E+02  0.7816164E-02  0.1186339E+00
        -11   -1    0    0    0    0  0.00000000000E+00  0.00000000000E+00  0.45593999997E+02  0.45594000000E+02  0.51100000000E-03 0.  1.
         11   -1    0    0    0    0 -0.00000000000E+00 -0.00000000000E+00 -0.45593999997E+02  0.45594000000E+02  0.51100000000E-03 0. -1.
    9900012    2    1    2    0    0  0.69270613936E+00  0.93965012371E+00  0.17423579123E+00  0.90007685524E+02  0.89999946173E+02 0.  0.
        -12    1    1    2    0    0 -0.69270613936E+00 -0.93965012371E+00 -0.17423579123E+00  0.11803144757E+01  0.00000000000E+00 0.  1.
         11    1    3    3    0    0 -0.80265974158E+01 -0.48317477583E+01  0.15298631304E+01  0.94927621867E+01  0.51100000000E-03 0. -1.
        -11    1    3    3    0    0 -0.32174325206E+02 -0.20012225986E+01  0.15296960090E+02  0.35681775216E+02  0.51100000000E-03 0.  1.
         12    1    3    3    0    0  0.40893628761E+02  0.77726204806E+01 -0.16652587429E+02  0.44833148121E+02  0.00000000000E+00 0. -1.
</event>
<event>
 7    1  0.3662489E-015  0.9000760E+02  0.7816164E-02  0.1186339E+00
        -11   -1    0    0    0    0  0.00000000000E+00  0.00000000000E+00  0.45593999997E+02  0.45594000000E+02  0.51100000000E-03 0.  1.
         11   -1    0    0    0    0 -0.00000000000E+00 -0.00000000000E+00 -0.45593999997E+02  0.45594000000E+02  0.51100000000E-03 0. -1.
    9900012    2    1    2    0    0  0.89403039319E+00  0.76853172937E+00  0.58354439985E-01  0.90007603201E+02  0.89999862763E+02 0.  0.
        -12    1    1    2    0    0 -0.89403039319E+00 -0.76853172937E+00 -0.58354439985E-01  0.11803967992E+01  0.00000000000E+00 0.  1.
         11    1    3    3    0    0  0.21884331085E+01  0.69369285145E+01  0.67301218551E+01  0.99098313372E+01  0.51100000000E-03 0. -1.
        -11    1    3    3    0    0  0.26228340695E+02 -0.12502403092E+02  0.24520439926E+02  0.38019572763E+02  0.51100000000E-03 0.  1.
         12    1    3    3    0    0 -0.27522743410E+02  0.63340063072E+01 -0.31192207341E+02  0.42078199100E+02  0.00000000000E+00 0. -1.
</event>
<event>
 7    1  0.3662489E-015  0.9000779E+02  0.7816164E-02  0.1186339E+00
        -11   -1    0    0    0    0  0.00000000000E+00  0.00000000000E+00  0.45593999997E+02  0.45594000000E+02  0.51100000000E-03 0.  1.
         11   -1    0    0    0    0 -0.00000000000E+00 -0.00000000000E+00 -0.45593999997E+02  0.45594000000E+02  0.51100000000E-03 0. -1.
    9900012    2    1    2    0    0  0.20436594587E+00  0.87174816604E+00 -0.76888000981E+00  0.90007793758E+02  0.90000055835E+02 0.  0.
        -12    1    1    2    0    0 -0.20436594587E+00 -0.87174816604E+00  0.76888000981E+00  0.11802062423E+01  0.00000000000E+00 0.  1.
         11    1    3    3    0    0 -0.18572941081E+02 -0.11488589252E+02 -0.34928064248E+02  0.41193585614E+02  0.51100000000E-03 0. -1.
        -11    1    3    3    0    0  0.74792669817E+01  0.40619049776E+01 -0.30585806580E+01  0.90439716128E+01  0.51100000000E-03 0.  1.
        -12    1    3    3    0    0  0.11298040045E+02  0.82984324405E+01  0.37217764896E+02  0.39770236531E+02  0.00000000000E+00 0.  1.
</event>
<event>
 7    1  0.3662489E-015  0.9000770E+02  0.7816164E-02  0.1186339E+00
        -11   -1    0    0    0    0  0.00000000000E+00  0.00000000000E+00  0.45593999997E+02  0.45594000000E+02  0.51100000000E-03 0. -1.
         11   -1    0    0    0    0 -0.00000000000E+00 -0.00000000000E+00 -0.45593999997E+02  0.45594000000E+02  0.51100000000E-03 0.  1.
    9900012    2    1    2    0    0  0.29204874001E+00  0.60064883663E+00  0.97315939904E+00  0.90007698891E+02  0.89999959717E+02 0.  0.
        -12    1    1    2    0    0 -0.29204874001E+00 -0.60064883663E+00 -0.97315939904E+00  0.11803011088E+01  0.00000000000E+00 0.  1.
         11    1    3    3    0    0  0.11370945429E+02 -0.28931231205E+01 -0.17039768439E+01  0.11856310500E+02  0.51100000000E-03 0. -1.
        -11    1    3    3    0    0 -0.97570263821E+01 -0.34821112147E+02 -0.10427825913E+02  0.37635740573E+02  0.51100000000E-03 0.  1.
         12    1    3    3    0    0 -0.13218703064E+01  0.38314884104E+02  0.13104962156E+02  0.40515647818E+02  0.00000000000E+00 0. -1.
</event>
<event>
 7    1  0.3662489E-015  0.9000782E+02  0.7816164E-02  0.1186339E+00
        -11   -1    0    0    0    0  0.00000000000E+00  0.00000000000E+00  0.45593999997E+02  0.45594000000E+02  0.51100000000E-03 0.  1.
         11   -1    0    0    0    0 -0.00000000000E+00 -0.00000000000E+00 -0.45593999997E+02  0.45594000000E+02  0.51100000000E-03 0. -1.
    9900012    2    1    2    0    0 -0.17907788944E+00 -0.96000741378E+00 -0.66268526365E+00  0.90007815742E+02  0.90000078109E+02 0.  0.
        -12    1    1    2    0    0  0.17907788944E+00  0.96000741378E+00  0.66268526365E+00  0.11801842583E+01  0.00000000000E+00 0.  1.
         11    1    3    3    0    0  0.14929045313E+02 -0.17216781887E+02 -0.32897579779E+02  0.40019304443E+02  0.51100000000E-03 0. -1.
        -11    1    3    3    0    0  0.16495134024E+01 -0.82333678122E+01  0.54283659763E+01  0.99988198018E+01  0.51100000000E-03 0.  1.
        -12    1    3    3    0    0 -0.16757636605E+02  0.24490142285E+02  0.26806528539E+02  0.39989691497E+02  0.00000000000E+00 0.  1.
</event>
<event>
 7    1  0.3662489E-015  0.9000783E+02  0.7816164E-02  0.1186339E+00
        -11   -1    0    0    0    0  0.00000000000E+00  0.00000000000E+00  0.45593999997E+02  0.45594000000E+02  0.51100000000E-03 0.  1.
         11   -1    0    0    0    0 -0.00000000000E+00 -0.00000000000E+00 -0.45593999997E+02  0.45594000000E+02  0.51100000000E-03 0. -1.
    9900012    2    1    2    0    0 -0.20836816818E+00  0.11563455249E+01 -0.11066761078E+00  0.90007830696E+02  0.90000093261E+02 0.  0.
        -12    1    1    2    0    0  0.20836816818E+00 -0.11563455249E+01  0.11066761078E+00  0.11801693042E+01  0.00000000000E+00 0.  1.
         11    1    3    3    0    0 -0.81078354624E+01 -0.16286847846E+02 -0.34421569575E+02  0.38933826693E+02  0.51100000000E-03 0. -1.
        -11    1    3    3    0    0  0.21579627450E+01  0.71087395813E+01 -0.56931334333E+01  0.93596340844E+01  0.51100000000E-03 0.  1.
        -12    1    3    3    0    0  0.57415045492E+01  0.10334453790E+02  0.40004035398E+02  0.41714369919E+02  0.00000000000E+00 0.  1.
</event>
<event>
 7    1  0.3662489E-015  0.9000769E+02  0.7816164E-02  0.1186339E+00
        -11   -1    0    0    0    0  0.00000000000E+00  0.00000000000E+00  0.45593999997E+02  0.45594000000E+02  0.51100000000E-03 0.  1.
         11   -1    0    0    0    0 -0.00000000000E+00 -0.00000000000E+00 -0.45593999997E+02  0.45594000000E+02  0.51100000000E-03 0. -1.
    9900012    2    1    2    0    0 -0.16452317291E+00  0.82055449549E+00 -0.83231146797E+00  0.90007694983E+02  0.89999955756E+02 0.  0.
        -12    1    1    2    0    0  0.16452317291E+00 -0.82055449549E+00  0.83231146797E+00  0.11803050174E+01  0.00000000000E+00 0.  1.
         11    1    3    3    0    0 -0.26031813536E+01  0.13782983229E+02 -0.62129823321E+01  0.15341066768E+02  0.51100000000E-03 0. -1.
        -11    1    3    3    0    0  0.15270605429E+02 -0.15025589080E+00  0.35986296839E+02  0.39092550793E+02  0.51100000000E-03 0.  1.
         12    1    3    3    0    0 -0.12831947248E+02 -0.12812172843E+02 -0.30605625975E+02  0.35574077422E+02  0.00000000000E+00 0. -1.
</event>
<event>
 7    1  0.3662489E-015  0.9000771E+02  0.7816164E-02  0.1186339E+00
        -11   -1    0    0    0    0  0.00000000000E+00  0.00000000000E+00  0.45593999997E+02  0.45594000000E+02  0.51100000000E-03 0.  1.
         11   -1    0    0    0    0 -0.00000000000E+00 -0.00000000000E+00 -0.45593999997E+02  0.45594000000E+02  0.51100000000E-03 0. -1.
    9900012    2    1    2    0    0  0.11031339246E+01 -0.40743727192E+00 -0.10084836045E+00  0.90007711909E+02  0.89999972906E+02 0.  0.
        -12    1    1    2    0    0 -0.11031339246E+01  0.40743727192E+00  0.10084836045E+00  0.11802880911E+01  0.00000000000E+00 0.  1.
         11    1    3    3    0    0 -0.31882962038E+02  0.49389921591E+01 -0.14857400791E+02  0.35519843333E+02  0.51100000000E-03 0. -1.
        -11    1    3    3    0    0 -0.62829913423E+01  0.76110719003E+01 -0.16388898802E+01  0.10004516779E+02  0.51100000000E-03 0.  1.
        -12    1    3    3    0    0  0.39269087305E+02 -0.12957501331E+02  0.16395442311E+02  0.44483351797E+02  0.00000000000E+00 0.  1.
</event>
<event>
 7    1  0.3662489E-015  0.9000777E+02  0.7816164E-02  0.1186339E+00
        -11   -1    0    0    0    0  0.00000000000E+00  0.00000000000E+00  0.45593999997E+02  0.45594000000E+02  0.51100000000E-03 0. -1.
         11   -1    0    0    0    0 -0.00000000000E+00 -0.00000000000E+00 -0.45593999997E+02  0.45594000000E+02  0.51100000000E-03 0.  1.
    9900012    2    1    2    0    0 -0.54090259356E+00 -0.77636949652E+00  0.70542022767E+00  0.90007769976E+02  0.90000031740E+02 0.  0.
        -12    1    1    2    0    0  0.54090259356E+00  0.77636949652E+00 -0.70542022767E+00  0.11802300235E+01  0.00000000000E+00 0.  1.
         11    1    3    3    0    0  0.68228272183E+01 -0.66587498605E+01  0.29570224873E+00  0.95382053363E+01  0.51100000000E-03 0. -1.
        -11    1    3    3    0    0 -0.47429122221E+01 -0.36497226287E+02 -0.67257601588E+01  0.37413615075E+02  0.51100000000E-03 0.  1.
         12    1    3    3    0    0 -0.26208175898E+01  0.42379606651E+02  0.71354781377E+01  0.43055949565E+02  0.00000000000E+00 0. -1.
</event>
<event>
 7    1  0.3662489E-015  0.9000772E+02  0.7816164E-02  0.1186339E+00
        -11   -1    0    0    0    0  0.00000000000E+00  0.00000000000E+00  0.45593999997E+02  0.45594000000E+02  0.51100000000E-03 0.  1.
         11   -1    0    0    0    0 -0.00000000000E+00 -0.00000000000E+00 -0.45593999997E+02  0.45594000000E+02  0.51100000000E-03 0. -1.
    9900012    2    1    2    0    0 -0.37785417300E+00 -0.51555734598E+00 -0.99220866211E+00  0.90007724108E+02  0.89999985266E+02 0.  0.
        -12    1    1    2    0    0  0.37785417300E+00  0.51555734598E+00  0.99220866211E+00  0.11802758924E+01  0.00000000000E+00 0.  1.
         11    1    3    3    0    0  0.19490980859E+02  0.28809919551E+02 -0.23865405293E+02  0.42183733469E+02  0.51100000000E-03 0. -1.
        -11    1    3    3    0    0 -0.14688682023E+01 -0.97380199100E+01 -0.32249881723E+01  0.10362777356E+02  0.51100000000E-03 0.  1.
        -12    1    3    3    0    0 -0.18399966829E+02 -0.19587456987E+02  0.26098184803E+02  0.37461213282E+02  0.00000000000E+00 0.  1.
</event>
<event>
 7    1  0.3662489E-015  0.9000810E+02  0.7816164E-02  0.1186338E+00
        -11   -1    0    0    0    0  0.00000000000E+00  0.00000000000E+00  0.45593999997E+02  0.45594000000E+02  0.51100000000E-03 0. -1.
         11   -1    0    0    0    0 -0.00000000000E+00 -0.00000000000E+00 -0.45593999997E+02  0.45594000000E+02  0.51100000000E-03 0.  1.
    9900012    2    1    2    0    0  0.10749348688E+01  0.86704978180E-01  0.47870486779E+00  0.90008101243E+02  0.90000367379E+02 0.  0.
        -12    1    1    2    0    0 -0.10749348688E+01 -0.86704978180E-01 -0.47870486779E+00  0.11798987566E+01  0.00000000000E+00 0.  1.
         11    1    3    3    0    0  0.12776626715E+02  0.13463692320E+01  0.59262422806E+00  0.12861030443E+02  0.51100000000E-03 0. -1.
        -11    1    3    3    0    0 -0.19057869456E+02 -0.29251126176E+02  0.21521471173E+02  0.41012248079E+02  0.51100000000E-03 0.  1.
         12    1    3    3    0    0  0.73561776099E+01  0.27991461922E+02 -0.21635390534E+02  0.36134822722E+02  0.00000000000E+00 0. -1.
</event>
<event>
 7    1  0.3662489E-015  0.9000772E+02  0.7816164E-02  0.1186339E+00
        -11   -1    0    0    0    0  0.00000000000E+00  0.00000000000E+00  0.45593999997E+02  0.45594000000E+02  0.51100000000E-03 0.  1.
         11   -1    0    0    0    0 -0.00000000000E+00 -0.00000000000E+00 -0.45593999997E+02  0.45594000000E+02  0.51100000000E-03 0. -1.
    9900012    2    1    2    0    0  0.29624357884E+00 -0.96933451238E+00 -0.60472931132E+00  0.90007717324E+02  0.89999978393E+02 0.  0.
        -12    1    1    2    0    0 -0.29624357884E+00  0.96933451238E+00  0.60472931132E+00  0.11802826758E+01  0.00000000000E+00 0.  1.
         11    1    3    3    0    0 -0.17891900551E+02  0.12003575332E+02 -0.10126207030E+02  0.23806427602E+02  0.51100000000E-03 0. -1.
        -11    1    3    3    0    0 -0.18277660071E+02 -0.20877813992E+02  0.79110808810E+01  0.28853789625E+02  0.51100000000E-03 0.  1.
         12    1    3    3    0    0  0.36465804200E+02  0.79049041479E+01  0.16103968381E+01  0.37347500098E+02  0.00000000000E+00 0. -1.
</event>
<event>
 7    1  0.3662489E-015  0.9000771E+02  0.7816164E-02  0.1186339E+00
        -11   -1    0    0    0    0  0.00000000000E+00  0.00000000000E+00  0.45593999997E+02  0.45594000000E+02  0.51100000000E-03 0.  1.
         11   -1    0    0    0    0 -0.00000000000E+00 -0.00000000000E+00 -0.45593999997E+02  0.45594000000E+02  0.51100000000E-03 0. -1.
    9900012    2    1    2    0    0  0.11192091797E+01 -0.31642091442E+00  0.20080761007E+00  0.90007713984E+02  0.89999975009E+02 0.  0.
        -12    1    1    2    0    0 -0.11192091797E+01  0.31642091442E+00 -0.20080761007E+00  0.11802860159E+01  0.00000000000E+00 0.  1.
         11    1    3    3    0    0 -0.28728436024E+02  0.21120913424E+02  0.23733936078E+02  0.42833581945E+02  0.51100000000E-03 0. -1.
        -11    1    3    3    0    0  0.27470625773E+01  0.26887547070E+01 -0.53540485648E+01  0.65910235148E+01  0.51100000000E-03 0.  1.
        -12    1    3    3    0    0  0.27100582626E+02 -0.24126089046E+02 -0.18179079903E+02  0.40583108524E+02  0.00000000000E+00 0.  1.
</event>
<event>
 7    1  0.3662489E-015  0.9000779E+02  0.7816164E-02  0.1186339E+00
        -11   -1    0    0    0    0  0.00000000000E+00  0.00000000000E+00  0.45593999997E+02  0.45594000000E+02  0.51100000000E-03 0. -1.
         11   -1    0    0    0    0 -0.00000000000E+00 -0.00000000000E+00 -0.45593999997E+02  0.45594000000E+02  0.51100000000E-03 0.  1.
    9900012    2    1    2    0    0 -0.60165662643E+00 -0.79953640550E+00 -0.62580914581E+00  0.90007793981E+02  0.90000056062E+02 0.  0.
        -12    1    1    2    0    0  0.60165662643E+00  0.79953640550E+00  0.62580914581E+00  0.11802060188E+01  0.00000000000E+00 0.  1.
         11    1    3    3    0    0  0.16526073362E+01  0.44272581437E+01 -0.44806536123E+01  0.65121411789E+01  0.51100000000E-03 0. -1.
        -11    1    3    3    0    0  0.28315496338E+02 -0.13144618213E+02 -0.25554631924E+02  0.40343370383E+02  0.51100000000E-03 0.  1.
         12    1    3    3    0    0 -0.30569760301E+02  0.79178236642E+01  0.29409476390E+02  0.43152282419E+02  0.00000000000E+00 0. -1.
</event>
<event>
 7    1  0.3662489E-015  0.9000771E+02  0.7816164E-02  0.1186339E+00
        -11   -1    0    0    0    0  0.00000000000E+00  0.00000000000E+00  0.45593999997E+02  0.45594000000E+02  0.51100000000E-03 0. -1.
         11   -1    0    0    0    0 -0.00000000000E+00 -0.00000000000E+00 -0.45593999997E+02  0.45594000000E+02  0.51100000000E-03 0.  1.
    9900012    2    1    2    0    0  0.84848048812E-01 -0.11715062715E+01  0.11596750421E+00  0.90007714188E+02  0.89999975215E+02 0.  0.
        -12    1    1    2    0    0 -0.84848048812E-01  0.11715062715E+01 -0.11596750421E+00  0.11802858118E+01  0.00000000000E+00 0.  1.
         11    1    3    3    0    0 -0.44160434680E+01  0.43223441498E+00 -0.71141964905E+01  0.83845130131E+01  0.51100000000E-03 0. -1.
        -11    1    3    3    0    0 -0.16487364447E+02 -0.97145567321E+00 -0.32629330340E+02  0.36571165024E+02  0.51100000000E-03 0.  1.
         12    1    3    3    0    0  0.20988255963E+02 -0.63228501330E+00  0.39859494335E+02  0.45052036151E+02  0.00000000000E+00 0. -1.
</event>
<event>
 7    1  0.3662489E-015  0.9000779E+02  0.7816164E-02  0.1186339E+00
        -11   -1    0    0    0    0  0.00000000000E+00  0.00000000000E+00  0.45593999997E+02  0.45594000000E+02  0.51100000000E-03 0. -1.
         11   -1    0    0    0    0 -0.00000000000E+00 -0.00000000000E+00 -0.45593999997E+02  0.45594000000E+02  0.51100000000E-03 0.  1.
    9900012    2    1    2    0    0  0.24819608239E-01 -0.40843491046E+00  0.11070097318E+01  0.90007785767E+02  0.90000047739E+02 0.  0.
        -12    1    1    2    0    0 -0.24819608239E-01  0.40843491046E+00 -0.11070097318E+01  0.11802142328E+01  0.00000000000E+00 0.  1.
         11    1    3    3    0    0  0.17851337443E+02 -0.27008947114E+02  0.22358763526E+02  0.39345492491E+02  0.51100000000E-03 0. -1.
        -11    1    3    3    0    0 -0.70723899649E+01 -0.32665461745E+01  0.51793771862E+01  0.93549437210E+01  0.51100000000E-03 0.  1.
        -12    1    3    3    0    0 -0.10754127870E+02  0.29867058378E+02 -0.26431130980E+02  0.41307349555E+02  0.00000000000E+00 0.  1.
</event>
<event>
 7    1  0.3662489E-015  0.9000775E+02  0.7816164E-02  0.1186339E+00
        -11   -1    0    0    0    0  0.00000000000E+00  0.00000000000E+00  0.45593999997E+02  0.45594000000E+02  0.51100000000E-03 0.  1.
         11   -1    0    0    0    0 -0.00000000000E+00 -0.00000000000E+00 -0.45593999997E+02  0.45594000000E+02  0.51100000000E-03 0. -1.
    9900012    2    1    2    0    0 -0.75874984857E+00  0.78542064417E+00 -0.44765602191E+00  0.90007753062E+02  0.90000014602E+02 0.  0.
        -12    1    1    2    0    0  0.75874984857E+00 -0.78542064417E+00  0.44765602191E+00  0.11802469381E+01  0.00000000000E+00 0.  1.
         11    1    3    3    0    0 -0.64084791098E+01 -0.40137220087E+01 -0.45884628572E+01  0.88449172137E+01  0.51100000000E-03 0. -1.
        -11    1    3    3    0    0 -0.10341821880E+02 -0.35167836036E+02  0.92698128439E+01  0.37810837093E+02  0.51100000000E-03 0.  1.
         12    1    3    3    0    0  0.15991551141E+02  0.39966978689E+02 -0.51290060087E+01  0.43351998755E+02  0.00000000000E+00 0. -1.
</event>
<event>
 7    1  0.3662489E-015  0.9000772E+02  0.7816164E-02  0.1186339E+00
        -11   -1    0    0    0    0  0.00000000000E+00  0.00000000000E+00  0.45593999997E+02  0.45594000000E+02  0.51100000000E-03 0.  1.
         11   -1    0    0    0    0 -0.00000000000E+00 -0.00000000000E+00 -0.45593999997E+02  0.45594000000E+02  0.51100000000E-03 0. -1.
    9900012    2    1    2    0    0  0.63618303843E+00  0.73332295247E+00 -0.67124844996E+00  0.90007717876E+02  0.89999978952E+02 0.  0.
        -12    1    1    2    0    0 -0.63618303843E+00 -0.73332295247E+00  0.67124844996E+00  0.11802821242E+01  0.00000000000E+00 0.  1.
         11    1    3    3    0    0 -0.41763019320E+01 -0.38498557926E+02  0.28660773903E+01  0.38830334277E+02  0.51100000000E-03 0. -1.
        -11    1    3    3    0    0 -0.60598181053E+01 -0.62666985160E+00  0.62407156121E+01  0.87212752613E+01  0.51100000000E-03 0.  1.
        -12    1    3    3    0    0  0.10872303076E+02  0.39858550730E+02 -0.97780414523E+01  0.42456108337E+02  0.00000000000E+00 0.  1.
</event>
<event>
 7    1  0.3662489E-015  0.9000771E+02  0.7816164E-02  0.1186339E+00
        -11   -1    0    0    0    0  0.00000000000E+00  0.00000000000E+00  0.45593999997E+02  0.45594000000E+02  0.51100000000E-03 0. -1.
         11   -1    0    0    0    0 -0.00000000000E+00 -0.00000000000E+00 -0.45593999997E+02  0.45594000000E+02  0.51100000000E-03 0.  1.
    9900012    2    1    2    0    0 -0.81579378618E+00  0.56684995928E+00  0.63737743656E+00  0.90007708352E+02  0.89999969302E+02 0.  0.
        -12    1    1    2    0    0  0.81579378618E+00 -0.56684995928E+00 -0.63737743656E+00  0.11802916481E+01  0.00000000000E+00 0.  1.
         11    1    3    3    0    0  0.81660566261E+01 -0.33856088582E+01  0.11388015153E+02  0.14416439143E+02  0.51100000000E-03 0. -1.
        -11    1    3    3    0    0  0.77893903633E+01 -0.23044332415E+02 -0.29854231499E+02  0.38509622140E+02  0.51100000000E-03 0.  1.
         12    1    3    3    0    0 -0.16771240776E+02  0.26996791232E+02  0.19103593782E+02  0.37081647070E+02  0.00000000000E+00 0. -1.
</event>
<event>
 7    1  0.3662489E-015  0.9000765E+02  0.7816164E-02  0.1186339E+00
        -11   -1    0    0    0    0  0.00000000000E+00  0.00000000000E+00  0.45593999997E+02  0.45594000000E+02  0.51100000000E-03 0.  1.
         11   -1    0    0    0    0 -0.00000000000E+00 -0.00000000000E+00 -0.45593999997E+02  0.45594000000E+02  0.51100000000E-03 0. -1.
    9900012    2    1    2    0    0 -0.77049019829E+00  0.21144943146E+00 -0.86882080102E+00  0.90007654461E+02  0.89999914700E+02 0.  0.
        -12    1    1    2    0    0  0.77049019829E+00 -0.21144943146E+00  0.86882080102E+00  0.11803455392E+01  0.00000000000E+00 0.  1.
         11    1    3    3    0    0  0.66725202046E+01  0.55919915068E+01 -0.30378198451E+01  0.92206965337E+01  0.51100000000E-03 0. -1.
        -11    1    3    3    0    0  0.21274886683E+02  0.20368083724E+02  0.22613419691E+02  0.37132820905E+02  0.51100000000E-03 0.  1.
         12    1    3    3    0    0 -0.28717897085E+02 -0.25748625799E+02 -0.20444420647E+02  0.43654137022E+02  0.00000000000E+00 0. -1.
</event>
<event>
 7    1  0.3662489E-015  0.9000771E+02  0.7816164E-02  0.1186339E+00
        -11   -1    0    0    0    0  0.00000000000E+00  0.00000000000E+00  0.45593999997E+02  0.45594000000E+02  0.51100000000E-03 0.  1.
         11   -1    0    0    0    0 -0.00000000000E+00 -0.00000000000E+00 -0.45593999997E+02  0.45594000000E+02  0.51100000000E-03 0. -1.
    9900012    2    1    2    0    0  0.55542530300E-01  0.27459068265E-01 -0.11786656250E+01  0.90007706973E+02  0.89999967905E+02 0.  0.
        -12    1    1    2    0    0 -0.55542530300E-01 -0.27459068265E-01  0.11786656250E+01  0.11802930266E+01  0.00000000000E+00 0.  1.
         11    1    3    3    0    0  0.61644575294E+01  0.33044256012E+01  0.65478818573E+01  0.95809457917E+01  0.51100000000E-03 0. -1.
        -11    1    3    3    0    0 -0.25530895386E+01  0.12607059644E+02  0.33617280250E+02  0.35994134949E+02  0.51100000000E-03 0.  1.
         12    1    3    3    0    0 -0.35558254605E+01 -0.15884026177E+02 -0.41343827733E+02  0.44432626232E+02  0.00000000000E+00 0. -1.
</event>
<event>
 7    1  0.3662489E-015  0.9000746E+02  0.7816164E-02  0.1186340E+00
        -11   -1    0    0    0    0  0.00000000000E+00  0.00000000000E+00  0.45593999997E+02  0.45594000000E+02  0.51100000000E-03 0.  1.
         11   -1    0    0    0    0 -0.00000000000E+00 -0.00000000000E+00 -0.45593999997E+02  0.45594000000E+02  0.51100000000E-03 0. -1.
    9900012    2    1    2    0    0  0.66968762356E+00 -0.72846304760E+00 -0.64383583139E+00  0.90007464315E+02  0.89999722044E+02 0.  0.
        -12    1    1    2    0    0 -0.66968762356E+00  0.72846304760E+00  0.64383583139E+00  0.11805356846E+01  0.00000000000E+00 0.  1.
         11    1    3    3    0    0 -0.34559538101E+01 -0.91925351041E+01  0.52200873067E+01  0.11121853718E+02  0.51100000000E-03 0. -1.
        -11    1    3    3    0    0 -0.12323778443E+02 -0.14419963788E+02  0.28629239763E+02  0.34343037729E+02  0.51100000000E-03 0.  1.
         12    1    3    3    0    0  0.16449419877E+02  0.22884035844E+02 -0.34493162902E+02  0.44542572868E+02  0.00000000000E+00 0. -1.
</event>
<event>
 7    1  0.3662489E-015  0.9000769E+02  0.7816164E-02  0.1186339E+00
        -11   -1    0    0    0    0  0.00000000000E+00  0.00000000000E+00  0.45593999997E+02  0.45594000000E+02  0.51100000000E-03 0.  1.
         11   -1    0    0    0    0 -0.00000000000E+00 -0.00000000000E+00 -0.45593999997E+02  0.45594000000E+02  0.51100000000E-03 0. -1.
    9900012    2    1    2    0    0 -0.59222518637E+00 -0.21975012014E+00 -0.99704662971E+00  0.90007693782E+02  0.89999954540E+02 0.  0.
        -12    1    1    2    0    0  0.59222518637E+00  0.21975012014E+00  0.99704662971E+00  0.11803062181E+01  0.00000000000E+00 0.  1.
         11    1    3    3    0    0  0.72363188734E+01 -0.75964924116E+01  0.17548339729E+01  0.10637220047E+02  0.51100000000E-03 0. -1.
        -11    1    3    3    0    0  0.13968327252E+02 -0.23093723038E+02  0.21701427711E+02  0.34632155216E+02  0.51100000000E-03 0.  1.
         12    1    3    3    0    0 -0.21796871312E+02  0.30470465329E+02 -0.24453308313E+02  0.44738318518E+02  0.00000000000E+00 0. -1.
</event>
<event>
 7    1  0.3662489E-015  0.9000766E+02  0.7816164E-02  0.1186339E+00
        -11   -1    0    0    0    0  0.00000000000E+00  0.00000000000E+00  0.45593999997E+02  0.45594000000E+02  0.51100000000E-03 0.  1.
         11   -1    0    0    0    0 -0.00000000000E+00 -0.00000000000E+00 -0.45593999997E+02  0.45594000000E+02  0.51100000000E-03 0. -1.
    9900012    2    1    2    0    0  0.44095116680E-01  0.75704761570E+00 -0.90451414955E+00  0.90007656271E+02  0.89999916534E+02 0.  0.
        -12    1    1    2    0    0 -0.44095116680E-01 -0.75704761570E+00  0.90451414955E+00  0.11803437290E+01  0.00000000000E+00 0.  1.
         11    1    3    3    0    0 -0.32913293639E+02  0.11605119716E+02 -0.22513091175E+02  0.41530747360E+02  0.51100000000E-03 0. -1.
        -11    1    3    3    0    0  0.22516773963E+01  0.73344216551E+01  0.30728167477E+01  0.82647441061E+01  0.51100000000E-03 0.  1.
        -12    1    3    3    0    0  0.30705711359E+02 -0.18182493755E+02  0.18535760278E+02  0.40212164805E+02  0.00000000000E+00 0.  1.
</event>
<event>
 7    1  0.3662489E-015  0.9000782E+02  0.7816164E-02  0.1186339E+00
        -11   -1    0    0    0    0  0.00000000000E+00  0.00000000000E+00  0.45593999997E+02  0.45594000000E+02  0.51100000000E-03 0. -1.
         11   -1    0    0    0    0 -0.00000000000E+00 -0.00000000000E+00 -0.45593999997E+02  0.45594000000E+02  0.51100000000E-03 0.  1.
    9900012    2    1    2    0    0  0.10536531908E+01 -0.27449510542E+00 -0.45530221692E+00  0.90007816659E+02  0.90000079039E+02 0.  0.
        -12    1    1    2    0    0 -0.10536531908E+01  0.27449510542E+00  0.45530221692E+00  0.11801833409E+01  0.00000000000E+00 0.  1.
         11    1    3    3    0    0 -0.27304082735E+02  0.22670156923E+02 -0.22184007974E+02  0.41851871630E+02  0.51100000000E-03 0. -1.
        -11    1    3    3    0    0  0.51775034877E+01 -0.80562566454E+01 -0.40765844701E+01  0.10408090829E+02  0.51100000000E-03 0.  1.
        -12    1    3    3    0    0  0.23180232439E+02 -0.14888395383E+02  0.25805290227E+02  0.37747854200E+02  0.00000000000E+00 0.  1.
</event>
<event>
 7    1  0.3662489E-015  0.9000776E+02  0.7816164E-02  0.1186339E+00
        -11   -1    0    0    0    0  0.00000000000E+00  0.00000000000E+00  0.45593999997E+02  0.45594000000E+02  0.51100000000E-03 0. -1.
         11   -1    0    0    0    0 -0.00000000000E+00 -0.00000000000E+00 -0.45593999997E+02  0.45594000000E+02  0.51100000000E-03 0.  1.
    9900012    2    1    2    0    0 -0.10100631672E+01  0.61023878848E+00 -0.18790993762E-01  0.90007757617E+02  0.90000019218E+02 0.  0.
        -12    1    1    2    0    0  0.10100631672E+01 -0.61023878848E+00  0.18790993762E-01  0.11802423828E+01  0.00000000000E+00 0.  1.
         11    1    3    3    0    0 -0.21393444065E+02 -0.58496697779E+01  0.31306498174E+01  0.22398639557E+02  0.51100000000E-03 0. -1.
        -11    1    3    3    0    0 -0.13419153289E+02 -0.18461050059E+02  0.79554705860E+01  0.24169682596E+02  0.51100000000E-03 0.  1.
         12    1    3    3    0    0  0.33802534187E+02  0.24920958625E+02 -0.11104911397E+02  0.43439435464E+02  0.00000000000E+00 0. -1.
</event>
<event>
 7    1  0.3662489E-015  0.9000778E+02  0.7816164E-02  0.1186339E+00
        -11   -1    0    0    0    0  0.00000000000E+00  0.00000000000E+00  0.45593999997E+02  0.45594000000E+02  0.51100000000E-03 0.  1.
         11   -1    0    0    0    0 -0.00000000000E+00 -0.00000000000E+00 -0.45593999997E+02  0.45594000000E+02  0.51100000000E-03 0. -1.
    9900012    2    1    2    0    0 -0.95325471084E+00 -0.15984659086E+00 -0.67725666473E+00  0.90007778806E+02  0.90000040686E+02 0.  0.
        -12    1    1    2    0    0  0.95325471084E+00  0.15984659086E+00  0.67725666473E+00  0.11802211938E+01  0.00000000000E+00 0.  1.
         11    1    3    3    0    0 -0.57290220054E+01 -0.45641047286E+01 -0.87550437460E+01  0.11415057440E+02  0.51100000000E-03 0. -1.
        -11    1    3    3    0    0  0.13244094411E+02  0.39627437569E+02  0.17600440771E+01  0.41819105687E+02  0.51100000000E-03 0.  1.
         12    1    3    3    0    0 -0.84683271166E+01 -0.35223179431E+02  0.63177430042E+01  0.36773615679E+02  0.00000000000E+00 0. -1.
</event>
<event>
 7    1  0.3662489E-015  0.9000778E+02  0.7816164E-02  0.1186339E+00
        -11   -1    0    0    0    0  0.00000000000E+00  0.00000000000E+00  0.45593999997E+02  0.45594000000E+02  0.51100000000E-03 0.  1.
         11   -1    0    0    0    0 -0.00000000000E+00 -0.00000000000E+00 -0.45593999997E+02  0.45594000000E+02  0.51100000000E-03 0. -1.
    9900012    2    1    2    0    0  0.93414171353E+00 -0.67169784162E+00 -0.26291456999E+00  0.90007778494E+02  0.90000040370E+02 0.  0.
        -12    1    1    2    0    0 -0.93414171353E+00  0.67169784162E+00  0.26291456999E+00  0.11802215057E+01  0.00000000000E+00 0.  1.
         11    1    3    3    0    0 -0.16681267452E+02 -0.17795308055E+02  0.25315783863E+02  0.35154325274E+02  0.51100000000E-03 0. -1.
        -11    1    3    3    0    0 -0.12472314322E+02  0.83842918315E+01 -0.16314023293E+02  0.22181125542E+02  0.51100000000E-03 0.  1.
        -12    1    3    3    0    0  0.30087723488E+02  0.87393183822E+01 -0.92646751400E+01  0.32672327678E+02  0.00000000000E+00 0.  1.
</event>
<event>
 7    1  0.3662489E-015  0.9000776E+02  0.7816164E-02  0.1186339E+00
        -11   -1    0    0    0    0  0.00000000000E+00  0.00000000000E+00  0.45593999997E+02  0.45594000000E+02  0.51100000000E-03 0.  1.
         11   -1    0    0    0    0 -0.00000000000E+00 -0.00000000000E+00 -0.45593999997E+02  0.45594000000E+02  0.51100000000E-03 0. -1.
    9900012    2    1    2    0    0  0.22827830318E+00  0.30563848525E+00 -0.11168937835E+01  0.90007755283E+02  0.90000016853E+02 0.  0.
        -12    1    1    2    0    0 -0.22827830318E+00 -0.30563848525E+00  0.11168937835E+01  0.11802447166E+01  0.00000000000E+00 0.  1.
         11    1    3    3    0    0 -0.78877945842E+01 -0.23690368513E+01  0.82850044213E+01  0.11682077620E+02  0.51100000000E-03 0. -1.
        -11    1    3    3    0    0  0.32138038781E+02 -0.11313765168E+02  0.18643027654E+02  0.38838348308E+02  0.51100000000E-03 0.  1.
         12    1    3    3    0    0 -0.24021965894E+02  0.13988440505E+02 -0.28044925859E+02  0.39487329355E+02  0.00000000000E+00 0. -1.
</event>
<event>
 7    1  0.3662489E-015  0.9000740E+02  0.7816164E-02  0.1186340E+00
        -11   -1    0    0    0    0  0.00000000000E+00  0.00000000000E+00  0.45593999997E+02  0.45594000000E+02  0.51100000000E-03 0.  1.
         11   -1    0    0    0    0 -0.00000000000E+00 -0.00000000000E+00 -0.45593999997E+02  0.45594000000E+02  0.51100000000E-03 0. -1.
    9900012    2    1    2    0    0 -0.10513411929E+01  0.10343129700E+00 -0.52707506913E+00  0.90007396567E+02  0.89999653401E+02 0.  0.
        -12    1    1    2    0    0  0.10513411929E+01 -0.10343129700E+00  0.52707506913E+00  0.11806034328E+01  0.00000000000E+00 0.  1.
         11    1    3    3    0    0  0.16307804241E+01  0.67306819724E+01  0.78825267186E+01  0.10492652302E+02  0.51100000000E-03 0. -1.
        -11    1    3    3    0    0  0.65195206419E+01 -0.25817430715E+02  0.27178303978E+02  0.38048706752E+02  0.51100000000E-03 0.  1.
         12    1    3    3    0    0 -0.92016422589E+01  0.19190180040E+02 -0.35587905766E+02  0.41466037513E+02  0.00000000000E+00 0. -1.
</event>
<event>
 7    1  0.3662489E-015  0.9000774E+02  0.7816164E-02  0.1186339E+00
        -11   -1    0    0    0    0  0.00000000000E+00  0.00000000000E+00  0.45593999997E+02  0.45594000000E+02  0.51100000000E-03 0. -1.
         11   -1    0    0    0    0 -0.00000000000E+00 -0.00000000000E+00 -0.45593999997E+02  0.45594000000E+02  0.51100000000E-03 0.  1.
    9900012    2    1    2    0    0 -0.42853482974E+00  0.34402028265E+00  0.10445189438E+01  0.90007740758E+02  0.90000002136E+02 0.  0.
        -12    1    1    2    0    0  0.42853482974E+00 -0.34402028265E+00 -0.10445189438E+01  0.11802592423E+01  0.00000000000E+00 0.  1.
         11    1    3    3    0    0 -0.12955211337E+00 -0.23054390899E+02  0.30654119936E+02  0.38356183241E+02  0.51100000000E-03 0. -1.
        -11    1    3    3    0    0 -0.14140673639E+01  0.27893185911E+01  0.80892506137E+01  0.86727077931E+01  0.51100000000E-03 0.  1.
        -12    1    3    3    0    0  0.11150846475E+01  0.20609092590E+02 -0.37698851606E+02  0.42978849724E+02  0.00000000000E+00 0.  1.
</event>
<event>
 7    1  0.3662489E-015  0.9000776E+02  0.7816164E-02  0.1186339E+00
        -11   -1    0    0    0    0  0.00000000000E+00  0.00000000000E+00  0.45593999997E+02  0.45594000000E+02  0.51100000000E-03 0. -1.
         11   -1    0    0    0    0 -0.00000000000E+00 -0.00000000000E+00 -0.45593999997E+02  0.45594000000E+02  0.51100000000E-03 0.  1.
    9900012    2    1    2    0    0  0.68317823680E+00  0.39344139320E+00  0.87831741679E+00  0.90007758449E+02  0.90000020061E+02 0.  0.
        -12    1    1    2    0    0 -0.68317823680E+00 -0.39344139320E+00 -0.87831741679E+00  0.11802415506E+01  0.00000000000E+00 0.  1.
         11    1    3    3    0    0 -0.35430265939E+01  0.12836145609E+02  0.34351990277E+02  0.36842623519E+02  0.51100000000E-03 0. -1.
        -11    1    3    3    0    0  0.51824789455E+01  0.27257370614E+01  0.74700378427E+01  0.94915328678E+01  0.51100000000E-03 0.  1.
        -12    1    3    3    0    0 -0.95627411482E+00 -0.15168441277E+02 -0.40943710703E+02  0.43673602062E+02  0.00000000000E+00 0.  1.
</event>
<event>
 7    1  0.3662489E-015  0.9000768E+02  0.7816164E-02  0.1186339E+00
        -11   -1    0    0    0    0  0.00000000000E+00  0.00000000000E+00  0.45593999997E+02  0.45594000000E+02  0.51100000000E-03 0. -1.
         11   -1    0    0    0    0 -0.00000000000E+00 -0.00000000000E+00 -0.45593999997E+02  0.45594000000E+02  0.51100000000E-03 0.  1.
    9900012    2    1    2    0    0 -0.70144050430E+00 -0.57222743708E+00  0.75742683621E+00  0.90007678674E+02  0.89999939232E+02 0.  0.
        -12    1    1    2    0    0  0.70144050430E+00  0.57222743708E+00 -0.75742683621E+00  0.11803213262E+01  0.00000000000E+00 0.  1.
         11    1    3    3    0    0  0.14610510257E+02 -0.17639949042E+02  0.20879586424E+02  0.30993417715E+02  0.51100000000E-03 0. -1.
        -11    1    3    3    0    0  0.72389871049E+01 -0.14769170808E+02 -0.66048620400E+01  0.17724433517E+02  0.51100000000E-03 0.  1.
        -12    1    3    3    0    0 -0.22550937867E+02  0.31836892413E+02 -0.13517297547E+02  0.41289827442E+02  0.00000000000E+00 0.  1.
</event>
<event>
 7    1  0.3662489E-015  0.9000778E+02  0.7816164E-02  0.1186339E+00
        -11   -1    0    0    0    0  0.00000000000E+00  0.00000000000E+00  0.45593999997E+02  0.45594000000E+02  0.51100000000E-03 0.  1.
         11   -1    0    0    0    0 -0.00000000000E+00 -0.00000000000E+00 -0.45593999997E+02  0.45594000000E+02  0.51100000000E-03 0. -1.
    9900012    2    1    2    0    0  0.12325450649E-01  0.10995313683E+01 -0.42870367975E+00  0.90007784769E+02  0.90000046728E+02 0.  0.
        -12    1    1    2    0    0 -0.12325450649E-01 -0.10995313683E+01  0.42870367975E+00  0.11802152310E+01  0.00000000000E+00 0.  1.
         11    1    3    3    0    0  0.47856514742E+01 -0.42516138242E+01  0.95845002829E+01  0.11525681155E+02  0.51100000000E-03 0. -1.
        -11    1    3    3    0    0 -0.26716668501E+02  0.21054376045E+02  0.18916433732E+02  0.38921698214E+02  0.51100000000E-03 0.  1.
         12    1    3    3    0    0  0.21943342478E+02 -0.15703230852E+02 -0.28929637695E+02  0.39560405401E+02  0.00000000000E+00 0. -1.
</event>
<event>
 7    1  0.3662489E-015  0.9000774E+02  0.7816164E-02  0.1186339E+00
        -11   -1    0    0    0    0  0.00000000000E+00  0.00000000000E+00  0.45593999997E+02  0.45594000000E+02  0.51100000000E-03 0.  1.
         11   -1    0    0    0    0 -0.00000000000E+00 -0.00000000000E+00 -0.45593999997E+02  0.45594000000E+02  0.51100000000E-03 0. -1.
    9900012    2    1    2    0    0  0.51438558757E-01  0.86014392323E+00 -0.80654509270E+00  0.90007742197E+02  0.90000003594E+02 0.  0.
        -12    1    1    2    0    0 -0.51438558757E-01 -0.86014392323E+00  0.80654509270E+00  0.11802578026E+01  0.00000000000E+00 0.  1.
         11    1    3    3    0    0 -0.86478221530E+01  0.10230673162E+01 -0.51326998423E+01  0.10108219559E+02  0.51100000000E-03 0. -1.
        -11    1    3    3    0    0 -0.27824671107E+02  0.15582134185E+02 -0.15500939694E+02  0.35458346825E+02  0.51100000000E-03 0.  1.
         12    1    3    3    0    0  0.36523931818E+02 -0.15745057577E+02  0.19827094443E+02  0.44441175813E+02  0.00000000000E+00 0. -1.
</event>
<event>
 7    1  0.3662489E-015  0.9000768E+02  0.7816164E-02  0.1186339E+00
        -11   -1    0    0    0    0  0.00000000000E+00  0.00000000000E+00  0.45593999997E+02  0.45594000000E+02  0.51100000000E-03 0.  1.
         11   -1    0    0    0    0 -0.00000000000E+00 -0.00000000000E+00 -0.45593999997E+02  0.45594000000E+02  0.51100000000E-03 0. -1.
    9900012    2    1    2    0    0 -0.26334226914E+00 -0.64769735639E+00 -0.95094140166E+00  0.90007682007E+02  0.89999942609E+02 0.  0.
        -12    1    1    2    0    0  0.26334226914E+00  0.64769735639E+00  0.95094140166E+00  0.11803179934E+01  0.00000000000E+00 0.  1.
         11    1    3    3    0    0 -0.88343843759E+01  0.31178481659E+02 -0.18281107420E+02  0.37206759529E+02  0.51100000000E-03 0. -1.
        -11    1    3    3    0    0  0.29433887156E+01  0.71280043566E+01 -0.32708986035E+01  0.83767989814E+01  0.51100000000E-03 0.  1.
        -12    1    3    3    0    0  0.56276533911E+01 -0.38954183372E+02  0.20601064622E+02  0.44424123496E+02  0.00000000000E+00 0.  1.
</event>
<event>
 7    1  0.3662489E-015  0.9000764E+02  0.7816164E-02  0.1186339E+00
        -11   -1    0    0    0    0  0.00000000000E+00  0.00000000000E+00  0.45593999997E+02  0.45594000000E+02  0.51100000000E-03 0.  1.
         11   -1    0    0    0    0 -0.00000000000E+00 -0.00000000000E+00 -0.45593999997E+02  0.45594000000E+02  0.51100000000E-03 0. -1.
    9900012    2    1    2    0    0 -0.91096561361E+00  0.39335483398E+00 -0.63926318704E+00  0.90007642513E+02  0.89999902594E+02 0.  0.
        -12    1    1    2    0    0  0.91096561361E+00 -0.39335483398E+00  0.63926318704E+00  0.11803574869E+01  0.00000000000E+00 0.  1.
         11    1    3    3    0    0 -0.26605903304E-01 -0.13983650553E+02 -0.36708618900E+02  0.39281877405E+02  0.51100000000E-03 0. -1.
        -11    1    3    3    0    0 -0.81372457006E+01 -0.48365046302E+01  0.28898482632E+00  0.94704834682E+01  0.51100000000E-03 0.  1.
        -12    1    3    3    0    0  0.72528859903E+01  0.19213510017E+02  0.35780370887E+02  0.41255281640E+02  0.00000000000E+00 0.  1.
</event>
<event>
 7    1  0.3662489E-015  0.9000774E+02  0.7816164E-02  0.1186339E+00
        -11   -1    0    0    0    0  0.00000000000E+00  0.00000000000E+00  0.45593999997E+02  0.45594000000E+02  0.51100000000E-03 0.  1.
         11   -1    0    0    0    0 -0.00000000000E+00 -0.00000000000E+00 -0.45593999997E+02  0.45594000000E+02  0.51100000000E-03 0. -1.
    9900012    2    1    2    0    0  0.58524364442E+00 -0.49474339220E+00 -0.89762060059E+00  0.90007744142E+02  0.90000005565E+02 0.  0.
        -12    1    1    2    0    0 -0.58524364442E+00  0.49474339220E+00  0.89762060059E+00  0.11802558579E+01  0.00000000000E+00 0.  1.
         11    1    3    3    0    0  0.48166111853E+01 -0.88912633516E+01  0.99896976296E+00  0.10161311340E+02  0.51100000000E-03 0. -1.
        -11    1    3    3    0    0  0.98486110579E+01  0.59923156995E+01  0.36818113083E+02  0.38580778095E+02  0.51100000000E-03 0.  1.
         12    1    3    3    0    0 -0.14079978599E+02  0.24042042599E+01 -0.38714703446E+02  0.41265654707E+02  0.00000000000E+00 0. -1.
</event>
<event>
 7    1  0.3662489E-015  0.9000775E+02  0.7816164E-02  0.1186339E+00
        -11   -1    0    0    0    0  0.00000000000E+00  0.00000000000E+00  0.45593999997E+02  0.45594000000E+02  0.51100000000E-03 0. -1.
         11   -1    0    0    0    0 -0.00000000000E+00 -0.00000000000E+00 -0.45593999997E+02  0.45594000000E+02  0.51100000000E-03 0.  1.
    9900012    2    1    2    0    0 -0.79854894274E+00  0.78675692466E+00  0.36922468760E+00  0.90007748441E+02  0.90000009920E+02 0.  0.
        -12    1    1    2    0    0  0.79854894274E+00 -0.78675692466E+00 -0.36922468760E+00  0.11802515589E+01  0.00000000000E+00 0.  1.
         11    1    3    3    0    0  0.10342218020E+02 -0.35293044152E+02 -0.18319025233E+01  0.36822768856E+02  0.51100000000E-03 0. -1.
        -11    1    3    3    0    0  0.31525898789E+01 -0.67125647161E+01  0.31532741080E+01  0.80585659936E+01  0.51100000000E-03 0.  1.
        -12    1    3    3    0    0 -0.14293356842E+02  0.42792365793E+02 -0.95214689712E+00  0.45126413592E+02  0.00000000000E+00 0.  1.
</event>
<event>
 7    1  0.3662489E-015  0.9000779E+02  0.7816164E-02  0.1186339E+00
        -11   -1    0    0    0    0  0.00000000000E+00  0.00000000000E+00  0.45593999997E+02  0.45594000000E+02  0.51100000000E-03 0. -1.
         11   -1    0    0    0    0 -0.00000000000E+00 -0.00000000000E+00 -0.45593999997E+02  0.45594000000E+02  0.51100000000E-03 0.  1.
    9900012    2    1    2    0    0  0.22911695118E+00  0.10134815668E+01  0.55969387181E+00  0.90007789555E+02  0.90000051577E+02 0.  0.
        -12    1    1    2    0    0 -0.22911695118E+00 -0.10134815668E+01 -0.55969387181E+00  0.11802104447E+01  0.00000000000E+00 0.  1.
         11    1    3    3    0    0  0.53394672408E+01 -0.67969107732E+01 -0.39954414623E+01  0.95221562272E+01  0.51100000000E-03 0. -1.
        -11    1    3    3    0    0  0.32647398633E+02  0.12107723733E+02 -0.14804687560E+02  0.37836865429E+02  0.51100000000E-03 0.  1.
         12    1    3    3    0    0 -0.37757748923E+02 -0.42973313930E+01  0.19359822894E+02  0.42648767899E+02  0.00000000000E+00 0. -1.
</event>
<event>
 7    1  0.3662489E-015  0.9000818E+02  0.7816164E-02  0.1186338E+00
        -11   -1    0    0    0    0  0.00000000000E+00  0.00000000000E+00  0.45593999997E+02  0.45594000000E+02  0.51100000000E-03 0.  1.
         11   -1    0    0    0    0 -0.00000000000E+00 -0.00000000000E+00 -0.45593999997E+02  0.45594000000E+02  0.51100000000E-03 0. -1.
    9900012    2    1    2    0    0  0.89869079850E-01  0.11516430304E+01 -0.24001273670E+00  0.90008184661E+02  0.90000451897E+02 0.  0.
        -12    1    1    2    0    0 -0.89869079850E-01 -0.11516430304E+01  0.24001273670E+00  0.11798153392E+01  0.00000000000E+00 0.  1.
         11    1    3    3    0    0 -0.28822007587E+01  0.51079044976E+01  0.67213770655E+01  0.89204640847E+01  0.51100000000E-03 0. -1.
        -11    1    3    3    0    0 -0.18121474580E+02  0.30017451441E+02  0.11692625236E+02  0.36961503177E+02  0.51100000000E-03 0.  1.
         12    1    3    3    0    0  0.21093544419E+02 -0.33973712908E+02 -0.18654015038E+02  0.44126217399E+02  0.00000000000E+00 0. -1.
</event>
<event>
 7    1  0.3662489E-015  0.9000760E+02  0.7816164E-02  0.1186339E+00
        -11   -1    0    0    0    0  0.00000000000E+00  0.00000000000E+00  0.45593999997E+02  0.45594000000E+02  0.51100000000E-03 0.  1.
         11   -1    0    0    0    0 -0.00000000000E+00 -0.00000000000E+00 -0.45593999997E+02  0.45594000000E+02  0.51100000000E-03 0. -1.
    9900012    2    1    2    0    0 -0.12913656101E+00  0.10767515668E+01  0.46612038179E+00  0.90007602441E+02  0.89999861993E+02 0.  0.
        -12    1    1    2    0    0  0.12913656101E+00 -0.10767515668E+01 -0.46612038179E+00  0.11803975595E+01  0.00000000000E+00 0.  1.
         11    1    3    3    0    0 -0.26568371006E+02  0.29457893003E+02  0.70862239723E+01  0.40297150873E+02  0.51100000000E-03 0. -1.
        -11    1    3    3    0    0 -0.54167035568E+01  0.11002259896E+01  0.10700985187E+01  0.56299454484E+01  0.51100000000E-03 0.  1.
        -12    1    3    3    0    0  0.31855938002E+02 -0.29481367425E+02 -0.76902021092E+01  0.44080506119E+02  0.00000000000E+00 0.  1.
</event>
<event>
 7    1  0.3662489E-015  0.9000769E+02  0.7816164E-02  0.1186339E+00
        -11   -1    0    0    0    0  0.00000000000E+00  0.00000000000E+00  0.45593999997E+02  0.45594000000E+02  0.51100000000E-03 0. -1.
         11   -1    0    0    0    0 -0.00000000000E+00 -0.00000000000E+00 -0.45593999997E+02  0.45594000000E+02  0.51100000000E-03 0.  1.
    9900012    2    1    2    0    0  0.94930831377E-01  0.71486872770E-01  0.11743149466E+01  0.90007687402E+02  0.89999948075E+02 0.  0.
        -12    1    1    2    0    0 -0.94930831377E-01 -0.71486872770E-01 -0.11743149466E+01  0.11803125983E+01  0.00000000000E+00 0.  1.
         11    1    3    3    0    0 -0.17224023817E+02  0.12338335182E+01  0.12117176341E+02  0.21095385855E+02  0.51100000000E-03 0. -1.
        -11    1    3    3    0    0 -0.69644232410E+01  0.26566557185E+02  0.63648604253E+01  0.28192137206E+02  0.51100000000E-03 0.  1.
         12    1    3    3    0    0  0.24283377890E+02 -0.27728903831E+02 -0.17307721820E+02  0.40720164341E+02  0.00000000000E+00 0. -1.
</event>
<event>
 7    1  0.3662489E-015  0.9000801E+02  0.7816164E-02  0.1186338E+00
        -11   -1    0    0    0    0  0.00000000000E+00  0.00000000000E+00  0.45593999997E+02  0.45594000000E+02  0.51100000000E-03 0.  1.
         11   -1    0    0    0    0 -0.00000000000E+00 -0.00000000000E+00 -0.45593999997E+02  0.45594000000E+02  0.51100000000E-03 0. -1.
    9900012    2    1    2    0    0  0.54790417508E+00  0.10427487858E+01  0.69575811944E-01  0.90008014912E+02  0.90000279908E+02 0.  0.
        -12    1    1    2    0    0 -0.54790417508E+00 -0.10427487858E+01 -0.69575811944E-01  0.11799850884E+01  0.00000000000E+00 0.  1.
         11    1    3    3    0    0  0.78413727668E+01 -0.13963401736E-01  0.23336009086E+01  0.81812600073E+01  0.51100000000E-03 0. -1.
        -11    1    3    3    0    0 -0.29825361433E+02 -0.30619600262E+02 -0.38812545336E+01  0.42920580633E+02  0.51100000000E-03 0.  1.
         12    1    3    3    0    0  0.22531892841E+02  0.31676312450E+02  0.16172294369E+01  0.38906174272E+02  0.00000000000E+00 0. -1.
</event>
<event>
 7    1  0.3662489E-015  0.9000769E+02  0.7816164E-02  0.1186339E+00
        -11   -1    0    0    0    0  0.00000000000E+00  0.00000000000E+00  0.45593999997E+02  0.45594000000E+02  0.51100000000E-03 0. -1.
         11   -1    0    0    0    0 -0.00000000000E+00 -0.00000000000E+00 -0.45593999997E+02  0.45594000000E+02  0.51100000000E-03 0.  1.
    9900012    2    1    2    0    0 -0.86016737595E+00  0.61222151429E+00 -0.52766192163E+00  0.90007690633E+02  0.89999951350E+02 0.  0.
        -12    1    1    2    0    0  0.86016737595E+00 -0.61222151429E+00  0.52766192163E+00  0.11803093665E+01  0.00000000000E+00 0.  1.
         11    1    3    3    0    0  0.10500723425E+02  0.33909995047E+01  0.22629120589E+02  0.25176202434E+02  0.51100000000E-03 0. -1.
        -11    1    3    3    0    0  0.17681652297E+02  0.16873306881E+02 -0.15491562655E+02  0.28936790195E+02  0.51100000000E-03 0.  1.
        -12    1    3    3    0    0 -0.29042543098E+02 -0.19652084871E+02 -0.76652198558E+01  0.35894698004E+02  0.00000000000E+00 0.  1.
</event>
<event>
 7    1  0.3662489E-015  0.9000780E+02  0.7816164E-02  0.1186339E+00
        -11   -1    0    0    0    0  0.00000000000E+00  0.00000000000E+00  0.45593999997E+02  0.45594000000E+02  0.51100000000E-03 0. -1.
         11   -1    0    0    0    0 -0.00000000000E+00 -0.00000000000E+00 -0.45593999997E+02  0.45594000000E+02  0.51100000000E-03 0.  1.
    9900012    2    1    2    0    0  0.11213796838E+01  0.36092264631E+00 -0.71567829022E-01  0.90007796837E+02  0.90000058955E+02 0.  0.
        -12    1    1    2    0    0 -0.11213796838E+01 -0.36092264631E+00  0.71567829022E-01  0.11802031630E+01  0.00000000000E+00 0.  1.
         11    1    3    3    0    0  0.32527208911E+02  0.83979225136E+01 -0.19823614171E+02  0.39006667393E+02  0.51100000000E-03 0. -1.
        -11    1    3    3    0    0 -0.36561494081E+00 -0.52985270255E+01 -0.77798572473E+01  0.94198854544E+01  0.51100000000E-03 0.  1.
        -12    1    3    3    0    0 -0.31040214286E+02 -0.27384728418E+01  0.27531903589E+02  0.41581243989E+02  0.00000000000E+00 0.  1.
</event>
<event>
 7    1  0.3662489E-015  0.9000776E+02  0.7816164E-02  0.1186339E+00
        -11   -1    0    0    0    0  0.00000000000E+00  0.00000000000E+00  0.45593999997E+02  0.45594000000E+02  0.51100000000E-03 0. -1.
         11   -1    0    0    0    0 -0.00000000000E+00 -0.00000000000E+00 -0.45593999997E+02  0.45594000000E+02  0.51100000000E-03 0.  1.
    9900012    2    1    2    0    0 -0.38560423663E+00  0.90763481405E+00  0.64843608956E+00  0.90007762335E+02  0.90000023998E+02 0.  0.
        -12    1    1    2    0    0  0.38560423663E+00 -0.90763481405E+00 -0.64843608956E+00  0.11802376647E+01  0.00000000000E+00 0.  1.
         11    1    3    3    0    0  0.11194344520E+02 -0.60179187792E+01 -0.34695491228E+01  0.13174462685E+02  0.51100000000E-03 0. -1.
        -11    1    3    3    0    0  0.20967968774E+02  0.91741564157E+01 -0.24433660831E+02  0.33478719246E+02  0.51100000000E-03 0.  1.
         12    1    3    3    0    0 -0.32547917531E+02 -0.22486028225E+01  0.28551646043E+02  0.43354580404E+02  0.00000000000E+00 0. -1.
</event>
<event>
 7    1  0.3662489E-015  0.9000811E+02  0.7816164E-02  0.1186338E+00
        -11   -1    0    0    0    0  0.00000000000E+00  0.00000000000E+00  0.45593999997E+02  0.45594000000E+02  0.51100000000E-03 0.  1.
         11   -1    0    0    0    0 -0.00000000000E+00 -0.00000000000E+00 -0.45593999997E+02  0.45594000000E+02  0.51100000000E-03 0. -1.
    9900012    2    1    2    0    0 -0.76458059692E+00  0.88774629151E+00  0.13954735125E+00  0.90008105755E+02  0.90000371950E+02 0.  0.
        -12    1    1    2    0    0  0.76458059692E+00 -0.88774629151E+00 -0.13954735125E+00  0.11798942455E+01  0.00000000000E+00 0.  1.
         11    1    3    3    0    0  0.90882420847E+01  0.41553789146E+01 -0.29861300734E+01  0.10429779058E+02  0.51100000000E-03 0. -1.
        -11    1    3    3    0    0  0.15986769170E+02 -0.17475002320E+02  0.30992497785E+02  0.39006248394E+02  0.51100000000E-03 0.  1.
         12    1    3    3    0    0 -0.25839591852E+02  0.14207369697E+02 -0.27866820361E+02  0.40572078302E+02  0.00000000000E+00 0. -1.
</event>
<event>
 7    1  0.3662489E-015  0.9000783E+02  0.7816164E-02  0.1186339E+00
        -11   -1    0    0    0    0  0.00000000000E+00  0.00000000000E+00  0.45593999997E+02  0.45594000000E+02  0.51100000000E-03 0. -1.
         11   -1    0    0    0    0 -0.00000000000E+00 -0.00000000000E+00 -0.45593999997E+02  0.45594000000E+02  0.51100000000E-03 0.  1.
    9900012    2    1    2    0    0 -0.23066737284E+00 -0.88054023862E+00  0.75116661808E+00  0.90007826353E+02  0.90000088861E+02 0.  0.
        -12    1    1    2    0    0  0.23066737284E+00  0.88054023862E+00 -0.75116661808E+00  0.11801736469E+01  0.00000000000E+00 0.  1.
         11    1    3    3    0    0 -0.29305328226E+02 -0.12812489544E+02 -0.16819030568E+02  0.36136435080E+02  0.51100000000E-03 0. -1.
        -11    1    3    3    0    0 -0.54530268703E+01 -0.73836405264E+01 -0.24932292840E+01  0.95115635936E+01  0.51100000000E-03 0.  1.
        -12    1    3    3    0    0  0.34527687723E+02  0.19315589832E+02  0.20063426470E+02  0.44359827680E+02  0.00000000000E+00 0.  1.
</event>
<event>
 7    1  0.3662489E-015  0.9000781E+02  0.7816164E-02  0.1186339E+00
        -11   -1    0    0    0    0  0.00000000000E+00  0.00000000000E+00  0.45593999997E+02  0.45594000000E+02  0.51100000000E-03 0.  1.
         11   -1    0    0    0    0 -0.00000000000E+00 -0.00000000000E+00 -0.45593999997E+02  0.45594000000E+02  0.51100000000E-03 0. -1.
    9900012    2    1    2    0    0 -0.39462886647E+00 -0.25433275043E-01 -0.11119717295E+01  0.90007805134E+02  0.90000067362E+02 0.  0.
        -12    1    1    2    0    0  0.39462886647E+00  0.25433275043E-01  0.11119717295E+01  0.11801948657E+01  0.00000000000E+00 0.  1.
         11    1    3    3    0    0 -0.27135509516E+01 -0.30972744045E+01 -0.27984485355E+02  0.28285824866E+02  0.51100000000E-03 0. -1.
        -11    1    3    3    0    0 -0.13337993912E+02 -0.10066130176E+02 -0.10064635456E+02  0.19507074241E+02  0.51100000000E-03 0.  1.
         12    1    3    3    0    0  0.15656915998E+02  0.13137971305E+02  0.36937149082E+02  0.42214906027E+02  0.00000000000E+00 0. -1.
</event>
<event>
 7    1  0.3662489E-015  0.9000776E+02  0.7816164E-02  0.1186339E+00
        -11   -1    0    0    0    0  0.00000000000E+00  0.00000000000E+00  0.45593999997E+02  0.45594000000E+02  0.51100000000E-03 0. -1.
         11   -1    0    0    0    0 -0.00000000000E+00 -0.00000000000E+00 -0.45593999997E+02  0.45594000000E+02  0.51100000000E-03 0.  1.
    9900012    2    1    2    0    0 -0.11118506862E+01 -0.39453669144E+00  0.33086375959E-01  0.90007760254E+02  0.90000021890E+02 0.  0.
        -12    1    1    2    0    0  0.11118506862E+01  0.39453669144E+00 -0.33086375959E-01  0.11802397458E+01  0.00000000000E+00 0.  1.
         11    1    3    3    0    0 -0.48355925142E+01 -0.13293162985E+00 -0.32550603973E+02  0.32908090875E+02  0.51100000000E-03 0.  1.
        -11    1    3    3    0    0 -0.15611154280E+02  0.15257497621E+02  0.12223635196E+02  0.25018325869E+02  0.51100000000E-03 0. -1.
         12    1    3    3    0    0  0.19334896108E+02 -0.15519102683E+02  0.20360055152E+02  0.32081343510E+02  0.00000000000E+00 0. -1.
</event>
<event>
 7    1  0.3662489E-015  0.9000774E+02  0.7816164E-02  0.1186339E+00
        -11   -1    0    0    0    0  0.00000000000E+00  0.00000000000E+00  0.45593999997E+02  0.45594000000E+02  0.51100000000E-03 0.  1.
         11   -1    0    0    0    0 -0.00000000000E+00 -0.00000000000E+00 -0.45593999997E+02  0.45594000000E+02  0.51100000000E-03 0. -1.
    9900012    2    1    2    0    0  0.65315079274E-01 -0.99206133987E+00 -0.63606008802E+00  0.90007735539E+02  0.89999996848E+02 0.  0.
        -12    1    1    2    0    0 -0.65315079274E-01  0.99206133987E+00  0.63606008802E+00  0.11802644607E+01  0.00000000000E+00 0.  1.
         11    1    3    3    0    0 -0.12555721510E+02 -0.40986537414E+01  0.42147767558E+01  0.13863962222E+02  0.51100000000E-03 0. -1.
        -11    1    3    3    0    0 -0.51246852853E+01  0.18162313224E+02  0.29279616140E+02  0.34834292623E+02  0.51100000000E-03 0.  1.
         12    1    3    3    0    0  0.17745721875E+02 -0.15055720823E+02 -0.34130452984E+02  0.41309480695E+02  0.00000000000E+00 0. -1.
</event>
<event>
 7    1  0.3662489E-015  0.9000773E+02  0.7816164E-02  0.1186339E+00
        -11   -1    0    0    0    0  0.00000000000E+00  0.00000000000E+00  0.45593999997E+02  0.45594000000E+02  0.51100000000E-03 0.  1.
         11   -1    0    0    0    0 -0.00000000000E+00 -0.00000000000E+00 -0.45593999997E+02  0.45594000000E+02  0.51100000000E-03 0. -1.
    9900012    2    1    2    0    0  0.86014129867E+00 -0.79224969109E+00 -0.15980817553E+00  0.90007728303E+02  0.89999989516E+02 0.  0.
        -12    1    1    2    0    0 -0.86014129867E+00  0.79224969109E+00  0.15980817553E+00  0.11802716974E+01  0.00000000000E+00 0.  1.
         11    1    3    3    0    0 -0.60053104814E+01  0.63662069435E+01 -0.44043853994E+01  0.97974974271E+01  0.51100000000E-03 0. -1.
        -11    1    3    3    0    0  0.22873613616E+02  0.11387407843E+02  0.33448277841E+02  0.42091121962E+02  0.51100000000E-03 0.  1.
         12    1    3    3    0    0 -0.16008161836E+02 -0.18545864478E+02 -0.29203700617E+02  0.38119108913E+02  0.00000000000E+00 0. -1.
</event>
<event>
 7    1  0.3662489E-015  0.9000776E+02  0.7816164E-02  0.1186339E+00
        -11   -1    0    0    0    0  0.00000000000E+00  0.00000000000E+00  0.45593999997E+02  0.45594000000E+02  0.51100000000E-03 0.  1.
         11   -1    0    0    0    0 -0.00000000000E+00 -0.00000000000E+00 -0.45593999997E+02  0.45594000000E+02  0.51100000000E-03 0. -1.
    9900012    2    1    2    0    0  0.11438930964E+00  0.75194727020E+00 -0.90247374156E+00  0.90007759149E+02  0.90000020770E+02 0.  0.
        -12    1    1    2    0    0 -0.11438930964E+00 -0.75194727020E+00  0.90247374156E+00  0.11802408506E+01  0.00000000000E+00 0.  1.
         11    1    3    3    0    0  0.11165002629E+02 -0.38010046123E+02 -0.49756465308E+01  0.39927158034E+02  0.51100000000E-03 0. -1.
        -11    1    3    3    0    0  0.58472668254E+01  0.17569608576E+01  0.70076179321E+01  0.92943074043E+01  0.51100000000E-03 0.  1.
        -12    1    3    3    0    0 -0.16897880145E+02  0.37005032536E+02 -0.29344451428E+01  0.40786293711E+02  0.00000000000E+00 0.  1.
</event>
<event>
 7    1  0.3662489E-015  0.9000774E+02  0.7816164E-02  0.1186339E+00
        -11   -1    0    0    0    0  0.00000000000E+00  0.00000000000E+00  0.45593999997E+02  0.45594000000E+02  0.51100000000E-03 0.  1.
         11   -1    0    0    0    0 -0.00000000000E+00 -0.00000000000E+00 -0.45593999997E+02  0.45594000000E+02  0.51100000000E-03 0. -1.
    9900012    2    1    2    0    0 -0.62767856961E+00  0.95931360665E+00  0.28060842861E+00  0.90007744065E+02  0.90000005486E+02 0.  0.
        -12    1    1    2    0    0  0.62767856961E+00 -0.95931360665E+00 -0.28060842861E+00  0.11802559353E+01  0.00000000000E+00 0.  1.
         11    1    3    3    0    0 -0.40109458350E+01 -0.17123921464E+00  0.11843260621E+02  0.12505192192E+02  0.51100000000E-03 0. -1.
        -11    1    3    3    0    0  0.22640254743E+02  0.32163324646E+02 -0.11503570752E+02  0.40980394428E+02  0.51100000000E-03 0.  1.
         12    1    3    3    0    0 -0.19256987478E+02 -0.31032771825E+02 -0.59081439882E-01  0.36522157446E+02  0.00000000000E+00 0. -1.
</event>
<event>
 7    1  0.3662489E-015  0.9000777E+02  0.7816164E-02  0.1186339E+00
        -11   -1    0    0    0    0  0.00000000000E+00  0.00000000000E+00  0.45593999997E+02  0.45594000000E+02  0.51100000000E-03 0.  1.
         11   -1    0    0    0    0 -0.00000000000E+00 -0.00000000000E+00 -0.45593999997E+02  0.45594000000E+02  0.51100000000E-03 0. -1.
    9900012    2    1    2    0    0  0.51189068570E+00 -0.10393612763E+01 -0.22503564168E+00  0.90007769100E+02  0.90000030852E+02 0.  0.
        -12    1    1    2    0    0 -0.51189068570E+00  0.10393612763E+01  0.22503564168E+00  0.11802308998E+01  0.00000000000E+00 0.  1.
         11    1    3    3    0    0 -0.15568749820E+02  0.50937739501E+01 -0.34582393347E+02  0.38265838994E+02  0.51100000000E-03 0. -1.
        -11    1    3    3    0    0  0.63487362329E+01  0.55316886943E+01 -0.48339006752E+01  0.97094092285E+01  0.51100000000E-03 0.  1.
        -12    1    3    3    0    0  0.97319042731E+01 -0.11664823921E+02  0.39191258381E+02  0.42032520878E+02  0.00000000000E+00 0.  1.
</event>
<event>
 7    1  0.3662489E-015  0.9000768E+02  0.7816164E-02  0.1186339E+00
        -11   -1    0    0    0    0  0.00000000000E+00  0.00000000000E+00  0.45593999997E+02  0.45594000000E+02  0.51100000000E-03 0.  1.
         11   -1    0    0    0    0 -0.00000000000E+00 -0.00000000000E+00 -0.45593999997E+02  0.45594000000E+02  0.51100000000E-03 0. -1.
    9900012    2    1    2    0    0 -0.27421793252E+00 -0.63857517914E+00 -0.95403538356E+00  0.90007679176E+02  0.89999939741E+02 0.  0.
        -12    1    1    2    0    0  0.27421793252E+00  0.63857517914E+00  0.95403538356E+00  0.11803208238E+01  0.00000000000E+00 0.  1.
         11    1    3    3    0    0 -0.39981962732E+02 -0.36962877344E+01  0.12860218264E+02  0.42161654391E+02  0.51100000000E-03 0. -1.
        -11    1    3    3    0    0  0.45964459321E+01 -0.77124199576E+01 -0.14498970188E+01  0.90945554282E+01  0.51100000000E-03 0.  1.
        -12    1    3    3    0    0  0.35111298867E+02  0.10770132513E+02 -0.12364356629E+02  0.38751469357E+02  0.00000000000E+00 0.  1.
</event>
<event>
 7    1  0.3662489E-015  0.9000733E+02  0.7816164E-02  0.1186340E+00
        -11   -1    0    0    0    0  0.00000000000E+00  0.00000000000E+00  0.45593999997E+02  0.45594000000E+02  0.51100000000E-03 0.  1.
         11   -1    0    0    0    0 -0.00000000000E+00 -0.00000000000E+00 -0.45593999997E+02  0.45594000000E+02  0.51100000000E-03 0. -1.
    9900012    2    1    2    0    0  0.52325780710E+00 -0.18869840913E+00 -0.10414303047E+01  0.90007329469E+02  0.89999585417E+02 0.  0.
        -12    1    1    2    0    0 -0.52325780710E+00  0.18869840913E+00  0.10414303047E+01  0.11806705306E+01  0.00000000000E+00 0.  1.
         11    1    3    3    0    0  0.17134236683E+01  0.10744905388E+02  0.18350013897E+02  0.21333350012E+02  0.51100000000E-03 0. -1.
        -11    1    3    3    0    0 -0.12333293879E+02  0.20636884931E+02  0.80836685028E+01  0.25364085914E+02  0.51100000000E-03 0.  1.
         12    1    3    3    0    0  0.11143128018E+02 -0.31570488728E+02 -0.27475112705E+02  0.43309893543E+02  0.00000000000E+00 0. -1.
</event>
<event>
 7    1  0.3662489E-015  0.9000827E+02  0.7816164E-02  0.1186338E+00
        -11   -1    0    0    0    0  0.00000000000E+00  0.00000000000E+00  0.45593999997E+02  0.45594000000E+02  0.51100000000E-03 0.  1.
         11   -1    0    0    0    0 -0.00000000000E+00 -0.00000000000E+00 -0.45593999997E+02  0.45594000000E+02  0.51100000000E-03 0. -1.
    9900012    2    1    2    0    0  0.69107007889E+00 -0.67665672671E+00 -0.67552008075E+00  0.90008267166E+02  0.90000535491E+02 0.  0.
        -12    1    1    2    0    0 -0.69107007889E+00  0.67665672671E+00  0.67552008075E+00  0.11797328338E+01  0.00000000000E+00 0.  1.
         11    1    3    3    0    0  0.50256484271E+00  0.10071846076E+02 -0.34150430884E+02  0.35608237595E+02  0.51100000000E-03 0. -1.
        -11    1    3    3    0    0  0.20732454001E+01  0.64136840207E+01 -0.74112061642E+01  0.10017967173E+02  0.51100000000E-03 0.  1.
        -12    1    3    3    0    0 -0.18847401639E+01 -0.17162186823E+02  0.40886116967E+02  0.44382062398E+02  0.00000000000E+00 0.  1.
</event>
<event>
 7    1  0.3662489E-015  0.9000769E+02  0.7816164E-02  0.1186339E+00
        -11   -1    0    0    0    0  0.00000000000E+00  0.00000000000E+00  0.45593999997E+02  0.45594000000E+02  0.51100000000E-03 0. -1.
         11   -1    0    0    0    0 -0.00000000000E+00 -0.00000000000E+00 -0.45593999997E+02  0.45594000000E+02  0.51100000000E-03 0.  1.
    9900012    2    1    2    0    0 -0.33978924917E+00  0.69399599677E+00  0.89220675467E+00  0.90007694925E+02  0.89999955698E+02 0.  0.
        -12    1    1    2    0    0  0.33978924917E+00 -0.69399599677E+00 -0.89220675467E+00  0.11803050752E+01  0.00000000000E+00 0.  1.
         11    1    3    3    0    0 -0.68713084600E+01 -0.31370963648E+00  0.87866168006E+01  0.11158760180E+02  0.51100000000E-03 0. -1.
        -11    1    3    3    0    0 -0.16332009533E+02 -0.20359774889E+02 -0.30574779082E+02  0.40200399066E+02  0.51100000000E-03 0.  1.
         12    1    3    3    0    0  0.22863528744E+02  0.21367480522E+02  0.22680369036E+02  0.38648535679E+02  0.00000000000E+00 0. -1.
</event>
<event>
 7    1  0.4289453E-015  0.9000782E+02  0.7816164E-02  0.1186339E+00
        -11   -1    0    0    0    0  0.00000000000E+00  0.00000000000E+00  0.45593999997E+02  0.45594000000E+02  0.51100000000E-03 0.  1.
         11   -1    0    0    0    0 -0.00000000000E+00 -0.00000000000E+00 -0.45593999997E+02  0.45594000000E+02  0.51100000000E-03 0. -1.
    9900012    2    1    2    0    0 -0.44422826964E+00  0.53463527013E+00  0.95375905144E+00  0.90007817829E+02  0.90000080225E+02 0.  0.
        -12    1    1    2    0    0  0.44422826964E+00 -0.53463527013E+00 -0.95375905144E+00  0.11801821706E+01  0.00000000000E+00 0.  1.
         11    1    3    3    0    0  0.29132086234E+02  0.19776990334E+02  0.16515783140E+02  0.38891887174E+02  0.51100000000E-03 0. -1.
        -11    1    3    3    0    0 -0.54028556279E+01  0.52064298617E+01  0.67800188202E+01  0.10112685909E+02  0.51100000000E-03 0.  1.
        -12    1    3    3    0    0 -0.24173458876E+02 -0.24448784925E+02 -0.22342042908E+02  0.41003244746E+02  0.00000000000E+00 0.  1.
</event>
<event>
 7    1  0.3662489E-015  0.9000773E+02  0.7816164E-02  0.1186339E+00
        -11   -1    0    0    0    0  0.00000000000E+00  0.00000000000E+00  0.45593999997E+02  0.45594000000E+02  0.51100000000E-03 0.  1.
         11   -1    0    0    0    0 -0.00000000000E+00 -0.00000000000E+00 -0.45593999997E+02  0.45594000000E+02  0.51100000000E-03 0. -1.
    9900012    2    1    2    0    0 -0.15041913405E+00  0.55884894755E+00 -0.10286437326E+01  0.90007726307E+02  0.89999987494E+02 0.  0.
        -12    1    1    2    0    0  0.15041913405E+00 -0.55884894755E+00  0.10286437326E+01  0.11802736931E+01  0.00000000000E+00 0.  1.
         11    1    3    3    0    0  0.97751251930E+01 -0.27348373548E+02 -0.25869955264E+02  0.38893973748E+02  0.51100000000E-03 0. -1.
        -11    1    3    3    0    0  0.23183112520E+01 -0.69760060071E+01  0.66420977982E+01  0.99074058307E+01  0.51100000000E-03 0.  1.
        -12    1    3    3    0    0 -0.12243855579E+02  0.34883228503E+02  0.18199213733E+02  0.41206346729E+02  0.00000000000E+00 0.  1.
</event>
<event>
 7    1  0.3662489E-015  0.9000773E+02  0.7816164E-02  0.1186339E+00
        -11   -1    0    0    0    0  0.00000000000E+00  0.00000000000E+00  0.45593999997E+02  0.45594000000E+02  0.51100000000E-03 0. -1.
         11   -1    0    0    0    0 -0.00000000000E+00 -0.00000000000E+00 -0.45593999997E+02  0.45594000000E+02  0.51100000000E-03 0.  1.
    9900012    2    1    2    0    0 -0.79653756511E+00 -0.75262314680E+00  0.43831380171E+00  0.90007731945E+02  0.89999993206E+02 0.  0.
        -12    1    1    2    0    0  0.79653756511E+00  0.75262314680E+00 -0.43831380171E+00  0.11802680554E+01  0.00000000000E+00 0.  1.
         11    1    3    3    0    0  0.61768270247E+01 -0.52666809337E+01 -0.32368317378E+01  0.87388900960E+01  0.51100000000E-03 0. -1.
        -11    1    3    3    0    0  0.18167636700E+02  0.23714920504E+02 -0.24707898843E+02  0.38767779705E+02  0.51100000000E-03 0.  1.
         12    1    3    3    0    0 -0.25141001290E+02 -0.19200862717E+02  0.28383044382E+02  0.42501062144E+02  0.00000000000E+00 0. -1.
</event>
<event>
 7    1  0.3662489E-015  0.9000773E+02  0.7816164E-02  0.1186339E+00
        -11   -1    0    0    0    0  0.00000000000E+00  0.00000000000E+00  0.45593999997E+02  0.45594000000E+02  0.51100000000E-03 0.  1.
         11   -1    0    0    0    0 -0.00000000000E+00 -0.00000000000E+00 -0.45593999997E+02  0.45594000000E+02  0.51100000000E-03 0. -1.
    9900012    2    1    2    0    0 -0.49649138324E-01 -0.11761786827E+01  0.84772856329E-01  0.90007725554E+02  0.89999986731E+02 0.  0.
        -12    1    1    2    0    0  0.49649138324E-01  0.11761786827E+01 -0.84772856329E-01  0.11802744460E+01  0.00000000000E+00 0.  1.
         11    1    3    3    0    0 -0.13638715542E+02  0.27151589528E+02 -0.29613938330E+02  0.42428866579E+02  0.51100000000E-03 0. -1.
        -11    1    3    3    0    0 -0.41965376125E+01 -0.28793113906E+01  0.87579979171E+01  0.10129357818E+02  0.51100000000E-03 0.  1.
        -12    1    3    3    0    0  0.17785604016E+02 -0.25448456820E+02  0.20940713269E+02  0.37449501158E+02  0.00000000000E+00 0.  1.
</event>
<event>
 7    1  0.3662489E-015  0.9000774E+02  0.7816164E-02  0.1186339E+00
        -11   -1    0    0    0    0  0.00000000000E+00  0.00000000000E+00  0.45593999997E+02  0.45594000000E+02  0.51100000000E-03 0.  1.
         11   -1    0    0    0    0 -0.00000000000E+00 -0.00000000000E+00 -0.45593999997E+02  0.45594000000E+02  0.51100000000E-03 0. -1.
    9900012    2    1    2    0    0  0.79034950474E+00  0.16050664444E+00 -0.86173497811E+00  0.90007744987E+02  0.90000006421E+02 0.  0.
        -12    1    1    2    0    0 -0.79034950474E+00 -0.16050664444E+00  0.86173497811E+00  0.11802550127E+01  0.00000000000E+00 0.  1.
         11    1    3    3    0    0 -0.47687770295E+01 -0.63931107816E+01  0.53796518686E+01  0.96204861785E+01  0.51100000000E-03 0. -1.
        -11    1    3    3    0    0 -0.20750532531E+02 -0.26254089294E+01  0.28814756567E+02  0.35605723819E+02  0.51100000000E-03 0.  1.
         12    1    3    3    0    0  0.26309659066E+02  0.91790263555E+01 -0.35056143414E+02  0.44781534990E+02  0.00000000000E+00 0. -1.
</event>
<event>
 7    1  0.3662489E-015  0.9000793E+02  0.7816164E-02  0.1186339E+00
        -11   -1    0    0    0    0  0.00000000000E+00  0.00000000000E+00  0.45593999997E+02  0.45594000000E+02  0.51100000000E-03 0.  1.
         11   -1    0    0    0    0 -0.00000000000E+00 -0.00000000000E+00 -0.45593999997E+02  0.45594000000E+02  0.51100000000E-03 0. -1.
    9900012    2    1    2    0    0  0.79551892642E+00  0.77062642483E+00 -0.40723948941E+00  0.90007932438E+02  0.90000196346E+02 0.  0.
        -12    1    1    2    0    0 -0.79551892642E+00 -0.77062642483E+00  0.40723948941E+00  0.11800675619E+01  0.00000000000E+00 0.  1.
         11    1    3    3    0    0 -0.25993322478E+02 -0.26837678493E+02 -0.15711306051E+02  0.40530962713E+02  0.51100000000E-03 0. -1.
        -11    1    3    3    0    0 -0.13110916369E+01  0.88322012473E+01 -0.48165171040E+01  0.10145224366E+02  0.51100000000E-03 0.  1.
        -12    1    3    3    0    0  0.28099933041E+02  0.18776103671E+02  0.20120583666E+02  0.39331745360E+02  0.00000000000E+00 0.  1.
</event>
<event>
 7    1  0.3662489E-015  0.9000774E+02  0.7816164E-02  0.1186339E+00
        -11   -1    0    0    0    0  0.00000000000E+00  0.00000000000E+00  0.45593999997E+02  0.45594000000E+02  0.51100000000E-03 0. -1.
         11   -1    0    0    0    0 -0.00000000000E+00 -0.00000000000E+00 -0.45593999997E+02  0.45594000000E+02  0.51100000000E-03 0.  1.
    9900012    2    1    2    0    0  0.69156478583E-01 -0.10993480107E+00  0.11730924803E+01  0.90007739755E+02  0.90000001120E+02 0.  0.
        -12    1    1    2    0    0 -0.69156478583E-01  0.10993480107E+00 -0.11730924803E+01  0.11802602452E+01  0.00000000000E+00 0.  1.
         11    1    3    3    0    0  0.10873960382E+02 -0.23957238261E+02  0.25252588513E+02  0.36467595292E+02  0.51100000000E-03 0. -1.
        -11    1    3    3    0    0  0.62824991055E+01  0.51826237184E+01  0.88392253731E+01  0.12019205010E+02  0.51100000000E-03 0.  1.
        -12    1    3    3    0    0 -0.17087303009E+02  0.18664679742E+02 -0.32918721406E+02  0.41520939452E+02  0.00000000000E+00 0.  1.
</event>
<event>
 7    1  0.3662489E-015  0.9000776E+02  0.7816164E-02  0.1186339E+00
        -11   -1    0    0    0    0  0.00000000000E+00  0.00000000000E+00  0.45593999997E+02  0.45594000000E+02  0.51100000000E-03 0. -1.
         11   -1    0    0    0    0 -0.00000000000E+00 -0.00000000000E+00 -0.45593999997E+02  0.45594000000E+02  0.51100000000E-03 0.  1.
    9900012    2    1    2    0    0 -0.95408764756E-01 -0.72135050053E+00  0.92925882001E+00  0.90007757935E+02  0.90000019540E+02 0.  0.
        -12    1    1    2    0    0  0.95408764756E-01  0.72135050053E+00 -0.92925882001E+00  0.11802420648E+01  0.00000000000E+00 0.  1.
         11    1    3    3    0    0  0.37296788190E+02  0.15496199605E+02 -0.84682765140E+01  0.41266140101E+02  0.51100000000E-03 0. -1.
        -11    1    3    3    0    0 -0.76560017570E+00 -0.92415199961E+01  0.65397218287E+01  0.11347237431E+02  0.51100000000E-03 0.  1.
        -12    1    3    3    0    0 -0.36626596779E+02 -0.69760301090E+01  0.28578135053E+01  0.37394380403E+02  0.00000000000E+00 0.  1.
</event>
<event>
 7    1  0.3662489E-015  0.9000769E+02  0.7816164E-02  0.1186339E+00
        -11   -1    0    0    0    0  0.00000000000E+00  0.00000000000E+00  0.45593999997E+02  0.45594000000E+02  0.51100000000E-03 0. -1.
         11   -1    0    0    0    0 -0.00000000000E+00 -0.00000000000E+00 -0.45593999997E+02  0.45594000000E+02  0.51100000000E-03 0.  1.
    9900012    2    1    2    0    0 -0.21486699448E+00  0.91824120973E+00  0.70978717518E+00  0.90007689626E+02  0.89999950329E+02 0.  0.
        -12    1    1    2    0    0  0.21486699448E+00 -0.91824120973E+00 -0.70978717518E+00  0.11803103738E+01  0.00000000000E+00 0.  1.
         11    1    3    3    0    0 -0.57264826020E+01 -0.51893613420E+00 -0.90425794316E+01  0.10715882639E+02  0.51100000000E-03 0. -1.
        -11    1    3    3    0    0 -0.24176278915E+02  0.24524211695E+02 -0.11235177319E+02  0.36223730221E+02  0.51100000000E-03 0.  1.
         12    1    3    3    0    0  0.29687894522E+02 -0.23087034351E+02  0.20987543926E+02  0.43068076766E+02  0.00000000000E+00 0. -1.
</event>
<event>
 7    1  0.3662489E-015  0.9000773E+02  0.7816164E-02  0.1186339E+00
        -11   -1    0    0    0    0  0.00000000000E+00  0.00000000000E+00  0.45593999997E+02  0.45594000000E+02  0.51100000000E-03 0.  1.
         11   -1    0    0    0    0 -0.00000000000E+00 -0.00000000000E+00 -0.45593999997E+02  0.45594000000E+02  0.51100000000E-03 0. -1.
    9900012    2    1    2    0    0  0.36090761697E-01 -0.68750027102E+00 -0.95869140711E+00  0.90007725295E+02  0.89999986469E+02 0.  0.
        -12    1    1    2    0    0 -0.36090761697E-01  0.68750027102E+00  0.95869140711E+00  0.11802747052E+01  0.00000000000E+00 0.  1.
         11    1    3    3    0    0 -0.86620679869E+01  0.26775793827E+02 -0.23405578222E+02  0.36603219108E+02  0.51100000000E-03 0. -1.
        -11    1    3    3    0    0  0.61241399693E+01  0.26357884502E+01  0.22215773394E+02  0.23194677383E+02  0.51100000000E-03 0.  1.
        -12    1    3    3    0    0  0.25740187794E+01 -0.30099082549E+02  0.23111342057E+00  0.30209828804E+02  0.00000000000E+00 0.  1.
</event>
<event>
 7    1  0.3662489E-015  0.9000771E+02  0.7816164E-02  0.1186339E+00
        -11   -1    0    0    0    0  0.00000000000E+00  0.00000000000E+00  0.45593999997E+02  0.45594000000E+02  0.51100000000E-03 0.  1.
         11   -1    0    0    0    0 -0.00000000000E+00 -0.00000000000E+00 -0.45593999997E+02  0.45594000000E+02  0.51100000000E-03 0. -1.
    9900012    2    1    2    0    0  0.70612430851E+00 -0.16734445712E+00 -0.93083821856E+00  0.90007713808E+02  0.89999974830E+02 0.  0.
        -12    1    1    2    0    0 -0.70612430851E+00  0.16734445712E+00  0.93083821856E+00  0.11802861922E+01  0.00000000000E+00 0.  1.
         11    1    3    3    0    0  0.81110336135E+01  0.57541307055E+01 -0.30374422544E+01  0.10398314391E+02  0.51100000000E-03 0. -1.
        -11    1    3    3    0    0  0.18817899070E+02  0.28497087387E+02 -0.82187895042E+01  0.35124718022E+02  0.51100000000E-03 0.  1.
         12    1    3    3    0    0 -0.26222808375E+02 -0.34418562549E+02  0.10325393540E+02  0.44484681395E+02  0.00000000000E+00 0. -1.
</event>
<event>
 7    1  0.3662489E-015  0.9000751E+02  0.7816164E-02  0.1186340E+00
        -11   -1    0    0    0    0  0.00000000000E+00  0.00000000000E+00  0.45593999997E+02  0.45594000000E+02  0.51100000000E-03 0. -1.
         11   -1    0    0    0    0 -0.00000000000E+00 -0.00000000000E+00 -0.45593999997E+02  0.45594000000E+02  0.51100000000E-03 0.  1.
    9900012    2    1    2    0    0 -0.93513396660E+00  0.70711598699E+00 -0.13808946247E+00  0.90007509740E+02  0.89999768068E+02 0.  0.
        -12    1    1    2    0    0  0.93513396660E+00 -0.70711598699E+00  0.13808946247E+00  0.11804902601E+01  0.00000000000E+00 0.  1.
         11    1    3    3    0    0 -0.19638325404E+02  0.97119576245E+01  0.40166463552E+00  0.21912263240E+02  0.51100000000E-03 0. -1.
        -11    1    3    3    0    0 -0.12174382920E+02  0.15469285652E+02 -0.16400493191E+02  0.25622072032E+02  0.51100000000E-03 0.  1.
         12    1    3    3    0    0  0.30877574357E+02 -0.24474127290E+02  0.15860739093E+02  0.42473174467E+02  0.00000000000E+00 0. -1.
</event>
<event>
 7    1  0.3662489E-015  0.9000777E+02  0.7816164E-02  0.1186339E+00
        -11   -1    0    0    0    0  0.00000000000E+00  0.00000000000E+00  0.45593999997E+02  0.45594000000E+02  0.51100000000E-03 0. -1.
         11   -1    0    0    0    0 -0.00000000000E+00 -0.00000000000E+00 -0.45593999997E+02  0.45594000000E+02  0.51100000000E-03 0.  1.
    9900012    2    1    2    0    0 -0.63828890248E+00 -0.67589792590E+00  0.72711241889E+00  0.90007769853E+02  0.90000031615E+02 0.  0.
        -12    1    1    2    0    0  0.63828890248E+00  0.67589792590E+00 -0.72711241889E+00  0.11802301466E+01  0.00000000000E+00 0.  1.
         11    1    3    3    0    0  0.26134197168E+02  0.20359558507E+02  0.12663930215E+02  0.35466646486E+02  0.51100000000E-03 0. -1.
        -11    1    3    3    0    0  0.83025776757E+01  0.29376748577E+01  0.33023183790E+01  0.94057448705E+01  0.51100000000E-03 0.  1.
        -12    1    3    3    0    0 -0.35075063746E+02 -0.23973131291E+02 -0.15239136176E+02  0.45135378497E+02  0.00000000000E+00 0.  1.
</event>
<event>
 7    1  0.3662489E-015  0.9000747E+02  0.7816164E-02  0.1186340E+00
        -11   -1    0    0    0    0  0.00000000000E+00  0.00000000000E+00  0.45593999997E+02  0.45594000000E+02  0.51100000000E-03 0. -1.
         11   -1    0    0    0    0 -0.00000000000E+00 -0.00000000000E+00 -0.45593999997E+02  0.45594000000E+02  0.51100000000E-03 0.  1.
    9900012    2    1    2    0    0  0.80854788766E+00 -0.59576663567E+00 -0.62044632348E+00  0.90007474180E+02  0.89999732039E+02 0.  0.
        -12    1    1    2    0    0 -0.80854788766E+00  0.59576663567E+00  0.62044632348E+00  0.11805258198E+01  0.00000000000E+00 0.  1.
         11    1    3    3    0    0  0.28199999030E+02 -0.59884614485E+01  0.23896135072E+02  0.37444984810E+02  0.51100000000E-03 0. -1.
        -11    1    3    3    0    0  0.39459010560E+01  0.80570154096E+01  0.42619932803E+01  0.99322816833E+01  0.51100000000E-03 0.  1.
        -12    1    3    3    0    0 -0.31337352198E+02 -0.26643205968E+01 -0.28778574675E+02  0.42630207687E+02  0.00000000000E+00 0.  1.
</event>
<event>
 7    1  0.3662489E-015  0.9000778E+02  0.7816164E-02  0.1186339E+00
        -11   -1    0    0    0    0  0.00000000000E+00  0.00000000000E+00  0.45593999997E+02  0.45594000000E+02  0.51100000000E-03 0. -1.
         11   -1    0    0    0    0 -0.00000000000E+00 -0.00000000000E+00 -0.45593999997E+02  0.45594000000E+02  0.51100000000E-03 0.  1.
    9900012    2    1    2    0    0 -0.53702286058E+00  0.79500904001E+00  0.68737522642E+00  0.90007780686E+02  0.90000042591E+02 0.  0.
        -12    1    1    2    0    0  0.53702286058E+00 -0.79500904001E+00 -0.68737522642E+00  0.11802193137E+01  0.00000000000E+00 0.  1.
         11    1    3    3    0    0 -0.19812296556E+02 -0.30132391498E+02  0.22717254868E+02  0.42621142421E+02  0.51100000000E-03 0. -1.
        -11    1    3    3    0    0  0.40186388626E+01 -0.13198641886E+01 -0.80064413826E+01  0.90550871702E+01  0.51100000000E-03 0.  1.
        -12    1    3    3    0    0  0.15256634833E+02  0.32247264727E+02 -0.14023438259E+02  0.38331551096E+02  0.00000000000E+00 0.  1.
</event>
<event>
 7    1  0.3662489E-015  0.9000786E+02  0.7816164E-02  0.1186339E+00
        -11   -1    0    0    0    0  0.00000000000E+00  0.00000000000E+00  0.45593999997E+02  0.45594000000E+02  0.51100000000E-03 0.  1.
         11   -1    0    0    0    0 -0.00000000000E+00 -0.00000000000E+00 -0.45593999997E+02  0.45594000000E+02  0.51100000000E-03 0. -1.
    9900012    2    1    2    0    0  0.37197916211E+00  0.74094671135E+00 -0.83985197681E+00  0.90007863623E+02  0.90000126622E+02 0.  0.
        -12    1    1    2    0    0 -0.37197916211E+00 -0.74094671135E+00  0.83985197681E+00  0.11801363773E+01  0.00000000000E+00 0.  1.
         11    1    3    3    0    0 -0.15187489036E+02 -0.17795853803E+02 -0.32261392811E+02  0.39851595980E+02  0.51100000000E-03 0. -1.
        -11    1    3    3    0    0 -0.29437904125E+01  0.55004520753E+01 -0.45042603849E+01  0.76947538558E+01  0.51100000000E-03 0.  1.
        -12    1    3    3    0    0  0.18503258610E+02  0.13036348439E+02  0.35925801219E+02  0.42461513787E+02  0.00000000000E+00 0.  1.
</event>
<event>
 7    1  0.3662489E-015  0.9000773E+02  0.7816164E-02  0.1186339E+00
        -11   -1    0    0    0    0  0.00000000000E+00  0.00000000000E+00  0.45593999997E+02  0.45594000000E+02  0.51100000000E-03 0.  1.
         11   -1    0    0    0    0 -0.00000000000E+00 -0.00000000000E+00 -0.45593999997E+02  0.45594000000E+02  0.51100000000E-03 0. -1.
    9900012    2    1    2    0    0 -0.12364090295E+00 -0.20377102671E+00 -0.11559535881E+01  0.90007729522E+02  0.89999990751E+02 0.  0.
        -12    1    1    2    0    0  0.12364090295E+00  0.20377102671E+00  0.11559535881E+01  0.11802704784E+01  0.00000000000E+00 0.  1.
         11    1    3    3    0    0 -0.29747981417E+02 -0.21468788503E+02 -0.31157945349E+01  0.36817923000E+02  0.51100000000E-03 0. -1.
        -11    1    3    3    0    0 -0.94149673494E+01  0.57141146828E+01 -0.10277545851E+01  0.11061148066E+02  0.51100000000E-03 0.  1.
        -12    1    3    3    0    0  0.39039307864E+02  0.15550902793E+02  0.29875955318E+01  0.42128658455E+02  0.00000000000E+00 0.  1.
</event>
<event>
 7    1  0.3662489E-015  0.9000776E+02  0.7816164E-02  0.1186339E+00
        -11   -1    0    0    0    0  0.00000000000E+00  0.00000000000E+00  0.45593999997E+02  0.45594000000E+02  0.51100000000E-03 0.  1.
         11   -1    0    0    0    0 -0.00000000000E+00 -0.00000000000E+00 -0.45593999997E+02  0.45594000000E+02  0.51100000000E-03 0. -1.
    9900012    2    1    2    0    0 -0.10698238130E+01 -0.87705079803E-02 -0.49836809268E+00  0.90007758216E+02  0.90000019825E+02 0.  0.
        -12    1    1    2    0    0  0.10698238130E+01  0.87705079803E-02  0.49836809268E+00  0.11802417839E+01  0.00000000000E+00 0.  1.
         11    1    3    3    0    0 -0.21791522493E+02  0.34682429071E+02  0.79124148239E+01  0.41717474126E+02  0.51100000000E-03 0. -1.
        -11    1    3    3    0    0  0.77875893535E+01  0.22223160866E+01  0.70199801045E+00  0.81288399046E+01  0.51100000000E-03 0.  1.
        -12    1    3    3    0    0  0.12934109326E+02 -0.36913515666E+02 -0.91127809271E+01  0.40161444186E+02  0.00000000000E+00 0.  1.
</event>
<event>
 7    1  0.3662489E-015  0.9000757E+02  0.7816164E-02  0.1186339E+00
        -11   -1    0    0    0    0  0.00000000000E+00  0.00000000000E+00  0.45593999997E+02  0.45594000000E+02  0.51100000000E-03 0.  1.
         11   -1    0    0    0    0 -0.00000000000E+00 -0.00000000000E+00 -0.45593999997E+02  0.45594000000E+02  0.51100000000E-03 0. -1.
    9900012    2    1    2    0    0 -0.13824687234E+00  0.10558275616E+01  0.50944081089E+00  0.90007570427E+02  0.89999829556E+02 0.  0.
        -12    1    1    2    0    0  0.13824687234E+00 -0.10558275616E+01 -0.50944081089E+00  0.11804295732E+01  0.00000000000E+00 0.  1.
         11    1    3    3    0    0 -0.40472134977E+01  0.77406828392E+01 -0.11464821622E+01  0.88097973599E+01  0.51100000000E-03 0. -1.
        -11    1    3    3    0    0  0.11387043748E+02 -0.98404827791E+01  0.39616659912E+02  0.42378999628E+02  0.51100000000E-03 0.  1.
         12    1    3    3    0    0 -0.74780771231E+01  0.31556275015E+01 -0.37960736939E+02  0.38818773439E+02  0.00000000000E+00 0. -1.
</event>
<event>
 7    1  0.3662489E-015  0.9000769E+02  0.7816164E-02  0.1186339E+00
        -11   -1    0    0    0    0  0.00000000000E+00  0.00000000000E+00  0.45593999997E+02  0.45594000000E+02  0.51100000000E-03 0. -1.
         11   -1    0    0    0    0 -0.00000000000E+00 -0.00000000000E+00 -0.45593999997E+02  0.45594000000E+02  0.51100000000E-03 0.  1.
    9900012    2    1    2    0    0 -0.11038957299E+01  0.41765756661E+00 -0.10360469669E-01  0.90007690310E+02  0.89999951022E+02 0.  0.
        -12    1    1    2    0    0  0.11038957299E+01 -0.41765756661E+00  0.10360469669E-01  0.11803096902E+01  0.00000000000E+00 0.  1.
         11    1    3    3    0    0 -0.73242236471E+01  0.78708679581E+01  0.21371343058E+01  0.10961850106E+02  0.51100000000E-03 0. -1.
        -11    1    3    3    0    0 -0.16732241603E+02 -0.27488939791E+02  0.22988227055E+02  0.39548303419E+02  0.51100000000E-03 0.  1.
         12    1    3    3    0    0  0.22952569521E+02  0.20035729400E+02 -0.25135721830E+02  0.39497536785E+02  0.00000000000E+00 0. -1.
</event>
<event>
 7    1  0.3662489E-015  0.9000670E+02  0.7816164E-02  0.1186341E+00
        -11   -1    0    0    0    0  0.00000000000E+00  0.00000000000E+00  0.45593999997E+02  0.45594000000E+02  0.51100000000E-03 0.  1.
         11   -1    0    0    0    0 -0.00000000000E+00 -0.00000000000E+00 -0.45593999997E+02  0.45594000000E+02  0.51100000000E-03 0. -1.
    9900012    2    1    2    0    0 -0.63415059168E-01  0.63919485984E+00 -0.99140767093E+00  0.90006695336E+02  0.89998942909E+02 0.  0.
        -12    1    1    2    0    0  0.63415059168E-01 -0.63919485984E+00  0.99140767093E+00  0.11813046637E+01  0.00000000000E+00 0.  1.
         11    1    3    3    0    0  0.22128311804E+02  0.26651570643E+02 -0.13812898014E+02  0.37292955807E+02  0.51100000000E-03 0. -1.
        -11    1    3    3    0    0  0.84685893637E+01  0.29360859887E+01  0.23288140297E+01  0.92607225307E+01  0.51100000000E-03 0.  1.
        -12    1    3    3    0    0 -0.30660316227E+02 -0.28948461772E+02  0.10492676313E+02  0.43453016999E+02  0.00000000000E+00 0.  1.
</event>
<event>
 7    1  0.3662489E-015  0.9000760E+02  0.7816164E-02  0.1186339E+00
        -11   -1    0    0    0    0  0.00000000000E+00  0.00000000000E+00  0.45593999997E+02  0.45594000000E+02  0.51100000000E-03 0.  1.
         11   -1    0    0    0    0 -0.00000000000E+00 -0.00000000000E+00 -0.45593999997E+02  0.45594000000E+02  0.51100000000E-03 0. -1.
    9900012    2    1    2    0    0  0.83270175311E+00  0.45552182029E+00 -0.70174391388E+00  0.90007603093E+02  0.89999862653E+02 0.  0.
        -12    1    1    2    0    0 -0.83270175311E+00 -0.45552182029E+00  0.70174391388E+00  0.11803969074E+01  0.00000000000E+00 0.  1.
         11    1    3    3    0    0  0.32132335908E+02 -0.15161679240E+02 -0.16502679528E+02  0.39175272305E+02  0.51100000000E-03 0. -1.
        -11    1    3    3    0    0  0.43165791710E+01 -0.40931436715E+01  0.69984636999E+01  0.91850517296E+01  0.51100000000E-03 0.  1.
        -12    1    3    3    0    0 -0.35616213326E+02  0.19710344732E+02  0.88024719139E+01  0.41647279058E+02  0.00000000000E+00 0.  1.
</event>
<event>
 7    1  0.3662489E-015  0.9000780E+02  0.7816164E-02  0.1186339E+00
        -11   -1    0    0    0    0  0.00000000000E+00  0.00000000000E+00  0.45593999997E+02  0.45594000000E+02  0.51100000000E-03 0.  1.
         11   -1    0    0    0    0 -0.00000000000E+00 -0.00000000000E+00 -0.45593999997E+02  0.45594000000E+02  0.51100000000E-03 0. -1.
    9900012    2    1    2    0    0 -0.36829217953E+00  0.11148941524E+01 -0.11934001107E+00  0.90007800805E+02  0.90000062976E+02 0.  0.
        -12    1    1    2    0    0  0.36829217953E+00 -0.11148941524E+01  0.11934001107E+00  0.11801991945E+01  0.00000000000E+00 0.  1.
         11    1    3    3    0    0 -0.35247243642E+01 -0.84966397244E+01 -0.39670221010E+02  0.40722757811E+02  0.51100000000E-03 0. -1.
        -11    1    3    3    0    0 -0.63109698266E+01 -0.59187848144E+01  0.43989264316E+01  0.97062303621E+01  0.51100000000E-03 0.  1.
        -12    1    3    3    0    0  0.94674020113E+01  0.15530318691E+02  0.35151954568E+02  0.39578812633E+02  0.00000000000E+00 0.  1.
</event>
<event>
 7    1  0.3662489E-015  0.9000775E+02  0.7816164E-02  0.1186339E+00
        -11   -1    0    0    0    0  0.00000000000E+00  0.00000000000E+00  0.45593999997E+02  0.45594000000E+02  0.51100000000E-03 0. -1.
         11   -1    0    0    0    0 -0.00000000000E+00 -0.00000000000E+00 -0.45593999997E+02  0.45594000000E+02  0.51100000000E-03 0.  1.
    9900012    2    1    2    0    0 -0.31158869483E+00  0.11312623634E+01  0.12709240488E+00  0.90007748108E+02  0.90000009583E+02 0.  0.
        -12    1    1    2    0    0  0.31158869483E+00 -0.11312623634E+01 -0.12709240488E+00  0.11802518922E+01  0.00000000000E+00 0.  1.
         11    1    3    3    0    0 -0.58617178810E+01  0.72139942717E+01  0.24550813708E+01  0.96139936897E+01  0.51100000000E-03 0. -1.
        -11    1    3    3    0    0 -0.17334988734E+02 -0.17301089994E+02  0.30319656469E+02  0.38975776042E+02  0.51100000000E-03 0.  1.
         12    1    3    3    0    0  0.22885117920E+02  0.11218358086E+02 -0.32647645435E+02  0.41417978376E+02  0.00000000000E+00 0. -1.
</event>
<event>
 7    1  0.3662489E-015  0.9000766E+02  0.7816164E-02  0.1186339E+00
        -11   -1    0    0    0    0  0.00000000000E+00  0.00000000000E+00  0.45593999997E+02  0.45594000000E+02  0.51100000000E-03 0. -1.
         11   -1    0    0    0    0 -0.00000000000E+00 -0.00000000000E+00 -0.45593999997E+02  0.45594000000E+02  0.51100000000E-03 0.  1.
    9900012    2    1    2    0    0  0.63769717961E+00  0.30576115881E+00  0.94501980725E+00  0.90007656823E+02  0.89999917093E+02 0.  0.
        -12    1    1    2    0    0 -0.63769717961E+00 -0.30576115881E+00 -0.94501980725E+00  0.11803431769E+01  0.00000000000E+00 0.  1.
         11    1    3    3    0    0  0.11688246331E+02  0.32754076791E+01  0.69924737526E+00  0.12158632527E+02  0.51100000000E-03 0. -1.
        -11    1    3    3    0    0 -0.56491498676E+01 -0.19650441201E+02 -0.33828964869E+02  0.39527858506E+02  0.51100000000E-03 0.  1.
         12    1    3    3    0    0 -0.54013992840E+01  0.16680794681E+02  0.34074737301E+02  0.38321165791E+02  0.00000000000E+00 0. -1.
</event>
<event>
 7    1  0.3662489E-015  0.9000770E+02  0.7816164E-02  0.1186339E+00
        -11   -1    0    0    0    0  0.00000000000E+00  0.00000000000E+00  0.45593999997E+02  0.45594000000E+02  0.51100000000E-03 0. -1.
         11   -1    0    0    0    0 -0.00000000000E+00 -0.00000000000E+00 -0.45593999997E+02  0.45594000000E+02  0.51100000000E-03 0.  1.
    9900012    2    1    2    0    0  0.23043579928E+00  0.52577307780E+00  0.10312984375E+01  0.90007697304E+02  0.89999958108E+02 0.  0.
        -12    1    1    2    0    0 -0.23043579928E+00 -0.52577307780E+00 -0.10312984375E+01  0.11803026960E+01  0.00000000000E+00 0.  1.
         11    1    3    3    0    0 -0.82098872300E+01  0.31783368697E+00  0.53931410001E+01  0.98279823306E+01  0.51100000000E-03 0. -1.
        -11    1    3    3    0    0 -0.33377540237E+02 -0.90748840170E+01  0.81845423329E+01  0.35544344777E+02  0.51100000000E-03 0.  1.
         12    1    3    3    0    0  0.41817863266E+02  0.92828234078E+01 -0.12546384896E+02  0.44635370196E+02  0.00000000000E+00 0. -1.
</event>
<event>
 7    1  0.3662489E-015  0.9000772E+02  0.7816164E-02  0.1186339E+00
        -11   -1    0    0    0    0  0.00000000000E+00  0.00000000000E+00  0.45593999997E+02  0.45594000000E+02  0.51100000000E-03 0.  1.
         11   -1    0    0    0    0 -0.00000000000E+00 -0.00000000000E+00 -0.45593999997E+02  0.45594000000E+02  0.51100000000E-03 0. -1.
    9900012    2    1    2    0    0 -0.55087315233E+00  0.10380826625E+01  0.10945557911E+00  0.90007721487E+02  0.89999982611E+02 0.  0.
        -12    1    1    2    0    0  0.55087315233E+00 -0.10380826625E+01 -0.10945557911E+00  0.11802785128E+01  0.00000000000E+00 0.  1.
         11    1    3    3    0    0 -0.31874124329E+02  0.11088452042E+02 -0.22949349722E+02  0.40811594227E+02  0.51100000000E-03 0. -1.
        -11    1    3    3    0    0 -0.37137151713E+01 -0.74409721313E+01  0.47685919028E+01  0.95864078584E+01  0.51100000000E-03 0.  1.
        -12    1    3    3    0    0  0.35036966348E+02 -0.26093972487E+01  0.18290213398E+02  0.39609719401E+02  0.00000000000E+00 0.  1.
</event>
<event>
 7    1  0.3662489E-015  0.9000778E+02  0.7816164E-02  0.1186339E+00
        -11   -1    0    0    0    0  0.00000000000E+00  0.00000000000E+00  0.45593999997E+02  0.45594000000E+02  0.51100000000E-03 0.  1.
         11   -1    0    0    0    0 -0.00000000000E+00 -0.00000000000E+00 -0.45593999997E+02  0.45594000000E+02  0.51100000000E-03 0. -1.
    9900012    2    1    2    0    0 -0.10506858211E+01 -0.10714920869E+00 -0.52679071006E+00  0.90007775403E+02  0.90000037238E+02 0.  0.
        -12    1    1    2    0    0  0.10506858211E+01  0.10714920869E+00  0.52679071006E+00  0.11802245972E+01  0.00000000000E+00 0.  1.
         11    1    3    3    0    0  0.15395798691E+02 -0.84511202140E+01 -0.31289237553E+02  0.35881310415E+02  0.51100000000E-03 0. -1.
        -11    1    3    3    0    0  0.45416879940E+01  0.65944533784E+01 -0.71643452473E+01  0.10744374727E+02  0.51100000000E-03 0.  1.
        -12    1    3    3    0    0 -0.20988172506E+02  0.17495176269E+01  0.37926792091E+02  0.43382090260E+02  0.00000000000E+00 0.  1.
</event>
<event>
 7    1  0.3662489E-015  0.9000798E+02  0.7816164E-02  0.1186339E+00
        -11   -1    0    0    0    0  0.00000000000E+00  0.00000000000E+00  0.45593999997E+02  0.45594000000E+02  0.51100000000E-03 0.  1.
         11   -1    0    0    0    0 -0.00000000000E+00 -0.00000000000E+00 -0.45593999997E+02  0.45594000000E+02  0.51100000000E-03 0. -1.
    9900012    2    1    2    0    0  0.11069643429E+01 -0.39728307172E+00 -0.96102547328E-01  0.90007983222E+02  0.90000247801E+02 0.  0.
        -12    1    1    2    0    0 -0.11069643429E+01  0.39728307172E+00  0.96102547328E-01  0.11800167775E+01  0.00000000000E+00 0.  1.
         11    1    3    3    0    0  0.72540913031E+01  0.64652806008E+01  0.52484003955E+01  0.11043885225E+02  0.51100000000E-03 0. -1.
        -11    1    3    3    0    0  0.22742594962E+02  0.14299122402E+02  0.21336418159E+02  0.34306461013E+02  0.51100000000E-03 0.  1.
         12    1    3    3    0    0 -0.28889721922E+02 -0.21161686075E+02 -0.26680921102E+02  0.44657636985E+02  0.00000000000E+00 0. -1.
</event>
<event>
 7    1  0.3662489E-015  0.9000775E+02  0.7816164E-02  0.1186339E+00
        -11   -1    0    0    0    0  0.00000000000E+00  0.00000000000E+00  0.45593999997E+02  0.45594000000E+02  0.51100000000E-03 0. -1.
         11   -1    0    0    0    0 -0.00000000000E+00 -0.00000000000E+00 -0.45593999997E+02  0.45594000000E+02  0.51100000000E-03 0.  1.
    9900012    2    1    2    0    0  0.10343605107E+01  0.23462269652E+00 -0.51772543082E+00  0.90007750409E+02  0.90000011914E+02 0.  0.
        -12    1    1    2    0    0 -0.10343605107E+01 -0.23462269652E+00  0.51772543082E+00  0.11802495912E+01  0.00000000000E+00 0.  1.
         11    1    3    3    0    0  0.36954027158E+01 -0.86966295566E+01 -0.48949574346E+01  0.10641803204E+02  0.51100000000E-03 0. -1.
        -11    1    3    3    0    0  0.15841012668E+02 -0.29791939869E+02  0.11932971248E+02  0.35789567845E+02  0.51100000000E-03 0.  1.
         12    1    3    3    0    0 -0.18502054873E+02  0.38723192122E+02 -0.75557392443E+01  0.43576379360E+02  0.00000000000E+00 0. -1.
</event>
<event>
 7    1  0.3662489E-015  0.9000829E+02  0.7816164E-02  0.1186338E+00
        -11   -1    0    0    0    0  0.00000000000E+00  0.00000000000E+00  0.45593999997E+02  0.45594000000E+02  0.51100000000E-03 0. -1.
         11   -1    0    0    0    0 -0.00000000000E+00 -0.00000000000E+00 -0.45593999997E+02  0.45594000000E+02  0.51100000000E-03 0.  1.
    9900012    2    1    2    0    0 -0.96696115053E+00  0.36084307405E+00  0.57140537329E+00  0.90008285759E+02  0.90000554329E+02 0.  0.
        -12    1    1    2    0    0  0.96696115053E+00 -0.36084307405E+00 -0.57140537329E+00  0.11797142414E+01  0.00000000000E+00 0.  1.
         11    1    3    3    0    0  0.23383072347E+02  0.92800123734E+01  0.28299773860E+02  0.37865074974E+02  0.51100000000E-03 0. -1.
        -11    1    3    3    0    0 -0.60053495675E+01 -0.88905274402E+01  0.70398394804E+01  0.12832187723E+02  0.51100000000E-03 0.  1.
        -12    1    3    3    0    0 -0.18344683930E+02 -0.28641859077E-01 -0.34768207967E+02  0.39311023061E+02  0.00000000000E+00 0.  1.
</event>
<event>
 7    1  0.3662489E-015  0.9000775E+02  0.7816164E-02  0.1186339E+00
        -11   -1    0    0    0    0  0.00000000000E+00  0.00000000000E+00  0.45593999997E+02  0.45594000000E+02  0.51100000000E-03 0.  1.
         11   -1    0    0    0    0 -0.00000000000E+00 -0.00000000000E+00 -0.45593999997E+02  0.45594000000E+02  0.51100000000E-03 0. -1.
    9900012    2    1    2    0    0  0.97481358438E+00  0.55028254693E+00  0.37405796667E+00  0.90007749277E+02  0.90000010768E+02 0.  0.
        -12    1    1    2    0    0 -0.97481358438E+00 -0.55028254693E+00 -0.37405796667E+00  0.11802507226E+01  0.00000000000E+00 0.  1.
         11    1    3    3    0    0  0.72112024576E+01 -0.22219720794E+01 -0.22443520246E+01  0.78724657558E+01  0.51100000000E-03 0. -1.
        -11    1    3    3    0    0  0.22161512449E+02 -0.23397309867E+02 -0.19465651063E+02  0.37649413204E+02  0.51100000000E-03 0.  1.
        -12    1    3    3    0    0 -0.28397901322E+02  0.26169564493E+02  0.22084061054E+02  0.44485870318E+02  0.00000000000E+00 0.  1.
</event>
<event>
 7    1  0.3662489E-015  0.9000768E+02  0.7816164E-02  0.1186339E+00
        -11   -1    0    0    0    0  0.00000000000E+00  0.00000000000E+00  0.45593999997E+02  0.45594000000E+02  0.51100000000E-03 0. -1.
         11   -1    0    0    0    0 -0.00000000000E+00 -0.00000000000E+00 -0.45593999997E+02  0.45594000000E+02  0.51100000000E-03 0.  1.
    9900012    2    1    2    0    0 -0.21880468730E+00  0.92923581225E+00  0.69412257051E+00  0.90007677659E+02  0.89999938204E+02 0.  0.
        -12    1    1    2    0    0  0.21880468730E+00 -0.92923581225E+00 -0.69412257051E+00  0.11803223411E+01  0.00000000000E+00 0.  1.
         11    1    3    3    0    0 -0.15895741790E+01  0.20647343415E+01  0.98987347683E+01  0.10235957417E+02  0.51100000000E-03 0. -1.
        -11    1    3    3    0    0 -0.35318708431E+02 -0.15700928658E+02 -0.11215180950E+02  0.40245628457E+02  0.51100000000E-03 0.  1.
         12    1    3    3    0    0  0.36689477922E+02  0.14565430129E+02  0.20105687520E+01  0.39526091784E+02  0.00000000000E+00 0. -1.
</event>
<event>
 7    1  0.3662489E-015  0.9000773E+02  0.7816164E-02  0.1186339E+00
        -11   -1    0    0    0    0  0.00000000000E+00  0.00000000000E+00  0.45593999997E+02  0.45594000000E+02  0.51100000000E-03 0. -1.
         11   -1    0    0    0    0 -0.00000000000E+00 -0.00000000000E+00 -0.45593999997E+02  0.45594000000E+02  0.51100000000E-03 0.  1.
    9900012    2    1    2    0    0  0.11068112690E+01  0.38243730940E+00  0.14745889153E+00  0.90007731554E+02  0.89999992810E+02 0.  0.
        -12    1    1    2    0    0 -0.11068112690E+01 -0.38243730940E+00 -0.14745889153E+00  0.11802684463E+01  0.00000000000E+00 0.  1.
         11    1    3    3    0    0 -0.25333159772E+02  0.25756920620E+02  0.44884432626E+01  0.36405137921E+02  0.51100000000E-03 0. -1.
        -11    1    3    3    0    0 -0.35557402079E+01  0.45723588112E+01 -0.92703611022E+01  0.10931118367E+02  0.51100000000E-03 0.  1.
        -12    1    3    3    0    0  0.29995711249E+02 -0.29946842122E+02  0.49293767311E+01  0.42671475266E+02  0.00000000000E+00 0.  1.
</event>
<event>
 7    1  0.3662489E-015  0.9000774E+02  0.7816164E-02  0.1186339E+00
        -11   -1    0    0    0    0  0.00000000000E+00  0.00000000000E+00  0.45593999997E+02  0.45594000000E+02  0.51100000000E-03 0.  1.
         11   -1    0    0    0    0 -0.00000000000E+00 -0.00000000000E+00 -0.45593999997E+02  0.45594000000E+02  0.51100000000E-03 0. -1.
    9900012    2    1    2    0    0  0.54586668103E+00  0.96927871490E+00  0.39437510616E+00  0.90007744356E+02  0.90000005782E+02 0.  0.
        -12    1    1    2    0    0 -0.54586668103E+00 -0.96927871490E+00 -0.39437510616E+00  0.11802556439E+01  0.00000000000E+00 0.  1.
         11    1    3    3    0    0 -0.75027271662E+01  0.40227215505E+02  0.22492803152E+00  0.40921514820E+02  0.51100000000E-03 0. -1.
        -11    1    3    3    0    0  0.10471597248E+02 -0.74866509604E+00  0.22624863410E+00  0.10500763642E+02  0.51100000000E-03 0.  1.
        -12    1    3    3    0    0 -0.24230034009E+01 -0.38509271694E+02 -0.56801559454E-01  0.38585465895E+02  0.00000000000E+00 0.  1.
</event>
<event>
 7    1  0.3662489E-015  0.9000775E+02  0.7816164E-02  0.1186339E+00
        -11   -1    0    0    0    0  0.00000000000E+00  0.00000000000E+00  0.45593999997E+02  0.45594000000E+02  0.51100000000E-03 0.  1.
         11   -1    0    0    0    0 -0.00000000000E+00 -0.00000000000E+00 -0.45593999997E+02  0.45594000000E+02  0.51100000000E-03 0. -1.
    9900012    2    1    2    0    0 -0.11041272307E+01  0.41524282573E+00 -0.38167678565E-01  0.90007754128E+02  0.90000015683E+02 0.  0.
        -12    1    1    2    0    0  0.11041272307E+01 -0.41524282573E+00  0.38167678565E-01  0.11802458717E+01  0.00000000000E+00 0.  1.
         11    1    3    3    0    0 -0.21271375683E-01 -0.11999851788E+02  0.15922428302E+02  0.19937919117E+02  0.51100000000E-03 0. -1.
        -11    1    3    3    0    0 -0.22939524700E+02  0.15196244058E+02  0.15560773694E+02  0.31611474264E+02  0.51100000000E-03 0.  1.
         12    1    3    3    0    0  0.21856668845E+02 -0.27811494439E+01 -0.31521369674E+02  0.38458360747E+02  0.00000000000E+00 0. -1.
</event>
<event>
 7    1  0.3662489E-015  0.9000776E+02  0.7816164E-02  0.1186339E+00
        -11   -1    0    0    0    0  0.00000000000E+00  0.00000000000E+00  0.45593999997E+02  0.45594000000E+02  0.51100000000E-03 0.  1.
         11   -1    0    0    0    0 -0.00000000000E+00 -0.00000000000E+00 -0.45593999997E+02  0.45594000000E+02  0.51100000000E-03 0. -1.
    9900012    2    1    2    0    0 -0.11642772402E+01 -0.12938826809E+00  0.14379860142E+00  0.90007762374E+02  0.90000024037E+02 0.  0.
        -12    1    1    2    0    0  0.11642772402E+01  0.12938826809E+00 -0.14379860142E+00  0.11802376259E+01  0.00000000000E+00 0.  1.
         11    1    3    3    0    0 -0.85012629429E+01  0.50367305903E+01  0.58788809597E+01  0.11497885382E+02  0.51100000000E-03 0. -1.
        -11    1    3    3    0    0 -0.27159871176E+02 -0.25832387550E+02 -0.76303708323E+01  0.38251711180E+02  0.51100000000E-03 0.  1.
         12    1    3    3    0    0  0.34496856879E+02  0.20666268692E+02  0.18952884741E+01  0.40258165812E+02  0.00000000000E+00 0. -1.
</event>
<event>
 7    1  0.3662489E-015  0.9000779E+02  0.7816164E-02  0.1186339E+00
        -11   -1    0    0    0    0  0.00000000000E+00  0.00000000000E+00  0.45593999997E+02  0.45594000000E+02  0.51100000000E-03 0.  1.
         11   -1    0    0    0    0 -0.00000000000E+00 -0.00000000000E+00 -0.45593999997E+02  0.45594000000E+02  0.51100000000E-03 0. -1.
    9900012    2    1    2    0    0  0.75782025805E+00 -0.54853697233E+00 -0.71952761934E+00  0.90007786312E+02  0.90000048292E+02 0.  0.
        -12    1    1    2    0    0 -0.75782025805E+00  0.54853697233E+00  0.71952761934E+00  0.11802136877E+01  0.00000000000E+00 0.  1.
         11    1    3    3    0    0  0.41515989533E+01  0.74854214916E+01 -0.23747837608E+01  0.88829559803E+01  0.51100000000E-03 0. -1.
        -11    1    3    3    0    0 -0.18440301159E+02  0.32603041562E+02  0.43473219548E+01  0.37708118945E+02  0.51100000000E-03 0.  1.
         12    1    3    3    0    0  0.15046522464E+02 -0.40637000026E+02 -0.26920658133E+01  0.43416711387E+02  0.00000000000E+00 0. -1.
</event>
<event>
 7    1  0.3662489E-015  0.9000777E+02  0.7816164E-02  0.1186339E+00
        -11   -1    0    0    0    0  0.00000000000E+00  0.00000000000E+00  0.45593999997E+02  0.45594000000E+02  0.51100000000E-03 0. -1.
         11   -1    0    0    0    0 -0.00000000000E+00 -0.00000000000E+00 -0.45593999997E+02  0.45594000000E+02  0.51100000000E-03 0.  1.
    9900012    2    1    2    0    0  0.32702699434E+00 -0.67712096712E+00  0.90967468065E+00  0.90007768038E+02  0.90000029776E+02 0.  0.
        -12    1    1    2    0    0 -0.32702699434E+00  0.67712096712E+00 -0.90967468065E+00  0.11802319618E+01  0.00000000000E+00 0.  1.
         11    1    3    3    0    0 -0.31779950723E+01  0.11733889953E+01 -0.94215998097E+01  0.10012144508E+02  0.51100000000E-03 0. -1.
        -11    1    3    3    0    0 -0.12311370985E+02 -0.30056084812E+02 -0.17885133462E+02  0.37078512496E+02  0.51100000000E-03 0.  1.
         12    1    3    3    0    0  0.15816393052E+02  0.28205574849E+02  0.28216407952E+02  0.42917111034E+02  0.00000000000E+00 0. -1.
</event>
<event>
 7    1  0.3662489E-015  0.9000716E+02  0.7816164E-02  0.1186340E+00
        -11   -1    0    0    0    0  0.00000000000E+00  0.00000000000E+00  0.45593999997E+02  0.45594000000E+02  0.51100000000E-03 0. -1.
         11   -1    0    0    0    0 -0.00000000000E+00 -0.00000000000E+00 -0.45593999997E+02  0.45594000000E+02  0.51100000000E-03 0.  1.
    9900012    2    1    2    0    0 -0.37063877284E+00 -0.29250200134E+00  0.10823377272E+01  0.90007158996E+02  0.89999412693E+02 0.  0.
        -12    1    1    2    0    0  0.37063877284E+00  0.29250200134E+00 -0.10823377272E+01  0.11808410039E+01  0.00000000000E+00 0.  1.
         11    1    3    3    0    0  0.42146512546E+01  0.95044550678E+00  0.41597424817E+01  0.59975069516E+01  0.51100000000E-03 0. -1.
        -11    1    3    3    0    0  0.21413737089E+02 -0.29709652839E+02  0.17187793504E+02  0.40455306867E+02  0.51100000000E-03 0.  1.
         12    1    3    3    0    0 -0.25999027116E+02  0.28466705331E+02 -0.20265198258E+02  0.43554345177E+02  0.00000000000E+00 0. -1.
</event>
<event>
 7    1  0.3662489E-015  0.9000770E+02  0.7816164E-02  0.1186339E+00
        -11   -1    0    0    0    0  0.00000000000E+00  0.00000000000E+00  0.45593999997E+02  0.45594000000E+02  0.51100000000E-03 0.  1.
         11   -1    0    0    0    0 -0.00000000000E+00 -0.00000000000E+00 -0.45593999997E+02  0.45594000000E+02  0.51100000000E-03 0. -1.
    9900012    2    1    2    0    0 -0.91931744268E+00  0.73877209654E+00  0.46733170730E-01  0.90007698022E+02  0.89999958835E+02 0.  0.
        -12    1    1    2    0    0  0.91931744268E+00 -0.73877209654E+00 -0.46733170730E-01  0.11803019784E+01  0.00000000000E+00 0.  1.
         11    1    3    3    0    0  0.23368749728E+01 -0.39450424599E+02  0.12832530230E+02  0.41550822110E+02  0.51100000000E-03 0. -1.
        -11    1    3    3    0    0  0.48942603754E+01  0.18720218068E+01 -0.71718857138E+01  0.88822404392E+01  0.51100000000E-03 0.  1.
        -12    1    3    3    0    0 -0.81504527909E+01  0.38317174889E+02 -0.56139113453E+01  0.39574635472E+02  0.00000000000E+00 0.  1.
</event>
<event>
 7    1  0.3662489E-015  0.9000785E+02  0.7816164E-02  0.1186339E+00
        -11   -1    0    0    0    0  0.00000000000E+00  0.00000000000E+00  0.45593999997E+02  0.45594000000E+02  0.51100000000E-03 0. -1.
         11   -1    0    0    0    0 -0.00000000000E+00 -0.00000000000E+00 -0.45593999997E+02  0.45594000000E+02  0.51100000000E-03 0.  1.
    9900012    2    1    2    0    0 -0.92574068207E+00  0.66025957392E+00  0.31593201766E+00  0.90007851045E+02  0.90000113879E+02 0.  0.
        -12    1    1    2    0    0  0.92574068207E+00 -0.66025957392E+00 -0.31593201766E+00  0.11801489547E+01  0.00000000000E+00 0.  1.
         11    1    3    3    0    0  0.18964253516E+02 -0.65111851048E+01  0.33194948403E+02  0.38780704514E+02  0.51100000000E-03 0. -1.
        -11    1    3    3    0    0 -0.80880090010E+01 -0.47744341337E+01  0.43766852646E+01  0.10361780014E+02  0.51100000000E-03 0.  1.
        -12    1    3    3    0    0 -0.11801985197E+02  0.11945878812E+02 -0.37255701649E+02  0.40865366517E+02  0.00000000000E+00 0.  1.
</event>
<event>
 7    1  0.3662489E-015  0.9000772E+02  0.7816164E-02  0.1186339E+00
        -11   -1    0    0    0    0  0.00000000000E+00  0.00000000000E+00  0.45593999997E+02  0.45594000000E+02  0.51100000000E-03 0.  1.
         11   -1    0    0    0    0 -0.00000000000E+00 -0.00000000000E+00 -0.45593999997E+02  0.45594000000E+02  0.51100000000E-03 0. -1.
    9900012    2    1    2    0    0 -0.10518809315E+01 -0.49739111685E+00 -0.19801555694E+00  0.90007719704E+02  0.89999980804E+02 0.  0.
        -12    1    1    2    0    0  0.10518809315E+01  0.49739111685E+00  0.19801555694E+00  0.11802802963E+01  0.00000000000E+00 0.  1.
         11    1    3    3    0    0 -0.34591266073E+02 -0.19107261006E+02  0.12638958304E+02  0.41489593623E+02  0.51100000000E-03 0. -1.
        -11    1    3    3    0    0  0.43861703324E-01 -0.27275618153E+01 -0.80700387554E+01  0.85186291785E+01  0.51100000000E-03 0.  1.
        -12    1    3    3    0    0  0.33495523438E+02  0.21337431705E+02 -0.47669351059E+01  0.39999496903E+02  0.00000000000E+00 0.  1.
</event>
<event>
 7    1  0.3662489E-015  0.9000733E+02  0.7816164E-02  0.1186340E+00
        -11   -1    0    0    0    0  0.00000000000E+00  0.00000000000E+00  0.45593999997E+02  0.45594000000E+02  0.51100000000E-03 0. -1.
         11   -1    0    0    0    0 -0.00000000000E+00 -0.00000000000E+00 -0.45593999997E+02  0.45594000000E+02  0.51100000000E-03 0.  1.
    9900012    2    1    2    0    0  0.11688368967E+01 -0.16653960267E+00  0.78940369265E-02  0.90007331780E+02  0.89999587758E+02 0.  0.
        -12    1    1    2    0    0 -0.11688368967E+01  0.16653960267E+00 -0.78940369265E-02  0.11806682202E+01  0.00000000000E+00 0.  1.
         11    1    3    3    0    0 -0.40110887282E+01  0.33052820497E+02 -0.15866589347E+02  0.36882603397E+02  0.51100000000E-03 0. -1.
        -11    1    3    3    0    0 -0.10669224829E+01  0.82467545049E+01  0.53577702441E+01  0.98920668062E+01  0.51100000000E-03 0.  1.
        -12    1    3    3    0    0  0.62468481078E+01 -0.41466114605E+02  0.10516713139E+02  0.43232661576E+02  0.00000000000E+00 0.  1.
</event>
<event>
 7    1  0.3662489E-015  0.9000784E+02  0.7816164E-02  0.1186339E+00
        -11   -1    0    0    0    0  0.00000000000E+00  0.00000000000E+00  0.45593999997E+02  0.45594000000E+02  0.51100000000E-03 0.  1.
         11   -1    0    0    0    0 -0.00000000000E+00 -0.00000000000E+00 -0.45593999997E+02  0.45594000000E+02  0.51100000000E-03 0. -1.
    9900012    2    1    2    0    0  0.93792948521E+00  0.34839985606E+00 -0.62583901681E+00  0.90007843801E+02  0.90000106539E+02 0.  0.
        -12    1    1    2    0    0 -0.93792948521E+00 -0.34839985606E+00  0.62583901681E+00  0.11801561989E+01  0.00000000000E+00 0.  1.
         11    1    3    3    0    0  0.39703071964E+02 -0.15719656759E+02 -0.72789734785E+01  0.43317721399E+02  0.51100000000E-03 0. -1.
        -11    1    3    3    0    0 -0.72474216006E+01 -0.32253272254E+01 -0.30247629919E+01  0.84898201975E+01  0.51100000000E-03 0.  1.
        -12    1    3    3    0    0 -0.31517720879E+02  0.19293383841E+02  0.96778974536E+01  0.38200302205E+02  0.00000000000E+00 0.  1.
</event>
<event>
 7    1  0.3662489E-015  0.9000771E+02  0.7816164E-02  0.1186339E+00
        -11   -1    0    0    0    0  0.00000000000E+00  0.00000000000E+00  0.45593999997E+02  0.45594000000E+02  0.51100000000E-03 0.  1.
         11   -1    0    0    0    0 -0.00000000000E+00 -0.00000000000E+00 -0.45593999997E+02  0.45594000000E+02  0.51100000000E-03 0. -1.
    9900012    2    1    2    0    0 -0.52251399711E+00 -0.19642341546E+00 -0.10399439257E+01  0.90007709187E+02  0.89999970148E+02 0.  0.
        -12    1    1    2    0    0  0.52251399711E+00  0.19642341546E+00  0.10399439257E+01  0.11802908133E+01  0.00000000000E+00 0.  1.
         11    1    3    3    0    0 -0.41487549641E+01  0.26072058693E+01  0.54816200633E+01  0.73524042990E+01  0.51100000000E-03 0. -1.
        -11    1    3    3    0    0 -0.26927088498E+02  0.24074585368E+02  0.11840290739E+02  0.38011133114E+02  0.51100000000E-03 0.  1.
         12    1    3    3    0    0  0.30553329465E+02 -0.26878214652E+02 -0.18361854728E+02  0.44644171773E+02  0.00000000000E+00 0. -1.
</event>
<event>
 7    1  0.3662489E-015  0.9000750E+02  0.7816164E-02  0.1186340E+00
        -11   -1    0    0    0    0  0.00000000000E+00  0.00000000000E+00  0.45593999997E+02  0.45594000000E+02  0.51100000000E-03 0. -1.
         11   -1    0    0    0    0 -0.00000000000E+00 -0.00000000000E+00 -0.45593999997E+02  0.45594000000E+02  0.51100000000E-03 0.  1.
    9900012    2    1    2    0    0  0.11077082192E+01 -0.40803253171E+00  0.82193771374E-02  0.90007501968E+02  0.89999760194E+02 0.  0.
        -12    1    1    2    0    0 -0.11077082192E+01  0.40803253171E+00 -0.82193771374E-02  0.11804980321E+01  0.00000000000E+00 0.  1.
         11    1    3    3    0    0 -0.68879608440E+01 -0.14769788024E+01  0.75253088256E+01  0.10308042693E+02  0.51100000000E-03 0. -1.
        -11    1    3    3    0    0 -0.44386431895E+00 -0.32752350468E+02  0.17171804438E+02  0.36983568577E+02  0.51100000000E-03 0.  1.
         12    1    3    3    0    0  0.84395333821E+01  0.33821296739E+02 -0.24688893887E+02  0.42715890699E+02  0.00000000000E+00 0. -1.
</event>
<event>
 7    1  0.3662489E-015  0.9000767E+02  0.7816164E-02  0.1186339E+00
        -11   -1    0    0    0    0  0.00000000000E+00  0.00000000000E+00  0.45593999997E+02  0.45594000000E+02  0.51100000000E-03 0.  1.
         11   -1    0    0    0    0 -0.00000000000E+00 -0.00000000000E+00 -0.45593999997E+02  0.45594000000E+02  0.51100000000E-03 0. -1.
    9900012    2    1    2    0    0  0.43041818948E+00  0.35435851053E+00 -0.10403566564E+01  0.90007673035E+02  0.89999933519E+02 0.  0.
        -12    1    1    2    0    0 -0.43041818948E+00 -0.35435851053E+00  0.10403566564E+01  0.11803269650E+01  0.00000000000E+00 0.  1.
         11    1    3    3    0    0  0.23632743882E+02  0.60710461028E+01 -0.30368770161E+02  0.38956724522E+02  0.51100000000E-03 0. -1.
        -11    1    3    3    0    0  0.27158024241E+01 -0.75948811996E+01 -0.38251457111E+01  0.89268999779E+01  0.51100000000E-03 0.  1.
        -12    1    3    3    0    0 -0.25918128116E+02  0.18781936073E+01  0.33153559216E+02  0.42124048535E+02  0.00000000000E+00 0.  1.
</event>
<event>
 7    1  0.3662489E-015  0.9000768E+02  0.7816164E-02  0.1186339E+00
        -11   -1    0    0    0    0  0.00000000000E+00  0.00000000000E+00  0.45593999997E+02  0.45594000000E+02  0.51100000000E-03 0.  1.
         11   -1    0    0    0    0 -0.00000000000E+00 -0.00000000000E+00 -0.45593999997E+02  0.45594000000E+02  0.51100000000E-03 0. -1.
    9900012    2    1    2    0    0  0.23684621930E-01  0.10577271806E+01  0.52326930753E+00  0.90007678638E+02  0.89999939196E+02 0.  0.
        -12    1    1    2    0    0 -0.23684621930E-01 -0.10577271806E+01 -0.52326930753E+00  0.11803213622E+01  0.00000000000E+00 0.  1.
         11    1    3    3    0    0  0.64940550849E+01  0.84464555073E+01 -0.86034183544E+01  0.13694311583E+02  0.51100000000E-03 0. -1.
        -11    1    3    3    0    0  0.21550996921E+02 -0.30210332475E+02  0.14372948817E+02  0.39795619287E+02  0.51100000000E-03 0.  1.
         12    1    3    3    0    0 -0.28021367384E+02  0.22821604148E+02 -0.52462611552E+01  0.36517747768E+02  0.00000000000E+00 0. -1.
</event>
<event>
 7    1  0.3662489E-015  0.9000779E+02  0.7816164E-02  0.1186339E+00
        -11   -1    0    0    0    0  0.00000000000E+00  0.00000000000E+00  0.45593999997E+02  0.45594000000E+02  0.51100000000E-03 0.  1.
         11   -1    0    0    0    0 -0.00000000000E+00 -0.00000000000E+00 -0.45593999997E+02  0.45594000000E+02  0.51100000000E-03 0. -1.
    9900012    2    1    2    0    0  0.10521463592E+01  0.22559540599E-01 -0.53420007446E+00  0.90007792131E+02  0.90000054187E+02 0.  0.
        -12    1    1    2    0    0 -0.10521463592E+01 -0.22559540599E-01  0.53420007446E+00  0.11802078688E+01  0.00000000000E+00 0.  1.
         11    1    3    3    0    0  0.76046649677E+01 -0.25302508978E+01 -0.62919508764E+01  0.10189295607E+02  0.51100000000E-03 0. -1.
        -11    1    3    3    0    0  0.28843022247E+01 -0.28871436791E+02  0.27886148852E+02  0.40243215077E+02  0.51100000000E-03 0.  1.
         12    1    3    3    0    0 -0.94368208332E+01  0.31424247229E+02 -0.22128398050E+02  0.39575281447E+02  0.00000000000E+00 0. -1.
</event>
<event>
 7    1  0.3662489E-015  0.9000771E+02  0.7816164E-02  0.1186339E+00
        -11   -1    0    0    0    0  0.00000000000E+00  0.00000000000E+00  0.45593999997E+02  0.45594000000E+02  0.51100000000E-03 0.  1.
         11   -1    0    0    0    0 -0.00000000000E+00 -0.00000000000E+00 -0.45593999997E+02  0.45594000000E+02  0.51100000000E-03 0. -1.
    9900012    2    1    2    0    0  0.38026785348E+00 -0.79225048350E+00 -0.78792816565E+00  0.90007705434E+02  0.89999966345E+02 0.  0.
        -12    1    1    2    0    0 -0.38026785348E+00  0.79225048350E+00  0.78792816565E+00  0.11802945663E+01  0.00000000000E+00 0.  1.
         11    1    3    3    0    0  0.30799784503E+01 -0.35221253287E+02 -0.84867329600E+01  0.36359972317E+02  0.51100000000E-03 0. -1.
        -11    1    3    3    0    0 -0.29911315017E+01 -0.89544759455E+01  0.34672397305E+01  0.10057398209E+02  0.51100000000E-03 0.  1.
        -12    1    3    3    0    0  0.29142090486E+00  0.43383478749E+02  0.42315650639E+01  0.43590334908E+02  0.00000000000E+00 0.  1.
</event>
<event>
 7    1  0.3662489E-015  0.9000798E+02  0.7816164E-02  0.1186339E+00
        -11   -1    0    0    0    0  0.00000000000E+00  0.00000000000E+00  0.45593999997E+02  0.45594000000E+02  0.51100000000E-03 0. -1.
         11   -1    0    0    0    0 -0.00000000000E+00 -0.00000000000E+00 -0.45593999997E+02  0.45594000000E+02  0.51100000000E-03 0.  1.
    9900012    2    1    2    0    0 -0.47478129251E+00  0.26629349962E+00 -0.10469607150E+01  0.90007976169E+02  0.90000240654E+02 0.  0.
        -12    1    1    2    0    0  0.47478129251E+00 -0.26629349962E+00  0.10469607150E+01  0.11800238313E+01  0.00000000000E+00 0.  1.
         11    1    3    3    0    0  0.58928450015E+01 -0.39550912361E+01 -0.66092695087E+01  0.96979798204E+01  0.51100000000E-03 0. -1.
        -11    1    3    3    0    0  0.27278141726E+02  0.14023188346E+01 -0.23291786571E+02  0.35896668872E+02  0.51100000000E-03 0.  1.
         12    1    3    3    0    0 -0.33645768020E+02  0.28190659012E+01  0.28854095365E+02  0.44413327477E+02  0.00000000000E+00 0. -1.
</event>
<event>
 7    1  0.3662489E-015  0.9000771E+02  0.7816164E-02  0.1186339E+00
        -11   -1    0    0    0    0  0.00000000000E+00  0.00000000000E+00  0.45593999997E+02  0.45594000000E+02  0.51100000000E-03 0.  1.
         11   -1    0    0    0    0 -0.00000000000E+00 -0.00000000000E+00 -0.45593999997E+02  0.45594000000E+02  0.51100000000E-03 0. -1.
    9900012    2    1    2    0    0  0.98469546597E+00  0.55507930516E+00  0.33962991543E+00  0.90007709072E+02  0.89999970032E+02 0.  0.
        -12    1    1    2    0    0 -0.98469546597E+00 -0.55507930516E+00 -0.33962991543E+00  0.11802909282E+01  0.00000000000E+00 0.  1.
         11    1    3    3    0    0  0.37667527657E+02  0.15112034065E+02  0.10838360820E+02  0.42008169192E+02  0.51100000000E-03 0.  1.
        -11    1    3    3    0    0 -0.57111886282E+01 -0.13133223927E+02 -0.90913755925E+01  0.16963264918E+02  0.51100000000E-03 0. -1.
        -12    1    3    3    0    0 -0.30971643563E+02 -0.14237308324E+01 -0.14073553116E+01  0.31036274961E+02  0.00000000000E+00 0.  1.
</event>
<event>
 7    1  0.3662489E-015  0.9000776E+02  0.7816164E-02  0.1186339E+00
        -11   -1    0    0    0    0  0.00000000000E+00  0.00000000000E+00  0.45593999997E+02  0.45594000000E+02  0.51100000000E-03 0.  1.
         11   -1    0    0    0    0 -0.00000000000E+00 -0.00000000000E+00 -0.45593999997E+02  0.45594000000E+02  0.51100000000E-03 0. -1.
    9900012    2    1    2    0    0 -0.55441739771E+00  0.11360657357E+00 -0.10357076203E+01  0.90007756220E+02  0.90000017803E+02 0.  0.
        -12    1    1    2    0    0  0.55441739771E+00 -0.11360657357E+00  0.10357076203E+01  0.11802437795E+01  0.00000000000E+00 0.  1.
         11    1    3    3    0    0  0.20677548703E+00  0.24652736792E+02 -0.28077361245E+02  0.37364935463E+02  0.51100000000E-03 0. -1.
        -11    1    3    3    0    0 -0.66519515659E+01 -0.45070316649E+01 -0.83263975631E+01  0.11571114497E+02  0.51100000000E-03 0.  1.
        -12    1    3    3    0    0  0.58907586811E+01 -0.20032098554E+02  0.35368051188E+02  0.41071706260E+02  0.00000000000E+00 0.  1.
</event>
<event>
 7    1  0.3662489E-015  0.9000789E+02  0.7816164E-02  0.1186339E+00
        -11   -1    0    0    0    0  0.00000000000E+00  0.00000000000E+00  0.45593999997E+02  0.45594000000E+02  0.51100000000E-03 0.  1.
         11   -1    0    0    0    0 -0.00000000000E+00 -0.00000000000E+00 -0.45593999997E+02  0.45594000000E+02  0.51100000000E-03 0. -1.
    9900012    2    1    2    0    0 -0.11045569407E+01 -0.82561692840E-01 -0.40717945952E+00  0.90007890861E+02  0.90000154220E+02 0.  0.
        -12    1    1    2    0    0  0.11045569407E+01  0.82561692840E-01  0.40717945952E+00  0.11801091393E+01  0.00000000000E+00 0.  1.
         11    1    3    3    0    0 -0.62463163070E+01  0.39515433892E+01  0.51219820963E+01  0.89925448801E+01  0.51100000000E-03 0. -1.
        -11    1    3    3    0    0 -0.74625321069E+01  0.28929357636E+02  0.21293493175E+02  0.36688008539E+02  0.51100000000E-03 0.  1.
         12    1    3    3    0    0  0.12604291473E+02 -0.32963462718E+02 -0.26822654731E+02  0.44327337442E+02  0.00000000000E+00 0. -1.
</event>
<event>
 7    1  0.3662489E-015  0.9000777E+02  0.7816164E-02  0.1186339E+00
        -11   -1    0    0    0    0  0.00000000000E+00  0.00000000000E+00  0.45593999997E+02  0.45594000000E+02  0.51100000000E-03 0.  1.
         11   -1    0    0    0    0 -0.00000000000E+00 -0.00000000000E+00 -0.45593999997E+02  0.45594000000E+02  0.51100000000E-03 0. -1.
    9900012    2    1    2    0    0 -0.91327766216E+00  0.71708248406E+00  0.21133736700E+00  0.90007768302E+02  0.90000030044E+02 0.  0.
        -12    1    1    2    0    0  0.91327766216E+00 -0.71708248406E+00 -0.21133736700E+00  0.11802316975E+01  0.00000000000E+00 0.  1.
         11    1    3    3    0    0  0.17713991439E+02 -0.91524543265E+00  0.26268652869E+01  0.17931078841E+02  0.51100000000E-03 0. -1.
        -11    1    3    3    0    0  0.38149842487E+01 -0.16546641680E+02  0.26328400780E+02  0.31329381475E+02  0.51100000000E-03 0.  1.
         12    1    3    3    0    0 -0.22442253350E+02  0.18178969596E+02 -0.28743928700E+02  0.40747307986E+02  0.00000000000E+00 0. -1.
</event>
<event>
 7    1  0.3662489E-015  0.9000792E+02  0.7816164E-02  0.1186339E+00
        -11   -1    0    0    0    0  0.00000000000E+00  0.00000000000E+00  0.45593999997E+02  0.45594000000E+02  0.51100000000E-03 0. -1.
         11   -1    0    0    0    0 -0.00000000000E+00 -0.00000000000E+00 -0.45593999997E+02  0.45594000000E+02  0.51100000000E-03 0.  1.
    9900012    2    1    2    0    0  0.10806524953E+01  0.22904339505E+00 -0.41511680626E+00  0.90007918369E+02  0.90000182092E+02 0.  0.
        -12    1    1    2    0    0 -0.10806524953E+01 -0.22904339505E+00  0.41511680626E+00  0.11800816308E+01  0.00000000000E+00 0.  1.
         11    1    3    3    0    0 -0.34504253075E+02  0.20955953022E+02 -0.12263678999E+02  0.42191151562E+02  0.51100000000E-03 0. -1.
        -11    1    3    3    0    0  0.15949013306E+01 -0.10718165746E+02  0.17833218986E+01  0.10981940834E+02  0.51100000000E-03 0.  1.
        -12    1    3    3    0    0  0.33990004240E+02 -0.10008743880E+02  0.10065240294E+02  0.36834825973E+02  0.00000000000E+00 0.  1.
</event>
<event>
 7    1  0.3662489E-015  0.9000770E+02  0.7816164E-02  0.1186339E+00
        -11   -1    0    0    0    0  0.00000000000E+00  0.00000000000E+00  0.45593999997E+02  0.45594000000E+02  0.51100000000E-03 0.  1.
         11   -1    0    0    0    0 -0.00000000000E+00 -0.00000000000E+00 -0.45593999997E+02  0.45594000000E+02  0.51100000000E-03 0. -1.
    9900012    2    1    2    0    0  0.35867774140E+00 -0.86497917412E+00 -0.71852590439E+00  0.90007695730E+02  0.89999956514E+02 0.  0.
        -12    1    1    2    0    0 -0.35867774140E+00  0.86497917412E+00  0.71852590439E+00  0.11803042697E+01  0.00000000000E+00 0.  1.
         11    1    3    3    0    0  0.73023216621E+01  0.15845284360E+00 -0.70755389119E+01  0.10169181880E+02  0.51100000000E-03 0. -1.
        -11    1    3    3    0    0  0.16355304255E+02 -0.21500386665E+02  0.30344485065E+02  0.40626966145E+02  0.51100000000E-03 0.  1.
         12    1    3    3    0    0 -0.23298948175E+02  0.20476954648E+02 -0.23987472057E+02  0.39211547705E+02  0.00000000000E+00 0. -1.
</event>
<event>
 7    1  0.3662489E-015  0.9000794E+02  0.7816164E-02  0.1186339E+00
        -11   -1    0    0    0    0  0.00000000000E+00  0.00000000000E+00  0.45593999997E+02  0.45594000000E+02  0.51100000000E-03 0.  1.
         11   -1    0    0    0    0 -0.00000000000E+00 -0.00000000000E+00 -0.45593999997E+02  0.45594000000E+02  0.51100000000E-03 0. -1.
    9900012    2    1    2    0    0  0.61221976242E-01  0.11780659070E+01 -0.30779293864E-01  0.90007942893E+02  0.90000206939E+02 0.  0.
        -12    1    1    2    0    0 -0.61221976242E-01 -0.11780659070E+01  0.30779293864E-01  0.11800571073E+01  0.00000000000E+00 0.  1.
         11    1    3    3    0    0  0.38726179962E+01  0.86434019238E+01  0.58349316765E+01  0.11124387394E+02  0.51100000000E-03 0. -1.
        -11    1    3    3    0    0  0.34325916374E+02 -0.21020440812E+01  0.12006823425E+02  0.36425965097E+02  0.51100000000E-03 0.  1.
         12    1    3    3    0    0 -0.38137312394E+02 -0.53632919357E+01 -0.17872534395E+02  0.42457590402E+02  0.00000000000E+00 0. -1.
</event>
<event>
 7    1  0.3662489E-015  0.9000772E+02  0.7816164E-02  0.1186339E+00
        -11   -1    0    0    0    0  0.00000000000E+00  0.00000000000E+00  0.45593999997E+02  0.45594000000E+02  0.51100000000E-03 0. -1.
         11   -1    0    0    0    0 -0.00000000000E+00 -0.00000000000E+00 -0.45593999997E+02  0.45594000000E+02  0.51100000000E-03 0.  1.
    9900012    2    1    2    0    0  0.14768284542E+00  0.11349103825E+00  0.11654873377E+01  0.90007724112E+02  0.89999985270E+02 0.  0.
        -12    1    1    2    0    0 -0.14768284542E+00 -0.11349103825E+00 -0.11654873377E+01  0.11802758884E+01  0.00000000000E+00 0.  1.
         11    1    3    3    0    0 -0.34231803743E+02 -0.15021700161E+02  0.23269295213E+02  0.44033259738E+02  0.51100000000E-03 0. -1.
        -11    1    3    3    0    0  0.49460999360E+01 -0.26307211387E+01 -0.52840516338E+01  0.77010259198E+01  0.51100000000E-03 0.  1.
        -12    1    3    3    0    0  0.29433386652E+02  0.17765912338E+02 -0.16819756242E+02  0.38273438453E+02  0.00000000000E+00 0.  1.
</event>
<event>
 7    1  0.3662489E-015  0.9000770E+02  0.7816164E-02  0.1186339E+00
        -11   -1    0    0    0    0  0.00000000000E+00  0.00000000000E+00  0.45593999997E+02  0.45594000000E+02  0.51100000000E-03 0. -1.
         11   -1    0    0    0    0 -0.00000000000E+00 -0.00000000000E+00 -0.45593999997E+02  0.45594000000E+02  0.51100000000E-03 0.  1.
    9900012    2    1    2    0    0  0.82961801535E+00 -0.82691541736E+00  0.14509247545E+00  0.90007700468E+02  0.89999961314E+02 0.  0.
        -12    1    1    2    0    0 -0.82961801535E+00  0.82691541736E+00 -0.14509247545E+00  0.11802995320E+01  0.00000000000E+00 0.  1.
         11    1    3    3    0    0  0.12184556483E+02 -0.21610124156E+02  0.27533362221E+02  0.37061393905E+02  0.51100000000E-03 0. -1.
        -11    1    3    3    0    0  0.32569978752E+01  0.31481568113E+01  0.89282084017E+01  0.10011584889E+02  0.51100000000E-03 0.  1.
        -12    1    3    3    0    0 -0.14611936343E+02  0.17635051927E+02 -0.36316478148E+02  0.42934721674E+02  0.00000000000E+00 0.  1.
</event>
<event>
 7    1  0.3852735E-015  0.9000789E+02  0.7816164E-02  0.1186339E+00
        -11   -1    0    0    0    0  0.00000000000E+00  0.00000000000E+00  0.45593999997E+02  0.45594000000E+02  0.51100000000E-03 0. -1.
         11   -1    0    0    0    0 -0.00000000000E+00 -0.00000000000E+00 -0.45593999997E+02  0.45594000000E+02  0.51100000000E-03 0.  1.
    9900012    2    1    2    0    0  0.20655600110E+00 -0.82736332234E+00  0.81575295515E+00  0.90007894779E+02  0.90000158190E+02 0.  0.
        -12    1    1    2    0    0 -0.20655600110E+00  0.82736332234E+00 -0.81575295515E+00  0.11801052210E+01  0.00000000000E+00 0.  1.
         11    1    3    3    0    0 -0.13563657478E+01 -0.14171299760E+01 -0.88116857516E+01  0.90273911767E+01  0.51100000000E-03 0. -1.
        -11    1    3    3    0    0  0.13971343813E+01  0.91155847709E+01 -0.34667025154E+02  0.35872670705E+02  0.51100000000E-03 0.  1.
         12    1    3    3    0    0  0.16578736765E+00 -0.85258181172E+01  0.44294463861E+02  0.45107832898E+02  0.00000000000E+00 0. -1.
</event>
<event>
 7    1  0.3662489E-015  0.9000770E+02  0.7816164E-02  0.1186339E+00
        -11   -1    0    0    0    0  0.00000000000E+00  0.00000000000E+00  0.45593999997E+02  0.45594000000E+02  0.51100000000E-03 0.  1.
         11   -1    0    0    0    0 -0.00000000000E+00 -0.00000000000E+00 -0.45593999997E+02  0.45594000000E+02  0.51100000000E-03 0. -1.
    9900012    2    1    2    0    0 -0.50900844213E+00  0.23659368453E-02 -0.10648965791E+01  0.90007703463E+02  0.89999964348E+02 0.  0.
        -12    1    1    2    0    0  0.50900844213E+00 -0.23659368453E-02  0.10648965791E+01  0.11802965373E+01  0.00000000000E+00 0.  1.
         11    1    3    3    0    0  0.80692800267E+01 -0.56392853736E+01 -0.36248221073E+02  0.37561261306E+02  0.51100000000E-03 0. -1.
        -11    1    3    3    0    0  0.69226598678E+01 -0.71945384033E+01 -0.19844721443E+01  0.10179525158E+02  0.51100000000E-03 0.  1.
        -12    1    3    3    0    0 -0.15500948337E+02  0.12836189714E+02  0.37167796638E+02  0.42266916999E+02  0.00000000000E+00 0.  1.
</event>
<event>
 7    1  0.3662489E-015  0.9000768E+02  0.7816164E-02  0.1186339E+00
        -11   -1    0    0    0    0  0.00000000000E+00  0.00000000000E+00  0.45593999997E+02  0.45594000000E+02  0.51100000000E-03 0.  1.
         11   -1    0    0    0    0 -0.00000000000E+00 -0.00000000000E+00 -0.45593999997E+02  0.45594000000E+02  0.51100000000E-03 0. -1.
    9900012    2    1    2    0    0 -0.14466388180E+00 -0.88377367610E+00 -0.76887798074E+00  0.90007679324E+02  0.89999939891E+02 0.  0.
        -12    1    1    2    0    0  0.14466388180E+00  0.88377367610E+00  0.76887798074E+00  0.11803206761E+01  0.00000000000E+00 0.  1.
         11    1    3    3    0    0 -0.17076892330E+02  0.97088186782E+01  0.32813256653E+02  0.38243839036E+02  0.51100000000E-03 0. -1.
        -11    1    3    3    0    0  0.69675063078E+01  0.81877686469E+01  0.13858567224E+01  0.10840032227E+02  0.51100000000E-03 0.  1.
        -12    1    3    3    0    0  0.99647221402E+01 -0.18780361001E+02 -0.34967991357E+02  0.40923808061E+02  0.00000000000E+00 0.  1.
</event>
<event>
 7    1  0.3662489E-015  0.9000801E+02  0.7816164E-02  0.1186339E+00
        -11   -1    0    0    0    0  0.00000000000E+00  0.00000000000E+00  0.45593999997E+02  0.45594000000E+02  0.51100000000E-03 0.  1.
         11   -1    0    0    0    0 -0.00000000000E+00 -0.00000000000E+00 -0.45593999997E+02  0.45594000000E+02  0.51100000000E-03 0. -1.
    9900012    2    1    2    0    0 -0.64432087517E+00  0.51499791424E-01 -0.98720726496E+00  0.90008008558E+02  0.90000273471E+02 0.  0.
        -12    1    1    2    0    0  0.64432087517E+00 -0.51499791424E-01  0.98720726496E+00  0.11799914418E+01  0.00000000000E+00 0.  1.
         11    1    3    3    0    0  0.23643686311E+01 -0.47621749952E+01  0.42188616114E+01  0.67872927789E+01  0.51100000000E-03 0. -1.
        -11    1    3    3    0    0  0.59008130001E+01 -0.13058042671E+02  0.35279240282E+02  0.38078299169E+02  0.51100000000E-03 0.  1.
         12    1    3    3    0    0 -0.89095025064E+01  0.17871717457E+02 -0.40485309158E+02  0.45142416611E+02  0.00000000000E+00 0. -1.
</event>
<event>
 7    1  0.3662489E-015  0.9000835E+02  0.7816164E-02  0.1186338E+00
        -11   -1    0    0    0    0  0.00000000000E+00  0.00000000000E+00  0.45593999997E+02  0.45594000000E+02  0.51100000000E-03 0.  1.
         11   -1    0    0    0    0 -0.00000000000E+00 -0.00000000000E+00 -0.45593999997E+02  0.45594000000E+02  0.51100000000E-03 0. -1.
    9900012    2    1    2    0    0  0.93984275708E+00 -0.67919108540E+00 -0.21672405364E+00  0.90008349944E+02  0.90000619361E+02 0.  0.
        -12    1    1    2    0    0 -0.93984275708E+00  0.67919108540E+00  0.21672405364E+00  0.11796500557E+01  0.00000000000E+00 0.  1.
         11    1    3    3    0    0 -0.14768356530E+02 -0.38800459184E+02 -0.73050559813E+01  0.42153811579E+02  0.51100000000E-03 0. -1.
        -11    1    3    3    0    0  0.77959281824E+01  0.64328867831E+00  0.54152132357E+01  0.95139293248E+01  0.51100000000E-03 0.  1.
        -12    1    3    3    0    0  0.79122711043E+01  0.37477979420E+02  0.16731186919E+01  0.38340609041E+02  0.00000000000E+00 0.  1.
</event>
<event>
 7    1  0.4903489E-015  0.9000778E+02  0.7816164E-02  0.1186339E+00
        -11   -1    0    0    0    0  0.00000000000E+00  0.00000000000E+00  0.45593999997E+02  0.45594000000E+02  0.51100000000E-03 0. -1.
         11   -1    0    0    0    0 -0.00000000000E+00 -0.00000000000E+00 -0.45593999997E+02  0.45594000000E+02  0.51100000000E-03 0.  1.
    9900012    2    1    2    0    0  0.26282019612E-01  0.55443080074E+00  0.10415585859E+01  0.90007776061E+02  0.90000037905E+02 0.  0.
        -12    1    1    2    0    0 -0.26282019612E-01 -0.55443080074E+00 -0.10415585859E+01  0.11802239386E+01  0.00000000000E+00 0.  1.
         11    1    3    3    0    0  0.10228214550E+01 -0.69289977424E+01 -0.56578454510E+01  0.90037985791E+01  0.51100000000E-03 0. -1.
        -11    1    3    3    0    0  0.18675784235E+02  0.26879329919E+02 -0.23334403094E+02  0.40196736954E+02  0.51100000000E-03 0.  1.
         12    1    3    3    0    0 -0.19672323671E+02 -0.19395901376E+02  0.30033807131E+02  0.40807240529E+02  0.00000000000E+00 0. -1.
</event>
<event>
 7    1  0.3662489E-015  0.9000772E+02  0.7816164E-02  0.1186339E+00
        -11   -1    0    0    0    0  0.00000000000E+00  0.00000000000E+00  0.45593999997E+02  0.45594000000E+02  0.51100000000E-03 0.  1.
         11   -1    0    0    0    0 -0.00000000000E+00 -0.00000000000E+00 -0.45593999997E+02  0.45594000000E+02  0.51100000000E-03 0. -1.
    9900012    2    1    2    0    0 -0.74922591176E+00 -0.63028424249E+00 -0.65914490190E+00  0.90007716265E+02  0.89999977320E+02 0.  0.
        -12    1    1    2    0    0  0.74922591176E+00  0.63028424249E+00  0.65914490190E+00  0.11802837349E+01  0.00000000000E+00 0.  1.
         11    1    3    3    0    0 -0.99673855529E+01  0.24501408328E+01 -0.83089481139E+00  0.10297686697E+02  0.51100000000E-03 0. -1.
        -11    1    3    3    0    0 -0.14815882487E+00 -0.34731609230E+02 -0.20913439141E+02  0.40542305900E+02  0.51100000000E-03 0.  1.
         12    1    3    3    0    0  0.93663184660E+01  0.31651184155E+02  0.21085189050E+02  0.39167723668E+02  0.00000000000E+00 0. -1.
</event>
<event>
 7    1  0.3662489E-015  0.9000774E+02  0.7816164E-02  0.1186339E+00
        -11   -1    0    0    0    0  0.00000000000E+00  0.00000000000E+00  0.45593999997E+02  0.45594000000E+02  0.51100000000E-03 0. -1.
         11   -1    0    0    0    0 -0.00000000000E+00 -0.00000000000E+00 -0.45593999997E+02  0.45594000000E+02  0.51100000000E-03 0.  1.
    9900012    2    1    2    0    0  0.18492840415E+00  0.77436550628E+00  0.87130940282E+00  0.90007737094E+02  0.89999998424E+02 0.  0.
        -12    1    1    2    0    0 -0.18492840415E+00 -0.77436550628E+00 -0.87130940282E+00  0.11802629061E+01  0.00000000000E+00 0.  1.
         11    1    3    3    0    0  0.83106151533E+01 -0.76995841134E+01 -0.61437995250E+01  0.12887831183E+02  0.51100000000E-03 0. -1.
        -11    1    3    3    0    0 -0.67056571504E+00  0.27599448768E+02 -0.26208419583E+02  0.38066527133E+02  0.51100000000E-03 0.  1.
         12    1    3    3    0    0 -0.74551210341E+01 -0.19125499148E+02  0.33223528510E+02  0.39053378778E+02  0.00000000000E+00 0. -1.
</event>
<event>
 7    1  0.3662489E-015  0.9000768E+02  0.7816164E-02  0.1186339E+00
        -11   -1    0    0    0    0  0.00000000000E+00  0.00000000000E+00  0.45593999997E+02  0.45594000000E+02  0.51100000000E-03 0. -1.
         11   -1    0    0    0    0 -0.00000000000E+00 -0.00000000000E+00 -0.45593999997E+02  0.45594000000E+02  0.51100000000E-03 0.  1.
    9900012    2    1    2    0    0 -0.26959494304E+00 -0.48731291262E+00  0.10406783064E+01  0.90007675195E+02  0.89999935707E+02 0.  0.
        -12    1    1    2    0    0  0.26959494304E+00  0.48731291262E+00 -0.10406783064E+01  0.11803248051E+01  0.00000000000E+00 0.  1.
         11    1    3    3    0    0 -0.71860417212E+01 -0.22107750084E+01  0.32477851384E+02  0.33336729782E+02  0.51100000000E-03 0. -1.
        -11    1    3    3    0    0  0.85704082657E+01 -0.21780984020E+02 -0.13173836036E+02  0.26859134738E+02  0.51100000000E-03 0.  1.
        -12    1    3    3    0    0 -0.16539614875E+01  0.23504446115E+02 -0.18263337042E+02  0.29811810675E+02  0.00000000000E+00 0.  1.
</event>
<event>
 7    1  0.3662489E-015  0.9000778E+02  0.7816164E-02  0.1186339E+00
        -11   -1    0    0    0    0  0.00000000000E+00  0.00000000000E+00  0.45593999997E+02  0.45594000000E+02  0.51100000000E-03 0.  1.
         11   -1    0    0    0    0 -0.00000000000E+00 -0.00000000000E+00 -0.45593999997E+02  0.45594000000E+02  0.51100000000E-03 0. -1.
    9900012    2    1    2    0    0  0.43097724905E-01 -0.11492538337E+01  0.26510366352E+00  0.90007778944E+02  0.90000040826E+02 0.  0.
        -12    1    1    2    0    0 -0.43097724905E-01  0.11492538337E+01 -0.26510366352E+00  0.11802210558E+01  0.00000000000E+00 0.  1.
         11    1    3    3    0    0 -0.97197314509E+01  0.19352215880E+01 -0.37558749431E+02  0.38844277843E+02  0.51100000000E-03 0. -1.
        -11    1    3    3    0    0 -0.91804999815E+01 -0.43411510255E+01  0.16196340139E+01  0.10283500704E+02  0.51100000000E-03 0.  1.
        -12    1    3    3    0    0  0.18943329157E+02  0.12566756037E+01  0.36204219081E+02  0.40880000396E+02  0.00000000000E+00 0.  1.
</event>
<event>
 7    1  0.3662489E-015  0.9000776E+02  0.7816164E-02  0.1186339E+00
        -11   -1    0    0    0    0  0.00000000000E+00  0.00000000000E+00  0.45593999997E+02  0.45594000000E+02  0.51100000000E-03 0.  1.
         11   -1    0    0    0    0 -0.00000000000E+00 -0.00000000000E+00 -0.45593999997E+02  0.45594000000E+02  0.51100000000E-03 0. -1.
    9900012    2    1    2    0    0  0.93596794173E-01  0.69333499969E+00 -0.95052794575E+00  0.90007755467E+02  0.90000017039E+02 0.  0.
        -12    1    1    2    0    0 -0.93596794173E-01 -0.69333499969E+00  0.95052794575E+00  0.11802445328E+01  0.00000000000E+00 0.  1.
         11    1    3    3    0    0 -0.25449258130E+02 -0.16298679684E+02 -0.26514670819E+02  0.40203724550E+02  0.51100000000E-03 0. -1.
        -11    1    3    3    0    0  0.88099519599E+01 -0.94227390260E+00 -0.53431342387E+01  0.10346604148E+02  0.51100000000E-03 0.  1.
        -12    1    3    3    0    0  0.16732902964E+02  0.17934288587E+02  0.30907277112E+02  0.39457426769E+02  0.00000000000E+00 0.  1.
</event>
<event>
 7    1  0.3662489E-015  0.9000779E+02  0.7816164E-02  0.1186339E+00
        -11   -1    0    0    0    0  0.00000000000E+00  0.00000000000E+00  0.45593999997E+02  0.45594000000E+02  0.51100000000E-03 0.  1.
         11   -1    0    0    0    0 -0.00000000000E+00 -0.00000000000E+00 -0.45593999997E+02  0.45594000000E+02  0.51100000000E-03 0. -1.
    9900012    2    1    2    0    0 -0.59755969495E+00  0.67370566578E+00 -0.76285431738E+00  0.90007786620E+02  0.90000048603E+02 0.  0.
        -12    1    1    2    0    0  0.59755969495E+00 -0.67370566578E+00  0.76285431738E+00  0.11802133801E+01  0.00000000000E+00 0.  1.
         11    1    3    3    0    0 -0.20652014021E+02  0.27400076613E+02 -0.18364213032E+02  0.38916759912E+02  0.51100000000E-03 0. -1.
        -11    1    3    3    0    0 -0.34533871532E+01 -0.41899834024E+01 -0.79990013620E+01  0.96677746557E+01  0.51100000000E-03 0.  1.
        -12    1    3    3    0    0  0.23507841479E+02 -0.22536387544E+02  0.25600360077E+02  0.41423252052E+02  0.00000000000E+00 0.  1.
</event>
<event>
 7    1  0.3662489E-015  0.9000762E+02  0.7816164E-02  0.1186339E+00
        -11   -1    0    0    0    0  0.00000000000E+00  0.00000000000E+00  0.45593999997E+02  0.45594000000E+02  0.51100000000E-03 0.  1.
         11   -1    0    0    0    0 -0.00000000000E+00 -0.00000000000E+00 -0.45593999997E+02  0.45594000000E+02  0.51100000000E-03 0. -1.
    9900012    2    1    2    0    0  0.10556538504E+01 -0.42947925939E+00  0.30732408925E+00  0.90007616341E+02  0.89999876077E+02 0.  0.
        -12    1    1    2    0    0 -0.10556538504E+01  0.42947925939E+00 -0.30732408925E+00  0.11803836588E+01  0.00000000000E+00 0.  1.
         11    1    3    3    0    0 -0.63035953776E+01  0.88999914128E+01 -0.94858321573E+00  0.10947372845E+02  0.51100000000E-03 0. -1.
        -11    1    3    3    0    0 -0.70859660069E+01  0.10611807211E+02  0.35019331427E+02  0.37271637211E+02  0.51100000000E-03 0.  1.
         12    1    3    3    0    0  0.14445215235E+02 -0.19941277883E+02 -0.33763424122E+02  0.41788606285E+02  0.00000000000E+00 0. -1.
</event>
<event>
 7    1  0.3662489E-015  0.9000779E+02  0.7816164E-02  0.1186339E+00
        -11   -1    0    0    0    0  0.00000000000E+00  0.00000000000E+00  0.45593999997E+02  0.45594000000E+02  0.51100000000E-03 0.  1.
         11   -1    0    0    0    0 -0.00000000000E+00 -0.00000000000E+00 -0.45593999997E+02  0.45594000000E+02  0.51100000000E-03 0. -1.
    9900012    2    1    2    0    0 -0.13720317389E+00 -0.35498226737E+00 -0.11171679930E+01  0.90007787542E+02  0.90000049538E+02 0.  0.
        -12    1    1    2    0    0  0.13720317389E+00  0.35498226737E+00  0.11171679930E+01  0.11802124579E+01  0.00000000000E+00 0.  1.
         11    1    3    3    0    0 -0.20108147369E+02  0.23693587224E+01 -0.31206345826E+02  0.37199293964E+02  0.51100000000E-03 0. -1.
        -11    1    3    3    0    0 -0.56911875979E+01 -0.75572190655E+01 -0.36535571237E+01  0.10141481953E+02  0.51100000000E-03 0.  1.
        -12    1    3    3    0    0  0.25662131793E+02  0.48328780757E+01  0.33742734957E+02  0.42667011625E+02  0.00000000000E+00 0.  1.
</event>
<event>
 7    1  0.3662489E-015  0.9000775E+02  0.7816164E-02  0.1186339E+00
        -11   -1    0    0    0    0  0.00000000000E+00  0.00000000000E+00  0.45593999997E+02  0.45594000000E+02  0.51100000000E-03 0. -1.
         11   -1    0    0    0    0 -0.00000000000E+00 -0.00000000000E+00 -0.45593999997E+02  0.45594000000E+02  0.51100000000E-03 0.  1.
    9900012    2    1    2    0    0 -0.84908171892E+00  0.81936465561E+00 -0.26191881243E-01  0.90007752476E+02  0.90000014008E+02 0.  0.
        -12    1    1    2    0    0  0.84908171892E+00 -0.81936465561E+00  0.26191881243E-01  0.11802475244E+01  0.00000000000E+00 0.  1.
         11    1    3    3    0    0 -0.32746495527E+02  0.18552000375E+02  0.12130470849E+02  0.39543115842E+02  0.51100000000E-03 0. -1.
        -11    1    3    3    0    0  0.32840429402E+01 -0.26428503608E+01  0.10270659118E+02  0.11102073457E+02  0.51100000000E-03 0.  1.
        -12    1    3    3    0    0  0.28613370868E+02 -0.15089785358E+02 -0.22427321848E+02  0.39362563177E+02  0.00000000000E+00 0.  1.
</event>
<event>
 7    1  0.3662489E-015  0.9000762E+02  0.7816164E-02  0.1186339E+00
        -11   -1    0    0    0    0  0.00000000000E+00  0.00000000000E+00  0.45593999997E+02  0.45594000000E+02  0.51100000000E-03 0.  1.
         11   -1    0    0    0    0 -0.00000000000E+00 -0.00000000000E+00 -0.45593999997E+02  0.45594000000E+02  0.51100000000E-03 0. -1.
    9900012    2    1    2    0    0 -0.69368294516E+00 -0.80923422289E+00 -0.50718197861E+00  0.90007623105E+02  0.89999882929E+02 0.  0.
        -12    1    1    2    0    0  0.69368294516E+00  0.80923422289E+00  0.50718197861E+00  0.11803768955E+01  0.00000000000E+00 0.  1.
         11    1    3    3    0    0 -0.40648036095E+01 -0.78686916465E+01  0.42165793467E+01  0.98091018070E+01  0.51100000000E-03 0. -1.
        -11    1    3    3    0    0 -0.12114297317E+02 -0.12521256692E+02  0.31622813379E+02  0.36104575817E+02  0.51100000000E-03 0.  1.
         12    1    3    3    0    0  0.15485417981E+02  0.19580714116E+02 -0.36346574705E+02  0.44093945481E+02  0.00000000000E+00 0. -1.
</event>
<event>
 7    1  0.3662489E-015  0.9000774E+02  0.7816164E-02  0.1186339E+00
        -11   -1    0    0    0    0  0.00000000000E+00  0.00000000000E+00  0.45593999997E+02  0.45594000000E+02  0.51100000000E-03 0.  1.
         11   -1    0    0    0    0 -0.00000000000E+00 -0.00000000000E+00 -0.45593999997E+02  0.45594000000E+02  0.51100000000E-03 0. -1.
    9900012    2    1    2    0    0  0.38593890908E+00  0.50388313081E+00 -0.99507548021E+00  0.90007736359E+02  0.89999997679E+02 0.  0.
        -12    1    1    2    0    0 -0.38593890908E+00 -0.50388313081E+00  0.99507548021E+00  0.11802636410E+01  0.00000000000E+00 0.  1.
         11    1    3    3    0    0 -0.60830355837E+01  0.52309071369E+01  0.56899601665E+01  0.98357184966E+01  0.51100000000E-03 0. -1.
        -11    1    3    3    0    0 -0.17861582292E+02  0.15107590399E+02  0.25917263438E+02  0.34913893424E+02  0.51100000000E-03 0.  1.
         12    1    3    3    0    0  0.24330556785E+02 -0.19834614405E+02 -0.32602299085E+02  0.45258124438E+02  0.00000000000E+00 0. -1.
</event>
<event>
 7    1  0.3662489E-015  0.9000771E+02  0.7816164E-02  0.1186339E+00
        -11   -1    0    0    0    0  0.00000000000E+00  0.00000000000E+00  0.45593999997E+02  0.45594000000E+02  0.51100000000E-03 0.  1.
         11   -1    0    0    0    0 -0.00000000000E+00 -0.00000000000E+00 -0.45593999997E+02  0.45594000000E+02  0.51100000000E-03 0. -1.
    9900012    2    1    2    0    0 -0.51554801413E+00  0.10612769794E+01  0.31534883596E-01  0.90007706379E+02  0.89999967304E+02 0.  0.
        -12    1    1    2    0    0  0.51554801413E+00 -0.10612769794E+01 -0.31534883596E-01  0.11802936205E+01  0.00000000000E+00 0.  1.
         11    1    3    3    0    0 -0.20455183579E+02  0.31043688175E+02 -0.12749809455E+02  0.39302452241E+02  0.51100000000E-03 0. -1.
        -11    1    3    3    0    0 -0.53294614894E+01 -0.51964893411E+01 -0.69478428699E+01  0.10182297484E+02  0.51100000000E-03 0.  1.
        -12    1    3    3    0    0  0.25269097055E+02 -0.24785921855E+02  0.19729187208E+02  0.40522956655E+02  0.00000000000E+00 0.  1.
</event>
<event>
 7    1  0.3662489E-015  0.9000777E+02  0.7816164E-02  0.1186339E+00
        -11   -1    0    0    0    0  0.00000000000E+00  0.00000000000E+00  0.45593999997E+02  0.45594000000E+02  0.51100000000E-03 0. -1.
         11   -1    0    0    0    0 -0.00000000000E+00 -0.00000000000E+00 -0.45593999997E+02  0.45594000000E+02  0.51100000000E-03 0.  1.
    9900012    2    1    2    0    0  0.31906231550E+00  0.10571618462E+01  0.41658318793E+00  0.90007773970E+02  0.90000035786E+02 0.  0.
        -12    1    1    2    0    0 -0.31906231550E+00 -0.10571618462E+01 -0.41658318793E+00  0.11802260304E+01  0.00000000000E+00 0.  1.
         11    1    3    3    0    0 -0.84570965555E+01  0.30744294270E+02 -0.16853797354E+02  0.36066391528E+02  0.51100000000E-03 0. -1.
        -11    1    3    3    0    0 -0.20702568441E+01  0.98695981190E+01  0.32949496089E+01  0.10609034999E+02  0.51100000000E-03 0.  1.
        -12    1    3    3    0    0  0.10846415715E+02 -0.39556730543E+02  0.13975430933E+02  0.43332347443E+02  0.00000000000E+00 0.  1.
</event>
<event>
 7    1  0.3662489E-015  0.9000778E+02  0.7816164E-02  0.1186339E+00
        -11   -1    0    0    0    0  0.00000000000E+00  0.00000000000E+00  0.45593999997E+02  0.45594000000E+02  0.51100000000E-03 0.  1.
         11   -1    0    0    0    0 -0.00000000000E+00 -0.00000000000E+00 -0.45593999997E+02  0.45594000000E+02  0.51100000000E-03 0. -1.
    9900012    2    1    2    0    0 -0.15928930340E+00 -0.11336699052E+01  0.28693483599E+00  0.90007783013E+02  0.90000044949E+02 0.  0.
        -12    1    1    2    0    0  0.15928930340E+00  0.11336699052E+01 -0.28693483599E+00  0.11802169869E+01  0.00000000000E+00 0.  1.
         11    1    3    3    0    0  0.19712102811E+02  0.11682310156E+02 -0.35923552305E+02  0.42609212364E+02  0.51100000000E-03 0. -1.
        -11    1    3    3    0    0 -0.41500072879E+00  0.42424752916E+01  0.83526783908E+01  0.93775294596E+01  0.51100000000E-03 0.  1.
        -12    1    3    3    0    0 -0.19456391385E+02 -0.17058455353E+02  0.27857808750E+02  0.38021041189E+02  0.00000000000E+00 0.  1.
</event>
<event>
 7    1  0.3662489E-015  0.9000765E+02  0.7816164E-02  0.1186339E+00
        -11   -1    0    0    0    0  0.00000000000E+00  0.00000000000E+00  0.45593999997E+02  0.45594000000E+02  0.51100000000E-03 0.  1.
         11   -1    0    0    0    0 -0.00000000000E+00 -0.00000000000E+00 -0.45593999997E+02  0.45594000000E+02  0.51100000000E-03 0. -1.
    9900012    2    1    2    0    0 -0.92831425092E+00  0.71082368993E+00  0.16180837459E+00  0.90007652756E+02  0.89999912972E+02 0.  0.
        -12    1    1    2    0    0  0.92831425092E+00 -0.71082368993E+00 -0.16180837459E+00  0.11803472441E+01  0.00000000000E+00 0.  1.
         11    1    3    3    0    0  0.10467057029E+02 -0.34608001803E+02 -0.42430170793E+01  0.36404344051E+02  0.51100000000E-03 0. -1.
        -11    1    3    3    0    0 -0.57246487932E+01 -0.61815095314E+01 -0.61223526277E+01  0.10414694708E+02  0.51100000000E-03 0.  1.
        -12    1    3    3    0    0 -0.56707224870E+01  0.41500335024E+02  0.10527178082E+02  0.43188613997E+02  0.00000000000E+00 0.  1.
</event>
<event>
 7    1  0.3662489E-015  0.9000757E+02  0.7816164E-02  0.1186339E+00
        -11   -1    0    0    0    0  0.00000000000E+00  0.00000000000E+00  0.45593999997E+02  0.45594000000E+02  0.51100000000E-03 0. -1.
         11   -1    0    0    0    0 -0.00000000000E+00 -0.00000000000E+00 -0.45593999997E+02  0.45594000000E+02  0.51100000000E-03 0.  1.
    9900012    2    1    2    0    0 -0.56457322784E+00  0.22895436747E+00  0.10110615528E+01  0.90007572749E+02  0.89999831909E+02 0.  0.
        -12    1    1    2    0    0  0.56457322784E+00 -0.22895436747E+00 -0.10110615528E+01  0.11804272513E+01  0.00000000000E+00 0.  1.
         11    1    3    3    0    0 -0.33367971025E+02 -0.49661433000E+01 -0.13133378265E+02  0.36201791316E+02  0.51100000000E-03 0. -1.
        -11    1    3    3    0    0 -0.86303418208E+01 -0.31372114489E+01  0.53817225129E+01  0.10643675732E+02  0.51100000000E-03 0.  1.
        -12    1    3    3    0    0  0.41433739618E+02  0.83323091164E+01  0.87627173049E+01  0.43162105701E+02  0.00000000000E+00 0.  1.
</event>
<event>
 7    1  0.3662489E-015  0.9000785E+02  0.7816164E-02  0.1186339E+00
        -11   -1    0    0    0    0  0.00000000000E+00  0.00000000000E+00  0.45593999997E+02  0.45594000000E+02  0.51100000000E-03 0. -1.
         11   -1    0    0    0    0 -0.00000000000E+00 -0.00000000000E+00 -0.45593999997E+02  0.45594000000E+02  0.51100000000E-03 0.  1.
    9900012    2    1    2    0    0 -0.69136234835E+00  0.95641612309E+00 -0.65248964148E-02  0.90007849047E+02  0.90000111855E+02 0.  0.
        -12    1    1    2    0    0  0.69136234835E+00 -0.95641612309E+00  0.65248964148E-02  0.11801509528E+01  0.00000000000E+00 0.  1.
         11    1    3    3    0    0 -0.80616623873E+01  0.27767895921E+02  0.33553886488E+02  0.44293450340E+02  0.51100000000E-03 0. -1.
        -11    1    3    3    0    0 -0.94937507886E+00 -0.15041909396E+01 -0.99808829210E+01  0.10138142215E+02  0.51100000000E-03 0.  1.
        -12    1    3    3    0    0  0.83196751179E+01 -0.25307288859E+02 -0.23579528463E+02  0.35576256492E+02  0.00000000000E+00 0.  1.
</event>
<event>
 7    1  0.3662489E-015  0.9000774E+02  0.7816164E-02  0.1186339E+00
        -11   -1    0    0    0    0  0.00000000000E+00  0.00000000000E+00  0.45593999997E+02  0.45594000000E+02  0.51100000000E-03 0.  1.
         11   -1    0    0    0    0 -0.00000000000E+00 -0.00000000000E+00 -0.45593999997E+02  0.45594000000E+02  0.51100000000E-03 0. -1.
    9900012    2    1    2    0    0  0.20098951303E+00  0.11612432947E+01  0.64363566742E-01  0.90007735012E+02  0.89999996314E+02 0.  0.
        -12    1    1    2    0    0 -0.20098951303E+00 -0.11612432947E+01 -0.64363566742E-01  0.11802649883E+01  0.00000000000E+00 0.  1.
         11    1    3    3    0    0  0.27892190708E+01  0.24792535990E+01 -0.76777740286E+01  0.85366653752E+01  0.51100000000E-03 0. -1.
        -11    1    3    3    0    0  0.16327407315E+02 -0.71307492152E+01  0.39908633550E+02  0.43705043715E+02  0.51100000000E-03 0.  1.
         12    1    3    3    0    0 -0.18915636872E+02  0.58127389109E+01 -0.32166495955E+02  0.37766025922E+02  0.00000000000E+00 0. -1.
</event>
<event>
 7    1  0.3662489E-015  0.9000762E+02  0.7816164E-02  0.1186339E+00
        -11   -1    0    0    0    0  0.00000000000E+00  0.00000000000E+00  0.45593999997E+02  0.45594000000E+02  0.51100000000E-03 0. -1.
         11   -1    0    0    0    0 -0.00000000000E+00 -0.00000000000E+00 -0.45593999997E+02  0.45594000000E+02  0.51100000000E-03 0.  1.
    9900012    2    1    2    0    0  0.42730869426E+00  0.65797957636E+00  0.88191287184E+00  0.90007618639E+02  0.89999878405E+02 0.  0.
        -12    1    1    2    0    0 -0.42730869426E+00 -0.65797957636E+00 -0.88191287184E+00  0.11803813607E+01  0.00000000000E+00 0.  1.
         11    1    3    3    0    0  0.85085440519E+00 -0.75697467380E+01  0.65222897891E+01  0.10028224332E+02  0.51100000000E-03 0. -1.
        -11    1    3    3    0    0 -0.22460315416E+02 -0.22482766432E+02 -0.22145079082E+02  0.38734288206E+02  0.51100000000E-03 0.  1.
         12    1    3    3    0    0  0.22036769705E+02  0.30710492747E+02  0.16504702165E+02  0.41245106101E+02  0.00000000000E+00 0. -1.
</event>
<event>
 7    1  0.3662489E-015  0.9000774E+02  0.7816164E-02  0.1186339E+00
        -11   -1    0    0    0    0  0.00000000000E+00  0.00000000000E+00  0.45593999997E+02  0.45594000000E+02  0.51100000000E-03 0. -1.
         11   -1    0    0    0    0 -0.00000000000E+00 -0.00000000000E+00 -0.45593999997E+02  0.45594000000E+02  0.51100000000E-03 0.  1.
    9900012    2    1    2    0    0 -0.77140909093E+00 -0.53858131059E+00 -0.71265324939E+00  0.90007738814E+02  0.90000000166E+02 0.  0.
        -12    1    1    2    0    0  0.77140909093E+00  0.53858131059E+00  0.71265324939E+00  0.11802611862E+01  0.00000000000E+00 0.  1.
         11    1    3    3    0    0 -0.34195233460E+02  0.11200455050E+02 -0.13056308842E+02  0.38278340946E+02  0.51100000000E-03 0. -1.
        -11    1    3    3    0    0 -0.58217093143E+01 -0.77175082288E+01 -0.17738358150E+01  0.98284651071E+01  0.51100000000E-03 0.  1.
        -12    1    3    3    0    0  0.39245533683E+02 -0.40215281323E+01  0.14117491407E+02  0.41900932761E+02  0.00000000000E+00 0.  1.
</event>
<event>
 7    1  0.3662489E-015  0.9000771E+02  0.7816164E-02  0.1186339E+00
        -11   -1    0    0    0    0  0.00000000000E+00  0.00000000000E+00  0.45593999997E+02  0.45594000000E+02  0.51100000000E-03 0.  1.
         11   -1    0    0    0    0 -0.00000000000E+00 -0.00000000000E+00 -0.45593999997E+02  0.45594000000E+02  0.51100000000E-03 0. -1.
    9900012    2    1    2    0    0 -0.10300721058E+01 -0.60222707069E-01 -0.57307253072E+00  0.90007708746E+02  0.89999969702E+02 0.  0.
        -12    1    1    2    0    0  0.10300721058E+01  0.60222707069E-01  0.57307253072E+00  0.11802912535E+01  0.00000000000E+00 0.  1.
         11    1    3    3    0    0  0.83053834739E+01  0.24572260412E+02 -0.26710178873E+02  0.37231828213E+02  0.51100000000E-03 0. -1.
        -11    1    3    3    0    0 -0.51094751090E+01  0.96246538000E+01  0.32900620688E+01  0.11382671274E+02  0.51100000000E-03 0.  1.
        -12    1    3    3    0    0 -0.42259804708E+01 -0.34257136919E+02  0.22847044273E+02  0.41393209260E+02  0.00000000000E+00 0.  1.
</event>
<event>
 7    1  0.3662489E-015  0.9000755E+02  0.7816164E-02  0.1186339E+00
        -11   -1    0    0    0    0  0.00000000000E+00  0.00000000000E+00  0.45593999997E+02  0.45594000000E+02  0.51100000000E-03 0.  1.
         11   -1    0    0    0    0 -0.00000000000E+00 -0.00000000000E+00 -0.45593999997E+02  0.45594000000E+02  0.51100000000E-03 0. -1.
    9900012    2    1    2    0    0  0.61247090958E+00 -0.32705975214E+00 -0.95465988840E+00  0.90007549154E+02  0.89999808003E+02 0.  0.
        -12    1    1    2    0    0 -0.61247090958E+00  0.32705975214E+00  0.95465988840E+00  0.11804508457E+01  0.00000000000E+00 0.  1.
         11    1    3    3    0    0  0.10796239644E+02 -0.35814304580E+02  0.88310836853E+01  0.38434505881E+02  0.51100000000E-03 0. -1.
        -11    1    3    3    0    0  0.77121224776E+01 -0.27834356842E+01 -0.32622045704E+01  0.88241898347E+01  0.51100000000E-03 0.  1.
        -12    1    3    3    0    0 -0.17895891212E+02  0.38270680512E+02 -0.65235390033E+01  0.42748853438E+02  0.00000000000E+00 0.  1.
</event>
<event>
 7    1  0.3662489E-015  0.9000770E+02  0.7816164E-02  0.1186339E+00
        -11   -1    0    0    0    0  0.00000000000E+00  0.00000000000E+00  0.45593999997E+02  0.45594000000E+02  0.51100000000E-03 0. -1.
         11   -1    0    0    0    0 -0.00000000000E+00 -0.00000000000E+00 -0.45593999997E+02  0.45594000000E+02  0.51100000000E-03 0.  1.
    9900012    2    1    2    0    0 -0.92839175825E+00 -0.75710403607E-02  0.72878695460E+00  0.90007703850E+02  0.89999964740E+02 0.  0.
        -12    1    1    2    0    0  0.92839175825E+00  0.75710403607E-02 -0.72878695460E+00  0.11802961504E+01  0.00000000000E+00 0.  1.
         11    1    3    3    0    0 -0.57149120167E-01 -0.34656452100E+02  0.37489574792E+01  0.34858680707E+02  0.51100000000E-03 0. -1.
        -11    1    3    3    0    0 -0.15930785340E+01 -0.99195419149E+01  0.21554941889E+01  0.10275279387E+02  0.51100000000E-03 0.  1.
        -12    1    3    3    0    0  0.72183589593E+00  0.44568422974E+02 -0.51756647135E+01  0.44873743756E+02  0.00000000000E+00 0.  1.
</event>
<event>
 7    1  0.3662489E-015  0.9000778E+02  0.7816164E-02  0.1186339E+00
        -11   -1    0    0    0    0  0.00000000000E+00  0.00000000000E+00  0.45593999997E+02  0.45594000000E+02  0.51100000000E-03 0.  1.
         11   -1    0    0    0    0 -0.00000000000E+00 -0.00000000000E+00 -0.45593999997E+02  0.45594000000E+02  0.51100000000E-03 0. -1.
    9900012    2    1    2    0    0 -0.84799352865E+00 -0.38167274451E+00 -0.72674341306E+00  0.90007778370E+02  0.90000040244E+02 0.  0.
        -12    1    1    2    0    0  0.84799352865E+00  0.38167274451E+00  0.72674341306E+00  0.11802216304E+01  0.00000000000E+00 0.  1.
         11    1    3    3    0    0 -0.38811205727E+01 -0.43951174798E+01  0.59655552079E+01  0.83646879058E+01  0.51100000000E-03 0. -1.
        -11    1    3    3    0    0  0.12847608151E+02  0.17293111759E+02  0.32569686726E+02  0.39049932691E+02  0.51100000000E-03 0.  1.
         12    1    3    3    0    0 -0.98144811070E+01 -0.13279667024E+02 -0.39261985347E+02  0.42593157772E+02  0.00000000000E+00 0. -1.
</event>
<event>
 7    1  0.3662489E-015  0.9000741E+02  0.7816164E-02  0.1186340E+00
        -11   -1    0    0    0    0  0.00000000000E+00  0.00000000000E+00  0.45593999997E+02  0.45594000000E+02  0.51100000000E-03 0. -1.
         11   -1    0    0    0    0 -0.00000000000E+00 -0.00000000000E+00 -0.45593999997E+02  0.45594000000E+02  0.51100000000E-03 0.  1.
    9900012    2    1    2    0    0 -0.16697811629E+00  0.10420811593E+01  0.52911941277E+00  0.90007414473E+02  0.89999671543E+02 0.  0.
        -12    1    1    2    0    0  0.16697811629E+00 -0.10420811593E+01 -0.52911941277E+00  0.11805855271E+01  0.00000000000E+00 0.  1.
         11    1    3    3    0    0  0.64677144875E+01  0.73816429768E+01  0.23875571159E+01  0.10100515481E+02  0.51100000000E-03 0. -1.
        -11    1    3    3    0    0  0.11958881751E+02 -0.15822799561E+02 -0.35297610610E+02  0.40488234757E+02  0.51100000000E-03 0.  1.
         12    1    3    3    0    0 -0.18593574354E+02  0.94832377435E+01  0.33439172907E+02  0.39418664235E+02  0.00000000000E+00 0. -1.
</event>
<event>
 7    1  0.3662489E-015  0.9000777E+02  0.7816164E-02  0.1186339E+00
        -11   -1    0    0    0    0  0.00000000000E+00  0.00000000000E+00  0.45593999997E+02  0.45594000000E+02  0.51100000000E-03 0. -1.
         11   -1    0    0    0    0 -0.00000000000E+00 -0.00000000000E+00 -0.45593999997E+02  0.45594000000E+02  0.51100000000E-03 0.  1.
    9900012    2    1    2    0    0  0.99872105359E+00  0.40886068566E+00  0.47783435965E+00  0.90007772701E+02  0.90000034500E+02 0.  0.
        -12    1    1    2    0    0 -0.99872105359E+00 -0.40886068566E+00 -0.47783435965E+00  0.11802272995E+01  0.00000000000E+00 0.  1.
         11    1    3    3    0    0  0.30192505487E+02 -0.19637094344E+02  0.24168948024E+01  0.36097704118E+02  0.51100000000E-03 0. -1.
        -11    1    3    3    0    0  0.33970995839E+01 -0.48868829123E+01 -0.10428036140E+02  0.12006908352E+02  0.51100000000E-03 0.  1.
        -12    1    3    3    0    0 -0.32590884018E+02  0.24932837942E+02  0.84889756968E+01  0.41903160230E+02  0.00000000000E+00 0.  1.
</event>
<event>
 7    1  0.3662489E-015  0.9000740E+02  0.7816164E-02  0.1186340E+00
        -11   -1    0    0    0    0  0.00000000000E+00  0.00000000000E+00  0.45593999997E+02  0.45594000000E+02  0.51100000000E-03 0. -1.
         11   -1    0    0    0    0 -0.00000000000E+00 -0.00000000000E+00 -0.45593999997E+02  0.45594000000E+02  0.51100000000E-03 0.  1.
    9900012    2    1    2    0    0 -0.37003720575E+00 -0.61162417669E+00  0.93957406189E+00  0.90007402234E+02  0.89999659143E+02 0.  0.
        -12    1    1    2    0    0  0.37003720575E+00  0.61162417669E+00 -0.93957406189E+00  0.11805977659E+01  0.00000000000E+00 0.  1.
         11    1    3    3    0    0 -0.24310849804E+01  0.12692818572E+02  0.24309402940E+02  0.27531162145E+02  0.51100000000E-03 0. -1.
        -11    1    3    3    0    0  0.17247487531E+02 -0.96094619961E+01  0.12486984335E+02  0.23361129340E+02  0.51100000000E-03 0.  1.
        -12    1    3    3    0    0 -0.15186439756E+02 -0.36949807526E+01 -0.35856813213E+02  0.39115110750E+02  0.00000000000E+00 0.  1.
</event>
<event>
 7    1  0.3662489E-015  0.9000771E+02  0.7816164E-02  0.1186339E+00
        -11   -1    0    0    0    0  0.00000000000E+00  0.00000000000E+00  0.45593999997E+02  0.45594000000E+02  0.51100000000E-03 0.  1.
         11   -1    0    0    0    0 -0.00000000000E+00 -0.00000000000E+00 -0.45593999997E+02  0.45594000000E+02  0.51100000000E-03 0. -1.
    9900012    2    1    2    0    0  0.11281743944E+01 -0.25828501920E+00  0.23150203947E+00  0.90007711133E+02  0.89999972120E+02 0.  0.
        -12    1    1    2    0    0 -0.11281743944E+01  0.25828501920E+00 -0.23150203947E+00  0.11802888670E+01  0.00000000000E+00 0.  1.
         11    1    3    3    0    0 -0.10426619981E+02 -0.69458110612E+01  0.42500137054E+01  0.13229562059E+02  0.51100000000E-03 0. -1.
        -11    1    3    3    0    0 -0.17066652628E+02  0.23210589193E+02  0.20727921364E+02  0.35491531482E+02  0.51100000000E-03 0.  1.
         12    1    3    3    0    0  0.28621447003E+02 -0.16523063151E+02 -0.24746433030E+02  0.41286617592E+02  0.00000000000E+00 0. -1.
</event>
<event>
 7    1  0.3662489E-015  0.9000775E+02  0.7816164E-02  0.1186339E+00
        -11   -1    0    0    0    0  0.00000000000E+00  0.00000000000E+00  0.45593999997E+02  0.45594000000E+02  0.51100000000E-03 0.  1.
         11   -1    0    0    0    0 -0.00000000000E+00 -0.00000000000E+00 -0.45593999997E+02  0.45594000000E+02  0.51100000000E-03 0. -1.
    9900012    2    1    2    0    0 -0.37950515164E+00  0.89541445587E+00 -0.66873415347E+00  0.90007747241E+02  0.90000008704E+02 0.  0.
        -12    1    1    2    0    0  0.37950515164E+00 -0.89541445587E+00  0.66873415347E+00  0.11802527593E+01  0.00000000000E+00 0.  1.
         11    1    3    3    0    0  0.43107766691E+01  0.98840640189E+01  0.13865287213E+01  0.10871981382E+02  0.51100000000E-03 0. -1.
        -11    1    3    3    0    0 -0.28689384613E+02 -0.70778607958E+01  0.27944495479E+02  0.40670280682E+02  0.51100000000E-03 0.  1.
         12    1    3    3    0    0  0.23999102792E+02 -0.19107887672E+01 -0.29999758354E+02  0.38465485176E+02  0.00000000000E+00 0. -1.
</event>
<event>
 7    1  0.3662489E-015  0.9000773E+02  0.7816164E-02  0.1186339E+00
        -11   -1    0    0    0    0  0.00000000000E+00  0.00000000000E+00  0.45593999997E+02  0.45594000000E+02  0.51100000000E-03 0. -1.
         11   -1    0    0    0    0 -0.00000000000E+00 -0.00000000000E+00 -0.45593999997E+02  0.45594000000E+02  0.51100000000E-03 0.  1.
    9900012    2    1    2    0    0  0.83235660970E-01  0.40086350569E+00  0.11069898421E+01  0.90007726203E+02  0.89999987389E+02 0.  0.
        -12    1    1    2    0    0 -0.83235660970E-01 -0.40086350569E+00 -0.11069898421E+01  0.11802737971E+01  0.00000000000E+00 0.  1.
         11    1    3    3    0    0  0.28510222916E+01  0.62167495340E+01 -0.27196038758E+00  0.68447253845E+01  0.51100000000E-03 0. -1.
        -11    1    3    3    0    0  0.20672004518E+02  0.31741343016E+02  0.70496620767E+01  0.38529759446E+02  0.51100000000E-03 0.  1.
         12    1    3    3    0    0 -0.23439791149E+02 -0.37557229045E+02 -0.56707118470E+01  0.44633241373E+02  0.00000000000E+00 0. -1.
</event>
<event>
 7    1  0.3662489E-015  0.9000775E+02  0.7816164E-02  0.1186339E+00
        -11   -1    0    0    0    0  0.00000000000E+00  0.00000000000E+00  0.45593999997E+02  0.45594000000E+02  0.51100000000E-03 0.  1.
         11   -1    0    0    0    0 -0.00000000000E+00 -0.00000000000E+00 -0.45593999997E+02  0.45594000000E+02  0.51100000000E-03 0. -1.
    9900012    2    1    2    0    0 -0.11446730687E+01 -0.12045856512E+00  0.26113627686E+00  0.90007754748E+02  0.90000016310E+02 0.  0.
        -12    1    1    2    0    0  0.11446730687E+01  0.12045856512E+00 -0.26113627686E+00  0.11802452522E+01  0.00000000000E+00 0.  1.
         11    1    3    3    0    0  0.48277791784E+01  0.88580940167E+01 -0.19860799269E+01  0.10281915927E+02  0.51100000000E-03 0. -1.
        -11    1    3    3    0    0 -0.12749923458E+02  0.14864024481E+02  0.34125227451E+02  0.39345024092E+02  0.51100000000E-03 0.  1.
         12    1    3    3    0    0  0.67774712109E+01 -0.23842577063E+02 -0.31878011247E+02  0.40380814728E+02  0.00000000000E+00 0. -1.
</event>
<event>
 7    1  0.3662489E-015  0.9000747E+02  0.7816164E-02  0.1186340E+00
        -11   -1    0    0    0    0  0.00000000000E+00  0.00000000000E+00  0.45593999997E+02  0.45594000000E+02  0.51100000000E-03 0.  1.
         11   -1    0    0    0    0 -0.00000000000E+00 -0.00000000000E+00 -0.45593999997E+02  0.45594000000E+02  0.51100000000E-03 0. -1.
    9900012    2    1    2    0    0  0.11632124696E+01 -0.10993003245E+00  0.16880052272E+00  0.90007474067E+02  0.89999731924E+02 0.  0.
        -12    1    1    2    0    0 -0.11632124696E+01  0.10993003245E+00 -0.16880052272E+00  0.11805259328E+01  0.00000000000E+00 0.  1.
         11    1    3    3    0    0  0.14163763293E+02 -0.12105029469E+02 -0.35524470201E+02  0.40113986493E+02  0.51100000000E-03 0. -1.
        -11    1    3    3    0    0  0.85449894141E+01  0.30581619248E+01  0.26648304540E+01  0.94588857724E+01  0.51100000000E-03 0.  1.
        -12    1    3    3    0    0 -0.21545540237E+02  0.89369375119E+01  0.33028440270E+02  0.40434601802E+02  0.00000000000E+00 0.  1.
</event>
<event>
 7    1  0.3662489E-015  0.9000777E+02  0.7816164E-02  0.1186339E+00
        -11   -1    0    0    0    0  0.00000000000E+00  0.00000000000E+00  0.45593999997E+02  0.45594000000E+02  0.51100000000E-03 0.  1.
         11   -1    0    0    0    0 -0.00000000000E+00 -0.00000000000E+00 -0.45593999997E+02  0.45594000000E+02  0.51100000000E-03 0. -1.
    9900012    2    1    2    0    0 -0.79171422513E+00  0.59910061555E+00 -0.63813923780E+00  0.90007765003E+02  0.90000026701E+02 0.  0.
        -12    1    1    2    0    0  0.79171422513E+00 -0.59910061555E+00  0.63813923780E+00  0.11802349972E+01  0.00000000000E+00 0.  1.
         11    1    3    3    0    0 -0.94892921567E+01  0.24409264522E+01  0.29047710997E+01  0.10219710514E+02  0.51100000000E-03 0. -1.
        -11    1    3    3    0    0  0.42900963074E+02  0.35133956205E+01  0.69738157283E+01  0.43605856115E+02  0.51100000000E-03 0.  1.
         12    1    3    3    0    0 -0.34203385142E+02 -0.53552214572E+01 -0.10516726066E+02  0.36182198374E+02  0.00000000000E+00 0. -1.
</event>
<event>
 7    1  0.3662489E-015  0.9000758E+02  0.7816164E-02  0.1186339E+00
        -11   -1    0    0    0    0  0.00000000000E+00  0.00000000000E+00  0.45593999997E+02  0.45594000000E+02  0.51100000000E-03 0. -1.
         11   -1    0    0    0    0 -0.00000000000E+00 -0.00000000000E+00 -0.45593999997E+02  0.45594000000E+02  0.51100000000E-03 0.  1.
    9900012    2    1    2    0    0 -0.87547657736E+00 -0.63723671433E+00  0.46995859852E+00  0.90007580180E+02  0.89999839438E+02 0.  0.
        -12    1    1    2    0    0  0.87547657736E+00  0.63723671433E+00 -0.46995859852E+00  0.11804198202E+01  0.00000000000E+00 0.  1.
         11    1    3    3    0    0  0.31251121900E+02  0.15063173349E+02 -0.19229546631E+02  0.39664937605E+02  0.51100000000E-03 0. -1.
        -11    1    3    3    0    0  0.29919586618E+01 -0.10114679370E+02  0.66214601689E+01  0.12454007003E+02  0.51100000000E-03 0.  1.
        -12    1    3    3    0    0 -0.35118557139E+02 -0.55857306924E+01  0.13078045060E+02  0.37888635572E+02  0.00000000000E+00 0.  1.
</event>
<event>
 7    1  0.3662489E-015  0.9000795E+02  0.7816164E-02  0.1186339E+00
        -11   -1    0    0    0    0  0.00000000000E+00  0.00000000000E+00  0.45593999997E+02  0.45594000000E+02  0.51100000000E-03 0.  1.
         11   -1    0    0    0    0 -0.00000000000E+00 -0.00000000000E+00 -0.45593999997E+02  0.45594000000E+02  0.51100000000E-03 0. -1.
    9900012    2    1    2    0    0 -0.17035057751E+00 -0.46823261780E+00 -0.10696947199E+01  0.90007954282E+02  0.90000218478E+02 0.  0.
        -12    1    1    2    0    0  0.17035057751E+00  0.46823261780E+00  0.10696947199E+01  0.11800457184E+01  0.00000000000E+00 0.  1.
         11    1    3    3    0    0  0.19902261716E+02  0.69627013264E+01 -0.29011760045E+02  0.35864487342E+02  0.51100000000E-03 0. -1.
        -11    1    3    3    0    0 -0.53730652855E+01  0.85227070228E+01 -0.75202338324E+01  0.12572202779E+02  0.51100000000E-03 0.  1.
        -12    1    3    3    0    0 -0.14699547008E+02 -0.15953640967E+02  0.35462299158E+02  0.41571264160E+02  0.00000000000E+00 0.  1.
</event>
<event>
 7    1  0.3662489E-015  0.9000787E+02  0.7816164E-02  0.1186339E+00
        -11   -1    0    0    0    0  0.00000000000E+00  0.00000000000E+00  0.45593999997E+02  0.45594000000E+02  0.51100000000E-03 0. -1.
         11   -1    0    0    0    0 -0.00000000000E+00 -0.00000000000E+00 -0.45593999997E+02  0.45594000000E+02  0.51100000000E-03 0.  1.
    9900012    2    1    2    0    0 -0.49255683503E+00 -0.54161374260E+00  0.92560912388E+00  0.90007868680E+02  0.90000131747E+02 0.  0.
        -12    1    1    2    0    0  0.49255683503E+00  0.54161374260E+00 -0.92560912388E+00  0.11801313199E+01  0.00000000000E+00 0.  1.
         11    1    3    3    0    0  0.27121933823E+01  0.83377059113E+01 -0.90570376540E+01  0.12605683803E+02  0.51100000000E-03 0. -1.
        -11    1    3    3    0    0  0.29863992025E+02 -0.13513711256E+02  0.24567663664E+02  0.40963990403E+02  0.51100000000E-03 0.  1.
         12    1    3    3    0    0 -0.33068742242E+02  0.46343916019E+01 -0.14585016886E+02  0.36438194475E+02  0.00000000000E+00 0. -1.
</event>
<event>
 7    1  0.3662489E-015  0.9000779E+02  0.7816164E-02  0.1186339E+00
        -11   -1    0    0    0    0  0.00000000000E+00  0.00000000000E+00  0.45593999997E+02  0.45594000000E+02  0.51100000000E-03 0. -1.
         11   -1    0    0    0    0 -0.00000000000E+00 -0.00000000000E+00 -0.45593999997E+02  0.45594000000E+02  0.51100000000E-03 0.  1.
    9900012    2    1    2    0    0  0.32657626254E+00 -0.89761861910E+00  0.69319641597E+00  0.90007791327E+02  0.90000053373E+02 0.  0.
        -12    1    1    2    0    0 -0.32657626254E+00  0.89761861910E+00 -0.69319641597E+00  0.11802086730E+01  0.00000000000E+00 0.  1.
         11    1    3    3    0    0 -0.20329610250E+02  0.23178611678E+02  0.25546928749E+02  0.40039813448E+02  0.51100000000E-03 0. -1.
        -11    1    3    3    0    0  0.11284014757E+01  0.18526415886E+01 -0.16240619786E+02  0.16384849771E+02  0.51100000000E-03 0.  1.
        -12    1    3    3    0    0  0.19527785037E+02 -0.25928871886E+02 -0.86131125470E+01  0.33583128107E+02  0.00000000000E+00 0.  1.
</event>
<event>
 7    1  0.3662489E-015  0.9000816E+02  0.7816164E-02  0.1186338E+00
        -11   -1    0    0    0    0  0.00000000000E+00  0.00000000000E+00  0.45593999997E+02  0.45594000000E+02  0.51100000000E-03 0.  1.
         11   -1    0    0    0    0 -0.00000000000E+00 -0.00000000000E+00 -0.45593999997E+02  0.45594000000E+02  0.51100000000E-03 0. -1.
    9900012    2    1    2    0    0 -0.29205263738E+00  0.29344379842E+00 -0.11048124780E+01  0.90008163309E+02  0.90000430264E+02 0.  0.
        -12    1    1    2    0    0  0.29205263738E+00 -0.29344379842E+00  0.11048124780E+01  0.11798366909E+01  0.00000000000E+00 0.  1.
         11    1    3    3    0    0 -0.21288732496E+01 -0.43474135385E+01  0.87636869640E+01  0.10011708908E+02  0.51100000000E-03 0. -1.
        -11    1    3    3    0    0 -0.16843276078E+02 -0.25293862585E+02  0.17745483196E+02  0.35190589760E+02  0.51100000000E-03 0.  1.
         12    1    3    3    0    0  0.18680096690E+02  0.29934719922E+02 -0.27613982638E+02  0.44805864642E+02  0.00000000000E+00 0. -1.
</event>
<event>
 7    1  0.3662489E-015  0.9000848E+02  0.7816164E-02  0.1186338E+00
        -11   -1    0    0    0    0  0.00000000000E+00  0.00000000000E+00  0.45593999997E+02  0.45594000000E+02  0.51100000000E-03 0. -1.
         11   -1    0    0    0    0 -0.00000000000E+00 -0.00000000000E+00 -0.45593999997E+02  0.45594000000E+02  0.51100000000E-03 0.  1.
    9900012    2    1    2    0    0  0.97131745232E+00 -0.54184275961E+00 -0.39270248080E+00  0.90008480434E+02  0.90000751572E+02 0.  0.
        -12    1    1    2    0    0 -0.97131745232E+00  0.54184275961E+00  0.39270248080E+00  0.11795195665E+01  0.00000000000E+00 0.  1.
         11    1    3    3    0    0 -0.11031560232E+02  0.35362123698E+02  0.79039807881E+01  0.37876747830E+02  0.51100000000E-03 0. -1.
        -11    1    3    3    0    0  0.77124721738E+01  0.57328374004E+01 -0.16135061981E+01  0.97442831549E+01  0.51100000000E-03 0.  1.
        -12    1    3    3    0    0  0.42904055106E+01 -0.41636803858E+02 -0.66831770708E+01  0.42387449449E+02  0.00000000000E+00 0.  1.
</event>
<event>
 7    1  0.3662489E-015  0.9000773E+02  0.7816164E-02  0.1186339E+00
        -11   -1    0    0    0    0  0.00000000000E+00  0.00000000000E+00  0.45593999997E+02  0.45594000000E+02  0.51100000000E-03 0.  1.
         11   -1    0    0    0    0 -0.00000000000E+00 -0.00000000000E+00 -0.45593999997E+02  0.45594000000E+02  0.51100000000E-03 0. -1.
    9900012    2    1    2    0    0  0.76459598904E+00 -0.76147756414E+00 -0.47810668128E+00  0.90007728376E+02  0.89999989591E+02 0.  0.
        -12    1    1    2    0    0 -0.76459598904E+00  0.76147756414E+00  0.47810668128E+00  0.11802716238E+01  0.00000000000E+00 0.  1.
         11    1    3    3    0    0  0.36316251861E+02 -0.41039457465E+01  0.12638062860E+02  0.38670830777E+02  0.51100000000E-03 0. -1.
        -11    1    3    3    0    0 -0.17220533190E+01 -0.37365269126E+01  0.92810376268E+01  0.10152081594E+02  0.51100000000E-03 0.  1.
        -12    1    3    3    0    0 -0.33829602553E+02  0.70789950949E+01 -0.22397207168E+02  0.41184816005E+02  0.00000000000E+00 0.  1.
</event>
<event>
 7    1  0.3662489E-015  0.9000817E+02  0.7816164E-02  0.1186338E+00
        -11   -1    0    0    0    0  0.00000000000E+00  0.00000000000E+00  0.45593999997E+02  0.45594000000E+02  0.51100000000E-03 0.  1.
         11   -1    0    0    0    0 -0.00000000000E+00 -0.00000000000E+00 -0.45593999997E+02  0.45594000000E+02  0.51100000000E-03 0. -1.
    9900012    2    1    2    0    0  0.46468756930E+00  0.10808199658E+01  0.88803727196E-01  0.90008172709E+02  0.90000439787E+02 0.  0.
        -12    1    1    2    0    0 -0.46468756930E+00 -0.10808199658E+01 -0.88803727196E-01  0.11798272914E+01  0.00000000000E+00 0.  1.
         11    1    3    3    0    0  0.10062684321E+02 -0.43927231900E+00 -0.35452552144E+01  0.10677987203E+02  0.51100000000E-03 0. -1.
        -11    1    3    3    0    0  0.29335270436E+02  0.16160694557E+02  0.14256529390E+02  0.36400202893E+02  0.51100000000E-03 0.  1.
         12    1    3    3    0    0 -0.38933267187E+02 -0.14640602272E+02 -0.10622470448E+02  0.42929982613E+02  0.00000000000E+00 0. -1.
</event>
<event>
 7    1  0.3662489E-015  0.9000772E+02  0.7816164E-02  0.1186339E+00
        -11   -1    0    0    0    0  0.00000000000E+00  0.00000000000E+00  0.45593999997E+02  0.45594000000E+02  0.51100000000E-03 0. -1.
         11   -1    0    0    0    0 -0.00000000000E+00 -0.00000000000E+00 -0.45593999997E+02  0.45594000000E+02  0.51100000000E-03 0.  1.
    9900012    2    1    2    0    0 -0.31942302094E+00  0.10889643920E+01  0.32433658429E+00  0.90007716672E+02  0.89999977733E+02 0.  0.
        -12    1    1    2    0    0  0.31942302094E+00 -0.10889643920E+01 -0.32433658429E+00  0.11802833276E+01  0.00000000000E+00 0.  1.
         11    1    3    3    0    0  0.10891367130E+00 -0.71416810255E+01 -0.80528676288E+01  0.10764020966E+02  0.51100000000E-03 0. -1.
        -11    1    3    3    0    0 -0.25150516803E+01 -0.10137641935E+02 -0.32630633991E+02  0.34261575326E+02  0.51100000000E-03 0.  1.
         12    1    3    3    0    0  0.20867149881E+01  0.18368287352E+02  0.41007838204E+02  0.44982120380E+02  0.00000000000E+00 0. -1.
</event>
<event>
 7    1  0.3662489E-015  0.9000775E+02  0.7816164E-02  0.1186339E+00
        -11   -1    0    0    0    0  0.00000000000E+00  0.00000000000E+00  0.45593999997E+02  0.45594000000E+02  0.51100000000E-03 0. -1.
         11   -1    0    0    0    0 -0.00000000000E+00 -0.00000000000E+00 -0.45593999997E+02  0.45594000000E+02  0.51100000000E-03 0.  1.
    9900012    2    1    2    0    0  0.10742614752E+01  0.27690290052E+00  0.40283578689E+00  0.90007750194E+02  0.90000011697E+02 0.  0.
        -12    1    1    2    0    0 -0.10742614752E+01 -0.27690290052E+00 -0.40283578689E+00  0.11802498060E+01  0.00000000000E+00 0.  1.
         11    1    3    3    0    0 -0.30955582944E+01 -0.84232719509E+01 -0.23264599285E+00  0.89770883883E+01  0.51100000000E-03 0. -1.
        -11    1    3    3    0    0  0.25155130094E+02 -0.20238848741E+02  0.22292953238E+02  0.39234771985E+02  0.51100000000E-03 0.  1.
         12    1    3    3    0    0 -0.20985310324E+02  0.28939023592E+02 -0.21657471458E+02  0.41795889820E+02  0.00000000000E+00 0. -1.
</event>
<event>
 7    1  0.3662489E-015  0.9000777E+02  0.7816164E-02  0.1186339E+00
        -11   -1    0    0    0    0  0.00000000000E+00  0.00000000000E+00  0.45593999997E+02  0.45594000000E+02  0.51100000000E-03 0.  1.
         11   -1    0    0    0    0 -0.00000000000E+00 -0.00000000000E+00 -0.45593999997E+02  0.45594000000E+02  0.51100000000E-03 0. -1.
    9900012    2    1    2    0    0  0.49689822506E-01  0.47961299175E+00 -0.10772449178E+01  0.90007765145E+02  0.90000026845E+02 0.  0.
        -12    1    1    2    0    0 -0.49689822506E-01 -0.47961299175E+00  0.10772449178E+01  0.11802348551E+01  0.00000000000E+00 0.  1.
         11    1    3    3    0    0  0.29908269458E+01  0.72892469769E+01  0.54388731627E+01  0.95738972655E+01  0.51100000000E-03 0. -1.
        -11    1    3    3    0    0  0.33765826558E+02 -0.10556788828E+02  0.14196874736E+02  0.38119917183E+02  0.51100000000E-03 0.  1.
         12    1    3    3    0    0 -0.36706963681E+02  0.37471548433E+01 -0.20712992816E+02  0.42313950696E+02  0.00000000000E+00 0. -1.
</event>
<event>
 7    1  0.4386108E-015  0.9000775E+02  0.7816164E-02  0.1186339E+00
        -11   -1    0    0    0    0  0.00000000000E+00  0.00000000000E+00  0.45593999997E+02  0.45594000000E+02  0.51100000000E-03 0. -1.
         11   -1    0    0    0    0 -0.00000000000E+00 -0.00000000000E+00 -0.45593999997E+02  0.45594000000E+02  0.51100000000E-03 0.  1.
    9900012    2    1    2    0    0 -0.63530945400E-01 -0.45162548818E+00  0.10885680060E+01  0.90007753387E+02  0.90000014932E+02 0.  0.
        -12    1    1    2    0    0  0.63530945400E-01  0.45162548818E+00 -0.10885680060E+01  0.11802466125E+01  0.00000000000E+00 0.  1.
         11    1    3    3    0    0  0.20024366999E+02 -0.22535689918E+01  0.35687085465E+02  0.40983190654E+02  0.51100000000E-03 0. -1.
        -11    1    3    3    0    0  0.29807466499E+01 -0.76871340348E+01 -0.30150305849E+01  0.87787977508E+01  0.51100000000E-03 0.  1.
        -12    1    3    3    0    0 -0.23068644595E+02  0.94890775384E+01 -0.31583486874E+02  0.40245764983E+02  0.00000000000E+00 0.  1.
</event>
<event>
 7    1  0.3662489E-015  0.9000819E+02  0.7816164E-02  0.1186338E+00
        -11   -1    0    0    0    0  0.00000000000E+00  0.00000000000E+00  0.45593999997E+02  0.45594000000E+02  0.51100000000E-03 0. -1.
         11   -1    0    0    0    0 -0.00000000000E+00 -0.00000000000E+00 -0.45593999997E+02  0.45594000000E+02  0.51100000000E-03 0.  1.
    9900012    2    1    2    0    0 -0.97745539175E+00  0.58248175106E+00 -0.31184835280E+00  0.90008189240E+02  0.90000456537E+02 0.  0.
        -12    1    1    2    0    0  0.97745539175E+00 -0.58248175106E+00  0.31184835280E+00  0.11798107595E+01  0.00000000000E+00 0.  1.
         11    1    3    3    0    0  0.62742359606E+01 -0.61429296141E+01  0.33016961271E+01  0.93809817562E+01  0.51100000000E-03 0. -1.
        -11    1    3    3    0    0 -0.34322165811E+01 -0.36573809082E+02  0.20542386122E+01  0.36791894732E+02  0.51100000000E-03 0.  1.
         12    1    3    3    0    0 -0.38194747713E+01  0.43299220447E+02 -0.56677830921E+01  0.43835312752E+02  0.00000000000E+00 0. -1.
</event>
<event>
 7    1  0.3662489E-015  0.9000768E+02  0.7816164E-02  0.1186339E+00
        -11   -1    0    0    0    0  0.00000000000E+00  0.00000000000E+00  0.45593999997E+02  0.45594000000E+02  0.51100000000E-03 0.  1.
         11   -1    0    0    0    0 -0.00000000000E+00 -0.00000000000E+00 -0.45593999997E+02  0.45594000000E+02  0.51100000000E-03 0. -1.
    9900012    2    1    2    0    0  0.76456835908E+00 -0.82382643087E+00  0.36043329187E+00  0.90007675078E+02  0.89999935589E+02 0.  0.
        -12    1    1    2    0    0 -0.76456835908E+00  0.82382643087E+00 -0.36043329187E+00  0.11803249221E+01  0.00000000000E+00 0.  1.
         11    1    3    3    0    0 -0.32802659451E+02 -0.43518417984E+01 -0.23888825187E+02  0.40812117847E+02  0.51100000000E-03 0. -1.
        -11    1    3    3    0    0  0.20562892719E+01  0.97617286455E+01  0.21468565414E+01  0.10204345397E+02  0.51100000000E-03 0.  1.
        -12    1    3    3    0    0  0.31510938539E+02 -0.62337132780E+01  0.22102401937E+02  0.38991211833E+02  0.00000000000E+00 0.  1.
</event>
<event>
 7    1  0.3662489E-015  0.9000774E+02  0.7816164E-02  0.1186339E+00
        -11   -1    0    0    0    0  0.00000000000E+00  0.00000000000E+00  0.45593999997E+02  0.45594000000E+02  0.51100000000E-03 0. -1.
         11   -1    0    0    0    0 -0.00000000000E+00 -0.00000000000E+00 -0.45593999997E+02  0.45594000000E+02  0.51100000000E-03 0.  1.
    9900012    2    1    2    0    0  0.79637008197E+00 -0.13214610434E+00  0.86100926526E+00  0.90007743733E+02  0.90000005151E+02 0.  0.
        -12    1    1    2    0    0 -0.79637008197E+00  0.13214610434E+00 -0.86100926526E+00  0.11802562668E+01  0.00000000000E+00 0.  1.
         11    1    3    3    0    0 -0.65228486411E+01  0.22141146356E+01  0.40022853796E+01  0.79666898104E+01  0.51100000000E-03 0. -1.
        -11    1    3    3    0    0 -0.21931548035E+02  0.12651971799E+02  0.27303674690E+02  0.37236485353E+02  0.51100000000E-03 0.  1.
         12    1    3    3    0    0  0.29250766758E+02 -0.14998232539E+02 -0.30444950804E+02  0.44804568570E+02  0.00000000000E+00 0. -1.
</event>
<event>
 7    1  0.3662489E-015  0.9000770E+02  0.7816164E-02  0.1186339E+00
        -11   -1    0    0    0    0  0.00000000000E+00  0.00000000000E+00  0.45593999997E+02  0.45594000000E+02  0.51100000000E-03 0. -1.
         11   -1    0    0    0    0 -0.00000000000E+00 -0.00000000000E+00 -0.45593999997E+02  0.45594000000E+02  0.51100000000E-03 0.  1.
    9900012    2    1    2    0    0  0.11408427822E+01 -0.20033270971E+00  0.22683259263E+00  0.90007699838E+02  0.89999960675E+02 0.  0.
        -12    1    1    2    0    0 -0.11408427822E+01  0.20033270971E+00 -0.22683259263E+00  0.11803001624E+01  0.00000000000E+00 0.  1.
         11    1    3    3    0    0  0.49272063669E+00  0.26893535595E+02  0.22628437965E+02  0.35150408752E+02  0.51100000000E-03 0. -1.
        -11    1    3    3    0    0 -0.18228402855E+01  0.87814849050E+01  0.44173175533E+01  0.99974956100E+01  0.51100000000E-03 0.  1.
        -12    1    3    3    0    0  0.24709624310E+01 -0.35875353210E+02 -0.26818922926E+02  0.44859795476E+02  0.00000000000E+00 0.  1.
</event>
<event>
 7    1  0.3662489E-015  0.9000765E+02  0.7816164E-02  0.1186339E+00
        -11   -1    0    0    0    0  0.00000000000E+00  0.00000000000E+00  0.45593999997E+02  0.45594000000E+02  0.51100000000E-03 0.  1.
         11   -1    0    0    0    0 -0.00000000000E+00 -0.00000000000E+00 -0.45593999997E+02  0.45594000000E+02  0.51100000000E-03 0. -1.
    9900012    2    1    2    0    0 -0.90925520756E+00  0.39206060215E+00 -0.64247085881E+00  0.90007650326E+02  0.89999910510E+02 0.  0.
        -12    1    1    2    0    0  0.90925520756E+00 -0.39206060215E+00  0.64247085881E+00  0.11803496739E+01  0.00000000000E+00 0.  1.
         11    1    3    3    0    0  0.10035376888E+00  0.12630074132E+01  0.91828760098E+01  0.92698689676E+01  0.51100000000E-03 0. -1.
        -11    1    3    3    0    0  0.29354126249E+01  0.19418311810E+02  0.30006819363E+02  0.35862190248E+02  0.51100000000E-03 0.  1.
         12    1    3    3    0    0 -0.39450216013E+01 -0.20289258621E+02 -0.39832166232E+02  0.44875591111E+02  0.00000000000E+00 0. -1.
</event>
<event>
 7    1  0.3662489E-015  0.9000825E+02  0.7816164E-02  0.1186338E+00
        -11   -1    0    0    0    0  0.00000000000E+00  0.00000000000E+00  0.45593999997E+02  0.45594000000E+02  0.51100000000E-03 0. -1.
         11   -1    0    0    0    0 -0.00000000000E+00 -0.00000000000E+00 -0.45593999997E+02  0.45594000000E+02  0.51100000000E-03 0.  1.
    9900012    2    1    2    0    0 -0.64661502311E+00  0.26429389797E+00 -0.95071102942E+00  0.90008248452E+02  0.90000516530E+02 0.  0.
        -12    1    1    2    0    0  0.64661502311E+00 -0.26429389797E+00  0.95071102942E+00  0.11797515476E+01  0.00000000000E+00 0.  1.
         11    1    3    3    0    0  0.63065737886E+01  0.53496049150E+00 -0.71458137212E+01  0.95457692030E+01  0.51100000000E-03 0. -1.
        -11    1    3    3    0    0  0.19748377657E+02  0.17428294388E+02 -0.24589887110E+02  0.36033406912E+02  0.51100000000E-03 0.  1.
         12    1    3    3    0    0 -0.26701566468E+02 -0.17698960982E+02  0.30784989801E+02  0.44429072337E+02  0.00000000000E+00 0. -1.
</event>
<event>
 7    1  0.3662489E-015  0.9000755E+02  0.7816164E-02  0.1186339E+00
        -11   -1    0    0    0    0  0.00000000000E+00  0.00000000000E+00  0.45593999997E+02  0.45594000000E+02  0.51100000000E-03 0.  1.
         11   -1    0    0    0    0 -0.00000000000E+00 -0.00000000000E+00 -0.45593999997E+02  0.45594000000E+02  0.51100000000E-03 0. -1.
    9900012    2    1    2    0    0  0.58385580217E+00  0.49205422079E+00 -0.90025572561E+00  0.90007548677E+02  0.89999807520E+02 0.  0.
        -12    1    1    2    0    0 -0.58385580217E+00 -0.49205422079E+00  0.90025572561E+00  0.11804513228E+01  0.00000000000E+00 0.  1.
         11    1    3    3    0    0  0.69237982233E+01  0.11491326567E+01 -0.55469234729E+01  0.89458285237E+01  0.51100000000E-03 0. -1.
        -11    1    3    3    0    0  0.29569084792E+02 -0.57786130969E+01 -0.20924502298E+02  0.36681847574E+02  0.51100000000E-03 0.  1.
         12    1    3    3    0    0 -0.35909027214E+02  0.51215346609E+01  0.25571170045E+02  0.44379872579E+02  0.00000000000E+00 0. -1.
</event>
<event>
 7    1  0.3662489E-015  0.9000794E+02  0.7816164E-02  0.1186339E+00
        -11   -1    0    0    0    0  0.00000000000E+00  0.00000000000E+00  0.45593999997E+02  0.45594000000E+02  0.51100000000E-03 0.  1.
         11   -1    0    0    0    0 -0.00000000000E+00 -0.00000000000E+00 -0.45593999997E+02  0.45594000000E+02  0.51100000000E-03 0. -1.
    9900012    2    1    2    0    0  0.75851290384E+00 -0.66565265932E+00  0.61164022415E+00  0.90007941081E+02  0.90000205103E+02 0.  0.
        -12    1    1    2    0    0 -0.75851290384E+00  0.66565265932E+00 -0.61164022415E+00  0.11800589188E+01  0.00000000000E+00 0.  1.
         11    1    3    3    0    0 -0.24184099605E+01  0.36103470285E+02 -0.15945742826E+02  0.39542078699E+02  0.51100000000E-03 0. -1.
        -11    1    3    3    0    0  0.49817250512E+01 -0.61297246637E+01 -0.79368917627E+01  0.11197560451E+02  0.51100000000E-03 0.  1.
        -12    1    3    3    0    0 -0.18048021868E+01 -0.30639398280E+02  0.24494274813E+02  0.39268301931E+02  0.00000000000E+00 0.  1.
</event>
<event>
 7    1  0.3662489E-015  0.9000766E+02  0.7816164E-02  0.1186339E+00
        -11   -1    0    0    0    0  0.00000000000E+00  0.00000000000E+00  0.45593999997E+02  0.45594000000E+02  0.51100000000E-03 0.  1.
         11   -1    0    0    0    0 -0.00000000000E+00 -0.00000000000E+00 -0.45593999997E+02  0.45594000000E+02  0.51100000000E-03 0. -1.
    9900012    2    1    2    0    0 -0.67310230874E+00  0.54417898873E+00 -0.80249648881E+00  0.90007661869E+02  0.89999922205E+02 0.  0.
        -12    1    1    2    0    0  0.67310230874E+00 -0.54417898873E+00  0.80249648881E+00  0.11803381314E+01  0.00000000000E+00 0.  1.
         11    1    3    3    0    0  0.73068825669E+01 -0.75356793505E+01  0.35715516527E+01  0.11087514491E+02  0.51100000000E-03 0. -1.
        -11    1    3    3    0    0  0.14535161334E+02  0.38384590768E+02 -0.24886787731E+01  0.41119840050E+02  0.51100000000E-03 0.  1.
         12    1    3    3    0    0 -0.22515146210E+02 -0.30304732429E+02 -0.18853693684E+01  0.37800307328E+02  0.00000000000E+00 0. -1.
</event>
<event>
 7    1  0.3662489E-015  0.9000825E+02  0.7816164E-02  0.1186338E+00
        -11   -1    0    0    0    0  0.00000000000E+00  0.00000000000E+00  0.45593999997E+02  0.45594000000E+02  0.51100000000E-03 0.  1.
         11   -1    0    0    0    0 -0.00000000000E+00 -0.00000000000E+00 -0.45593999997E+02  0.45594000000E+02  0.51100000000E-03 0. -1.
    9900012    2    1    2    0    0  0.50991695666E+00 -0.76458601402E+00 -0.73972704620E+00  0.90008252918E+02  0.90000521055E+02 0.  0.
        -12    1    1    2    0    0 -0.50991695666E+00  0.76458601402E+00  0.73972704620E+00  0.11797470824E+01  0.00000000000E+00 0.  1.
         11    1    3    3    0    0 -0.22818235197E+02 -0.95077664815E+01 -0.18787579314E+02  0.31049035697E+02  0.51100000000E-03 0. -1.
        -11    1    3    3    0    0 -0.15119721836E+02  0.63809596168E+01 -0.22177332413E-01  0.16411067185E+02  0.51100000000E-03 0.  1.
        -12    1    3    3    0    0  0.38447873990E+02  0.23622208506E+01  0.18070029600E+02  0.42548150036E+02  0.00000000000E+00 0.  1.
</event>
<event>
 7    1  0.3662489E-015  0.9000779E+02  0.7816164E-02  0.1186339E+00
        -11   -1    0    0    0    0  0.00000000000E+00  0.00000000000E+00  0.45593999997E+02  0.45594000000E+02  0.51100000000E-03 0.  1.
         11   -1    0    0    0    0 -0.00000000000E+00 -0.00000000000E+00 -0.45593999997E+02  0.45594000000E+02  0.51100000000E-03 0. -1.
    9900012    2    1    2    0    0  0.13993290390E+00  0.10907232722E+01  0.42852885915E+00  0.90007790079E+02  0.90000052108E+02 0.  0.
        -12    1    1    2    0    0 -0.13993290390E+00 -0.10907232722E+01 -0.42852885915E+00  0.11802099209E+01  0.00000000000E+00 0.  1.
         11    1    3    3    0    0  0.55180310559E+01  0.75068996554E+01  0.31427547388E+01  0.98325539297E+01  0.51100000000E-03 0. -1.
        -11    1    3    3    0    0  0.13299709235E+02 -0.37747604875E+02  0.10504509658E+02  0.41377634815E+02  0.51100000000E-03 0.  1.
         12    1    3    3    0    0 -0.18677807387E+02  0.31331428491E+02 -0.13218735537E+02  0.38797601334E+02  0.00000000000E+00 0. -1.
</event>
<event>
 7    1  0.3662489E-015  0.9000769E+02  0.7816164E-02  0.1186339E+00
        -11   -1    0    0    0    0  0.00000000000E+00  0.00000000000E+00  0.45593999997E+02  0.45594000000E+02  0.51100000000E-03 0. -1.
         11   -1    0    0    0    0 -0.00000000000E+00 -0.00000000000E+00 -0.45593999997E+02  0.45594000000E+02  0.51100000000E-03 0.  1.
    9900012    2    1    2    0    0 -0.17056643580E+00  0.11128977137E+01  0.35425505251E+00  0.90007690349E+02  0.89999951062E+02 0.  0.
        -12    1    1    2    0    0  0.17056643580E+00 -0.11128977137E+01 -0.35425505251E+00  0.11803096511E+01  0.00000000000E+00 0.  1.
         11    1    3    3    0    0 -0.50144214582E+01  0.64936410037E+00  0.86300004830E+01  0.10002150014E+02  0.51100000000E-03 0. -1.
        -11    1    3    3    0    0 -0.44553646602E+01 -0.32973675163E+02  0.16717160689E+02  0.37236769325E+02  0.51100000000E-03 0.  1.
         12    1    3    3    0    0  0.92992196826E+01  0.33437208776E+02 -0.24992906120E+02  0.42768771010E+02  0.00000000000E+00 0. -1.
</event>
<event>
 7    1  0.3662489E-015  0.9000743E+02  0.7816164E-02  0.1186340E+00
        -11   -1    0    0    0    0  0.00000000000E+00  0.00000000000E+00  0.45593999997E+02  0.45594000000E+02  0.51100000000E-03 0.  1.
         11   -1    0    0    0    0 -0.00000000000E+00 -0.00000000000E+00 -0.45593999997E+02  0.45594000000E+02  0.51100000000E-03 0. -1.
    9900012    2    1    2    0    0 -0.11388651061E+01 -0.36030127766E-01 -0.30890712255E+00  0.90007434241E+02  0.89999691573E+02 0.  0.
        -12    1    1    2    0    0  0.11388651061E+01  0.36030127766E-01  0.30890712255E+00  0.11805657586E+01  0.00000000000E+00 0.  1.
         11    1    3    3    0    0  0.91367412054E+01  0.25933274008E+01  0.47211239269E+01  0.10606337646E+02  0.51100000000E-03 0. -1.
        -11    1    3    3    0    0  0.56062443004E+01  0.26164519402E+02  0.23692398131E+02  0.35739918581E+02  0.51100000000E-03 0.  1.
         12    1    3    3    0    0 -0.15881850612E+02 -0.28793876931E+02 -0.28722429181E+02  0.43661178015E+02  0.00000000000E+00 0. -1.
</event>
<event>
 7    1  0.3662489E-015  0.9000717E+02  0.7816164E-02  0.1186340E+00
        -11   -1    0    0    0    0  0.00000000000E+00  0.00000000000E+00  0.45593999997E+02  0.45594000000E+02  0.51100000000E-03 0.  1.
         11   -1    0    0    0    0 -0.00000000000E+00 -0.00000000000E+00 -0.45593999997E+02  0.45594000000E+02  0.51100000000E-03 0. -1.
    9900012    2    1    2    0    0  0.87107635181E+00  0.69122507749E+00 -0.39722643784E+00  0.90007171917E+02  0.89999425785E+02 0.  0.
        -12    1    1    2    0    0 -0.87107635181E+00 -0.69122507749E+00  0.39722643784E+00  0.11808280829E+01  0.00000000000E+00 0.  1.
         11    1    3    3    0    0  0.18283191586E+02  0.36595356953E+02  0.79423641059E+01  0.41672249674E+02  0.51100000000E-03 0. -1.
        -11    1    3    3    0    0 -0.70157235121E+01 -0.29542687604E+01  0.71746004026E+01  0.10460543557E+02  0.51100000000E-03 0.  1.
        -12    1    3    3    0    0 -0.10396391722E+02 -0.32949863115E+02 -0.15514190946E+02  0.37874378686E+02  0.00000000000E+00 0.  1.
</event>
<event>
 7    1  0.3662489E-015  0.9000772E+02  0.7816164E-02  0.1186339E+00
        -11   -1    0    0    0    0  0.00000000000E+00  0.00000000000E+00  0.45593999997E+02  0.45594000000E+02  0.51100000000E-03 0. -1.
         11   -1    0    0    0    0 -0.00000000000E+00 -0.00000000000E+00 -0.45593999997E+02  0.45594000000E+02  0.51100000000E-03 0.  1.
    9900012    2    1    2    0    0  0.68595157956E+00 -0.64121675399E+00  0.71510210515E+00  0.90007720577E+02  0.89999981689E+02 0.  0.
        -12    1    1    2    0    0 -0.68595157956E+00  0.64121675399E+00 -0.71510210515E+00  0.11802794228E+01  0.00000000000E+00 0.  1.
         11    1    3    3    0    0  0.91318558722E+01 -0.22922188853E+01 -0.10930852679E+01  0.94783909369E+01  0.51100000000E-03 0. -1.
        -11    1    3    3    0    0 -0.29748949054E+01 -0.38419550764E+02 -0.69326575004E+01  0.39153207032E+02  0.51100000000E-03 0.  1.
         12    1    3    3    0    0 -0.54710093872E+01  0.40070552895E+02  0.87408448735E+01  0.41376122609E+02  0.00000000000E+00 0. -1.
</event>
<event>
 7    1  0.3662489E-015  0.9000775E+02  0.7816164E-02  0.1186339E+00
        -11   -1    0    0    0    0  0.00000000000E+00  0.00000000000E+00  0.45593999997E+02  0.45594000000E+02  0.51100000000E-03 0. -1.
         11   -1    0    0    0    0 -0.00000000000E+00 -0.00000000000E+00 -0.45593999997E+02  0.45594000000E+02  0.51100000000E-03 0.  1.
    9900012    2    1    2    0    0 -0.11297713264E+01  0.33295700464E+00  0.75793111987E-01  0.90007750784E+02  0.90000012294E+02 0.  0.
        -12    1    1    2    0    0  0.11297713264E+01 -0.33295700464E+00 -0.75793111987E-01  0.11802492164E+01  0.00000000000E+00 0.  1.
         11    1    3    3    0    0  0.17551314421E+01  0.13344829195E+01 -0.96416746288E+01  0.98905622161E+01  0.51100000000E-03 0. -1.
        -11    1    3    3    0    0 -0.29929936827E+02  0.24680156248E+02  0.16592949254E+02  0.42192857169E+02  0.51100000000E-03 0.  1.
         12    1    3    3    0    0  0.27045034059E+02 -0.25681682163E+02 -0.68754815134E+01  0.37924331398E+02  0.00000000000E+00 0. -1.
</event>
<event>
 7    1  0.4517429E-015  0.9000772E+02  0.7816164E-02  0.1186339E+00
        -11   -1    0    0    0    0  0.00000000000E+00  0.00000000000E+00  0.45593999997E+02  0.45594000000E+02  0.51100000000E-03 0. -1.
         11   -1    0    0    0    0 -0.00000000000E+00 -0.00000000000E+00 -0.45593999997E+02  0.45594000000E+02  0.51100000000E-03 0.  1.
    9900012    2    1    2    0    0 -0.41389662342E+00 -0.54891895173E+00  0.95939785732E+00  0.90007717543E+02  0.89999978614E+02 0.  0.
        -12    1    1    2    0    0  0.41389662342E+00  0.54891895173E+00 -0.95939785732E+00  0.11802824573E+01  0.00000000000E+00 0.  1.
         11    1    3    3    0    0  0.80776173223E+01  0.58732024410E+01  0.37501326937E+02  0.38808400261E+02  0.51100000000E-03 0. -1.
        -11    1    3    3    0    0 -0.85196182142E+01  0.23192921421E+01  0.40231786218E+01  0.97030395773E+01  0.51100000000E-03 0.  1.
        -12    1    3    3    0    0  0.28104268498E-01 -0.87414135348E+01 -0.40565107702E+02  0.41496277704E+02  0.00000000000E+00 0.  1.
</event>
<event>
 7    1  0.3662489E-015  0.9000791E+02  0.7816164E-02  0.1186339E+00
        -11   -1    0    0    0    0  0.00000000000E+00  0.00000000000E+00  0.45593999997E+02  0.45594000000E+02  0.51100000000E-03 0. -1.
         11   -1    0    0    0    0 -0.00000000000E+00 -0.00000000000E+00 -0.45593999997E+02  0.45594000000E+02  0.51100000000E-03 0.  1.
    9900012    2    1    2    0    0  0.12540913684E+00  0.82003758284E+00  0.83930445566E+00  0.90007906335E+02  0.90000169898E+02 0.  0.
        -12    1    1    2    0    0 -0.12540913684E+00 -0.82003758284E+00 -0.83930445566E+00  0.11800936650E+01  0.00000000000E+00 0.  1.
         11    1    3    3    0    0  0.79588596152E+00 -0.33716129203E+01  0.84298336310E+01  0.91139071454E+01  0.51100000000E-03 0. -1.
        -11    1    3    3    0    0  0.93799340406E+01 -0.35282771569E+02  0.78309198667E+01  0.37338725720E+02  0.51100000000E-03 0.  1.
         12    1    3    3    0    0 -0.10050410865E+02  0.39474422072E+02 -0.15421449042E+02  0.43555273470E+02  0.00000000000E+00 0. -1.
</event>
<event>
 7    1  0.3662489E-015  0.9000774E+02  0.7816164E-02  0.1186339E+00
        -11   -1    0    0    0    0  0.00000000000E+00  0.00000000000E+00  0.45593999997E+02  0.45594000000E+02  0.51100000000E-03 0.  1.
         11   -1    0    0    0    0 -0.00000000000E+00 -0.00000000000E+00 -0.45593999997E+02  0.45594000000E+02  0.51100000000E-03 0. -1.
    9900012    2    1    2    0    0 -0.56651046583E+00 -0.60062649173E+00 -0.84340307390E+00  0.90007739420E+02  0.90000000781E+02 0.  0.
        -12    1    1    2    0    0  0.56651046583E+00  0.60062649173E+00  0.84340307390E+00  0.11802605795E+01  0.00000000000E+00 0.  1.
         11    1    3    3    0    0  0.10281545565E+02 -0.21272416131E+01  0.52530684509E+00  0.10512434715E+02  0.51100000000E-03 0. -1.
        -11    1    3    3    0    0  0.32514494409E+02 -0.10572791727E+02 -0.38598292447E+01  0.34407478165E+02  0.51100000000E-03 0.  1.
         12    1    3    3    0    0 -0.43362550440E+02  0.12099406849E+02  0.24911193257E+01  0.45087826541E+02  0.00000000000E+00 0. -1.
</event>
<event>
 7    1  0.3662489E-015  0.9000794E+02  0.7816164E-02  0.1186339E+00
        -11   -1    0    0    0    0  0.00000000000E+00  0.00000000000E+00  0.45593999997E+02  0.45594000000E+02  0.51100000000E-03 0. -1.
         11   -1    0    0    0    0 -0.00000000000E+00 -0.00000000000E+00 -0.45593999997E+02  0.45594000000E+02  0.51100000000E-03 0.  1.
    9900012    2    1    2    0    0  0.53266357830E+00  0.68270357537E+00  0.80170375377E+00  0.90007939168E+02  0.90000203164E+02 0.  0.
        -12    1    1    2    0    0 -0.53266357830E+00 -0.68270357537E+00 -0.80170375377E+00  0.11800608324E+01  0.00000000000E+00 0.  1.
         11    1    3    3    0    0  0.49515656036E+01  0.52490258415E+01  0.62714651065E+01  0.95604157365E+01  0.51100000000E-03 0. -1.
        -11    1    3    3    0    0  0.12174116368E+02  0.24473445933E+02  0.23616359911E+02  0.36123276719E+02  0.51100000000E-03 0.  1.
         12    1    3    3    0    0 -0.16593018393E+02 -0.29039768199E+02 -0.29086121264E+02  0.44324246712E+02  0.00000000000E+00 0. -1.
</event>
<event>
 7    1  0.4438636E-015  0.9000769E+02  0.7816164E-02  0.1186339E+00
        -11   -1    0    0    0    0  0.00000000000E+00  0.00000000000E+00  0.45593999997E+02  0.45594000000E+02  0.51100000000E-03 0. -1.
         11   -1    0    0    0    0 -0.00000000000E+00 -0.00000000000E+00 -0.45593999997E+02  0.45594000000E+02  0.51100000000E-03 0.  1.
    9900012    2    1    2    0    0  0.88206337688E+00  0.53178629120E+00  0.57645813342E+00  0.90007687990E+02  0.89999948672E+02 0.  0.
        -12    1    1    2    0    0 -0.88206337688E+00 -0.53178629120E+00 -0.57645813342E+00  0.11803120096E+01  0.00000000000E+00 0.  1.
         11    1    3    3    0    0 -0.74070823367E+01 -0.66065209777E+01 -0.87576193151E-01  0.99256565537E+01  0.51100000000E-03 0. -1.
        -11    1    3    3    0    0 -0.20393191376E+02  0.30298813099E+02 -0.15691838812E+02  0.39750901062E+02  0.51100000000E-03 0.  1.
         12    1    3    3    0    0  0.28682337089E+02 -0.23160505830E+02  0.16355873138E+02  0.40331130375E+02  0.00000000000E+00 0. -1.
</event>
<event>
 7    1  0.3662489E-015  0.9000784E+02  0.7816164E-02  0.1186339E+00
        -11   -1    0    0    0    0  0.00000000000E+00  0.00000000000E+00  0.45593999997E+02  0.45594000000E+02  0.51100000000E-03 0.  1.
         11   -1    0    0    0    0 -0.00000000000E+00 -0.00000000000E+00 -0.45593999997E+02  0.45594000000E+02  0.51100000000E-03 0. -1.
    9900012    2    1    2    0    0 -0.96191049082E+00  0.13916539211E-01 -0.68359850291E+00  0.90007842224E+02  0.90000104942E+02 0.  0.
        -12    1    1    2    0    0  0.96191049082E+00 -0.13916539211E-01  0.68359850291E+00  0.11801577757E+01  0.00000000000E+00 0.  1.
         11    1    3    3    0    0 -0.62112443211E+01 -0.49361277223E+01  0.39415020990E+01  0.88589137011E+01  0.51100000000E-03 0. -1.
        -11    1    3    3    0    0  0.31044166558E+02 -0.24764462026E+02  0.65403945520E+01  0.40246684558E+02  0.51100000000E-03 0.  1.
         12    1    3    3    0    0 -0.25794832728E+02  0.29714506288E+02 -0.11165495154E+02  0.40902243965E+02  0.00000000000E+00 0. -1.
</event>
<event>
 7    1  0.3662489E-015  0.9000777E+02  0.7816164E-02  0.1186339E+00
        -11   -1    0    0    0    0  0.00000000000E+00  0.00000000000E+00  0.45593999997E+02  0.45594000000E+02  0.51100000000E-03 0.  1.
         11   -1    0    0    0    0 -0.00000000000E+00 -0.00000000000E+00 -0.45593999997E+02  0.45594000000E+02  0.51100000000E-03 0. -1.
    9900012    2    1    2    0    0 -0.39976582102E+00  0.12318935709E+00 -0.11036111675E+01  0.90007768693E+02  0.90000030440E+02 0.  0.
        -12    1    1    2    0    0  0.39976582102E+00 -0.12318935709E+00  0.11036111675E+01  0.11802313072E+01  0.00000000000E+00 0.  1.
         11    1    3    3    0    0 -0.57232749128E+01 -0.34425255793E+01 -0.27303175816E+01  0.72153650254E+01  0.51100000000E-03 0. -1.
        -11    1    3    3    0    0 -0.12611213574E+02 -0.26289501982E+02  0.26970805245E+02  0.39719075494E+02  0.51100000000E-03 0.  1.
         12    1    3    3    0    0  0.17934722666E+02  0.29855216918E+02 -0.25344098831E+02  0.43073328173E+02  0.00000000000E+00 0. -1.
</event>
<event>
 7    1  0.3662489E-015  0.9000798E+02  0.7816164E-02  0.1186339E+00
        -11   -1    0    0    0    0  0.00000000000E+00  0.00000000000E+00  0.45593999997E+02  0.45594000000E+02  0.51100000000E-03 0.  1.
         11   -1    0    0    0    0 -0.00000000000E+00 -0.00000000000E+00 -0.45593999997E+02  0.45594000000E+02  0.51100000000E-03 0. -1.
    9900012    2    1    2    0    0 -0.50938291572E+00  0.10515355693E+01  0.16509467023E+00  0.90007977009E+02  0.90000241506E+02 0.  0.
        -12    1    1    2    0    0  0.50938291572E+00 -0.10515355693E+01 -0.16509467023E+00  0.11800229907E+01  0.00000000000E+00 0.  1.
         11    1    3    3    0    0 -0.88521207694E+01 -0.49603549114E+01 -0.11718229917E+01  0.10214613666E+02  0.51100000000E-03 0. -1.
        -11    1    3    3    0    0 -0.16835931884E+02 -0.18442222044E+02  0.26648000062E+02  0.36519584662E+02  0.51100000000E-03 0.  1.
         12    1    3    3    0    0  0.25178669738E+02  0.24454112525E+02 -0.25311082400E+02  0.43273778682E+02  0.00000000000E+00 0. -1.
</event>
<event>
 7    1  0.3662489E-015  0.9000780E+02  0.7816164E-02  0.1186339E+00
        -11   -1    0    0    0    0  0.00000000000E+00  0.00000000000E+00  0.45593999997E+02  0.45594000000E+02  0.51100000000E-03 0.  1.
         11   -1    0    0    0    0 -0.00000000000E+00 -0.00000000000E+00 -0.45593999997E+02  0.45594000000E+02  0.51100000000E-03 0. -1.
    9900012    2    1    2    0    0 -0.56173055223E+00 -0.10174662965E+01 -0.20517970202E+00  0.90007797650E+02  0.90000059779E+02 0.  0.
        -12    1    1    2    0    0  0.56173055223E+00  0.10174662965E+01  0.20517970202E+00  0.11802023504E+01  0.00000000000E+00 0.  1.
         11    1    3    3    0    0 -0.16753129903E+02  0.50923374988E+01 -0.31870991766E+02  0.36364259640E+02  0.51100000000E-03 0. -1.
        -11    1    3    3    0    0  0.17569401513E+01 -0.69008223979E+01 -0.84219245939E+01  0.11028916655E+02  0.51100000000E-03 0.  1.
        -12    1    3    3    0    0  0.14434459200E+02  0.79101860256E+00  0.40087736658E+02  0.42614621354E+02  0.00000000000E+00 0.  1.
</event>
<event>
 7    1  0.3662489E-015  0.9000777E+02  0.7816164E-02  0.1186339E+00
        -11   -1    0    0    0    0  0.00000000000E+00  0.00000000000E+00  0.45593999997E+02  0.45594000000E+02  0.51100000000E-03 0.  1.
         11   -1    0    0    0    0 -0.00000000000E+00 -0.00000000000E+00 -0.45593999997E+02  0.45594000000E+02  0.51100000000E-03 0. -1.
    9900012    2    1    2    0    0 -0.10394857752E+01  0.28036189797E+00 -0.48353319742E+00  0.90007772131E+02  0.90000033923E+02 0.  0.
        -12    1    1    2    0    0  0.10394857752E+01 -0.28036189797E+00  0.48353319742E+00  0.11802278694E+01  0.00000000000E+00 0.  1.
         11    1    3    3    0    0 -0.46385836024E+01 -0.13743747341E+02 -0.34136143209E+02  0.37090205207E+02  0.51100000000E-03 0. -1.
        -11    1    3    3    0    0  0.31292586968E+01 -0.46157105549E+01 -0.65495233518E+01  0.86019358470E+01  0.51100000000E-03 0.  1.
        -12    1    3    3    0    0  0.46983913043E+00  0.18639819794E+02  0.40202133364E+02  0.44315631077E+02  0.00000000000E+00 0.  1.
</event>
<event>
 7    1  0.3662489E-015  0.9000773E+02  0.7816164E-02  0.1186339E+00
        -11   -1    0    0    0    0  0.00000000000E+00  0.00000000000E+00  0.45593999997E+02  0.45594000000E+02  0.51100000000E-03 0.  1.
         11   -1    0    0    0    0 -0.00000000000E+00 -0.00000000000E+00 -0.45593999997E+02  0.45594000000E+02  0.51100000000E-03 0. -1.
    9900012    2    1    2    0    0  0.59314897503E+00  0.96600032047E+00  0.32873320210E+00  0.90007725522E+02  0.89999986699E+02 0.  0.
        -12    1    1    2    0    0 -0.59314897503E+00 -0.96600032047E+00 -0.32873320210E+00  0.11802744782E+01  0.00000000000E+00 0.  1.
         11    1    3    3    0    0  0.35520506914E+02 -0.58728331468E+01 -0.23101375343E+02  0.42776981235E+02  0.51100000000E-03 0. -1.
        -11    1    3    3    0    0 -0.50163304541E+01  0.94767586896E+01  0.38938426608E+01  0.11407652581E+02  0.51100000000E-03 0.  1.
        -12    1    3    3    0    0 -0.29911027485E+02 -0.26379252223E+01  0.19536265884E+02  0.35823091706E+02  0.00000000000E+00 0.  1.
</event>
<event>
 7    1  0.3662489E-015  0.9000771E+02  0.7816164E-02  0.1186339E+00
        -11   -1    0    0    0    0  0.00000000000E+00  0.00000000000E+00  0.45593999997E+02  0.45594000000E+02  0.51100000000E-03 0. -1.
         11   -1    0    0    0    0 -0.00000000000E+00 -0.00000000000E+00 -0.45593999997E+02  0.45594000000E+02  0.51100000000E-03 0.  1.
    9900012    2    1    2    0    0  0.52010428606E+00  0.99588977127E+00 -0.36164941315E+00  0.90007705459E+02  0.89999966371E+02 0.  0.
        -12    1    1    2    0    0 -0.52010428606E+00 -0.99588977127E+00  0.36164941315E+00  0.11802945408E+01  0.00000000000E+00 0.  1.
         11    1    3    3    0    0  0.19078717025E+01  0.75649160348E+01 -0.54062341979E+01  0.94918542714E+01  0.51100000000E-03 0. -1.
        -11    1    3    3    0    0 -0.36673786767E+02  0.14291230265E+02  0.29954056351E+01  0.39473767916E+02  0.51100000000E-03 0.  1.
         12    1    3    3    0    0  0.35286019351E+02 -0.20860256528E+02  0.20491791496E+01  0.41042083271E+02  0.00000000000E+00 0. -1.
</event>
<event>
 7    1  0.3662489E-015  0.9000777E+02  0.7816164E-02  0.1186339E+00
        -11   -1    0    0    0    0  0.00000000000E+00  0.00000000000E+00  0.45593999997E+02  0.45594000000E+02  0.51100000000E-03 0.  1.
         11   -1    0    0    0    0 -0.00000000000E+00 -0.00000000000E+00 -0.45593999997E+02  0.45594000000E+02  0.51100000000E-03 0. -1.
    9900012    2    1    2    0    0 -0.71504061135E+00 -0.89266449340E+00 -0.29121103507E+00  0.90007772547E+02  0.90000034345E+02 0.  0.
        -12    1    1    2    0    0  0.71504061135E+00  0.89266449340E+00  0.29121103507E+00  0.11802274529E+01  0.00000000000E+00 0.  1.
         11    1    3    3    0    0 -0.27505027840E+02  0.20565609934E+02  0.18474801429E+02  0.38997296785E+02  0.51100000000E-03 0. -1.
        -11    1    3    3    0    0  0.74358441683E+01  0.80405270094E+01  0.20202255687E+00  0.10953659957E+02  0.51100000000E-03 0.  1.
        -12    1    3    3    0    0  0.19354143060E+02 -0.29498801437E+02 -0.18968035021E+02  0.40056815805E+02  0.00000000000E+00 0.  1.
</event>
<event>
 7    1  0.3662489E-015  0.9000730E+02  0.7816164E-02  0.1186340E+00
        -11   -1    0    0    0    0  0.00000000000E+00  0.00000000000E+00  0.45593999997E+02  0.45594000000E+02  0.51100000000E-03 0. -1.
         11   -1    0    0    0    0 -0.00000000000E+00 -0.00000000000E+00 -0.45593999997E+02  0.45594000000E+02  0.51100000000E-03 0.  1.
    9900012    2    1    2    0    0  0.32228505631E+00 -0.70229332444E+00  0.89272458529E+00  0.90007304969E+02  0.89999560594E+02 0.  0.
        -12    1    1    2    0    0 -0.32228505631E+00  0.70229332444E+00 -0.89272458529E+00  0.11806950310E+01  0.00000000000E+00 0.  1.
         11    1    3    3    0    0 -0.25401395630E+02 -0.81069619607E+01  0.26065025485E+02  0.37287253666E+02  0.51100000000E-03 0. -1.
        -11    1    3    3    0    0 -0.55005149857E+01  0.84109164410E+01  0.31709986756E+01  0.10538235780E+02  0.51100000000E-03 0.  1.
        -12    1    3    3    0    0  0.31224195672E+02 -0.10062478047E+01 -0.28343299575E+02  0.42181815523E+02  0.00000000000E+00 0.  1.
</event>
<event>
 7    1  0.3662489E-015  0.9000772E+02  0.7816164E-02  0.1186339E+00
        -11   -1    0    0    0    0  0.00000000000E+00  0.00000000000E+00  0.45593999997E+02  0.45594000000E+02  0.51100000000E-03 0.  1.
         11   -1    0    0    0    0 -0.00000000000E+00 -0.00000000000E+00 -0.45593999997E+02  0.45594000000E+02  0.51100000000E-03 0. -1.
    9900012    2    1    2    0    0 -0.11474411754E+01 -0.27639266938E+00 -0.72072662560E-02  0.90007717787E+02  0.89999978861E+02 0.  0.
        -12    1    1    2    0    0  0.11474411754E+01  0.27639266938E+00  0.72072662560E-02  0.11802822134E+01  0.00000000000E+00 0.  1.
         11    1    3    3    0    0  0.82683523979E+01  0.21808701461E+01 -0.38155103890E+01  0.93637581002E+01  0.51100000000E-03 0. -1.
        -11    1    3    3    0    0  0.26406056286E+02  0.21462947575E+02  0.13301965150E+02  0.36536012430E+02  0.51100000000E-03 0.  1.
         12    1    3    3    0    0 -0.35821849859E+02 -0.23920210391E+02 -0.94936620274E+01  0.44107947256E+02  0.00000000000E+00 0. -1.
</event>
<event>
 7    1  0.3662489E-015  0.9000795E+02  0.7816164E-02  0.1186339E+00
        -11   -1    0    0    0    0  0.00000000000E+00  0.00000000000E+00  0.45593999997E+02  0.45594000000E+02  0.51100000000E-03 0. -1.
         11   -1    0    0    0    0 -0.00000000000E+00 -0.00000000000E+00 -0.45593999997E+02  0.45594000000E+02  0.51100000000E-03 0.  1.
    9900012    2    1    2    0    0  0.45402695021E+00  0.83733362223E+00  0.69659561122E+00  0.90007951903E+02  0.90000216068E+02 0.  0.
        -12    1    1    2    0    0 -0.45402695021E+00 -0.83733362223E+00 -0.69659561122E+00  0.11800480973E+01  0.00000000000E+00 0.  1.
         11    1    3    3    0    0 -0.22983724669E+02  0.30967576060E+02  0.15094570095E+02  0.41413625938E+02  0.51100000000E-03 0. -1.
        -11    1    3    3    0    0  0.75263266506E+01  0.41676753299E+01 -0.27171482218E+01  0.90220843062E+01  0.51100000000E-03 0.  1.
        -12    1    3    3    0    0  0.15911424968E+02 -0.34297917768E+02 -0.11680826262E+02  0.39572241659E+02  0.00000000000E+00 0.  1.
</event>
<event>
 7    1  0.3751782E-015  0.9000770E+02  0.7816164E-02  0.1186339E+00
        -11   -1    0    0    0    0  0.00000000000E+00  0.00000000000E+00  0.45593999997E+02  0.45594000000E+02  0.51100000000E-03 0. -1.
         11   -1    0    0    0    0 -0.00000000000E+00 -0.00000000000E+00 -0.45593999997E+02  0.45594000000E+02  0.51100000000E-03 0.  1.
    9900012    2    1    2    0    0 -0.53895608158E+00 -0.23852156205E-01  0.10497923860E+01  0.90007700616E+02  0.89999961464E+02 0.  0.
        -12    1    1    2    0    0  0.53895608158E+00  0.23852156205E-01 -0.10497923860E+01  0.11802993844E+01  0.00000000000E+00 0.  1.
         11    1    3    3    0    0 -0.53802787608E+01  0.62019281024E+01 -0.65444804481E+01  0.10499596960E+02  0.51100000000E-03 0. -1.
        -11    1    3    3    0    0  0.34702669999E+02  0.16090792704E+02 -0.80330546855E+01  0.39086044604E+02  0.51100000000E-03 0.  1.
         12    1    3    3    0    0 -0.29861347320E+02 -0.22316572963E+02  0.15627327520E+02  0.40422059052E+02  0.00000000000E+00 0. -1.
</event>
<event>
 7    1  0.3662489E-015  0.9000772E+02  0.7816164E-02  0.1186339E+00
        -11   -1    0    0    0    0  0.00000000000E+00  0.00000000000E+00  0.45593999997E+02  0.45594000000E+02  0.51100000000E-03 0.  1.
         11   -1    0    0    0    0 -0.00000000000E+00 -0.00000000000E+00 -0.45593999997E+02  0.45594000000E+02  0.51100000000E-03 0. -1.
    9900012    2    1    2    0    0  0.13403541192E+00  0.11252442124E+01 -0.33002155319E+00  0.90007722806E+02  0.89999983947E+02 0.  0.
        -12    1    1    2    0    0 -0.13403541192E+00 -0.11252442124E+01  0.33002155319E+00  0.11802771940E+01  0.00000000000E+00 0.  1.
         11    1    3    3    0    0  0.92050467402E+00  0.42856241248E+02 -0.20100476594E+01  0.42913226802E+02  0.51100000000E-03 0. -1.
        -11    1    3    3    0    0  0.34277970680E+01 -0.47842202532E+01  0.74168080745E+01  0.94682415709E+01  0.51100000000E-03 0.  1.
        -12    1    3    3    0    0 -0.42142663301E+01 -0.36946776782E+02 -0.57367819682E+01  0.37626254433E+02  0.00000000000E+00 0.  1.
</event>
<event>
 7    1  0.3662489E-015  0.9000775E+02  0.7816164E-02  0.1186339E+00
        -11   -1    0    0    0    0  0.00000000000E+00  0.00000000000E+00  0.45593999997E+02  0.45594000000E+02  0.51100000000E-03 0.  1.
         11   -1    0    0    0    0 -0.00000000000E+00 -0.00000000000E+00 -0.45593999997E+02  0.45594000000E+02  0.51100000000E-03 0. -1.
    9900012    2    1    2    0    0 -0.90520216204E+00  0.64812153613E+00 -0.39182802819E+00  0.90007753550E+02  0.90000015097E+02 0.  0.
        -12    1    1    2    0    0  0.90520216204E+00 -0.64812153613E+00  0.39182802819E+00  0.11802464503E+01  0.00000000000E+00 0.  1.
         11    1    3    3    0    0 -0.60995216407E+01 -0.48827458768E+00  0.54931505227E+01  0.82229726526E+01  0.51100000000E-03 0. -1.
        -11    1    3    3    0    0 -0.11323560441E+02  0.50513917909E+01  0.35205884329E+02  0.37325512344E+02  0.51100000000E-03 0.  1.
         12    1    3    3    0    0  0.16517879919E+02 -0.39149956671E+01 -0.41090862880E+02  0.44459268553E+02  0.00000000000E+00 0. -1.
</event>
<event>
 7    1  0.3662489E-015  0.9000771E+02  0.7816164E-02  0.1186339E+00
        -11   -1    0    0    0    0  0.00000000000E+00  0.00000000000E+00  0.45593999997E+02  0.45594000000E+02  0.51100000000E-03 0. -1.
         11   -1    0    0    0    0 -0.00000000000E+00 -0.00000000000E+00 -0.45593999997E+02  0.45594000000E+02  0.51100000000E-03 0.  1.
    9900012    2    1    2    0    0  0.82984046443E+00  0.36251012988E+00  0.75699614900E+00  0.90007706833E+02  0.89999967763E+02 0.  0.
        -12    1    1    2    0    0 -0.82984046443E+00 -0.36251012988E+00 -0.75699614900E+00  0.11802931671E+01  0.00000000000E+00 0.  1.
         11    1    3    3    0    0 -0.14025923196E+02 -0.36396266373E+01  0.30498543422E+02  0.33765878556E+02  0.51100000000E-03 0. -1.
        -11    1    3    3    0    0  0.51555247601E+00  0.10632923263E+01  0.11974167624E+02  0.12032334581E+02  0.51100000000E-03 0.  1.
        -12    1    3    3    0    0  0.14340211185E+02  0.29388444409E+01 -0.41715714897E+02  0.44209493695E+02  0.00000000000E+00 0.  1.
</event>
<event>
 7    1  0.3662489E-015  0.9000762E+02  0.7816164E-02  0.1186339E+00
        -11   -1    0    0    0    0  0.00000000000E+00  0.00000000000E+00  0.45593999997E+02  0.45594000000E+02  0.51100000000E-03 0.  1.
         11   -1    0    0    0    0 -0.00000000000E+00 -0.00000000000E+00 -0.45593999997E+02  0.45594000000E+02  0.51100000000E-03 0. -1.
    9900012    2    1    2    0    0 -0.11566323191E+00  0.11724166152E+01  0.73191497785E-01  0.90007620528E+02  0.89999880319E+02 0.  0.
        -12    1    1    2    0    0  0.11566323191E+00 -0.11724166152E+01 -0.73191497785E-01  0.11803794721E+01  0.00000000000E+00 0.  1.
         11    1    3    3    0    0  0.54492799508E+01 -0.30202725206E+02  0.11841607758E+02  0.32895637042E+02  0.51100000000E-03 0. -1.
        -11    1    3    3    0    0  0.17726216553E+01 -0.82733500559E+01  0.84908046987E+01  0.11986837505E+02  0.51100000000E-03 0.  1.
        -12    1    3    3    0    0 -0.73375648379E+01  0.39648491877E+02 -0.20259220959E+02  0.45125145980E+02  0.00000000000E+00 0.  1.
</event>
<event>
 7    1  0.3662489E-015  0.9000766E+02  0.7816164E-02  0.1186339E+00
        -11   -1    0    0    0    0  0.00000000000E+00  0.00000000000E+00  0.45593999997E+02  0.45594000000E+02  0.51100000000E-03 0.  1.
         11   -1    0    0    0    0 -0.00000000000E+00 -0.00000000000E+00 -0.45593999997E+02  0.45594000000E+02  0.51100000000E-03 0. -1.
    9900012    2    1    2    0    0 -0.95722263616E+00 -0.59532062672E+00 -0.35004423886E+00  0.90007655646E+02  0.89999915901E+02 0.  0.
        -12    1    1    2    0    0  0.95722263616E+00  0.59532062672E+00  0.35004423886E+00  0.11803443535E+01  0.00000000000E+00 0.  1.
         11    1    3    3    0    0 -0.17705173003E+02 -0.57873714702E+00 -0.32512832406E+02  0.37025563589E+02  0.51100000000E-03 0. -1.
        -11    1    3    3    0    0  0.54754199846E+01  0.10040465107E+01 -0.88394656455E+01  0.10446266633E+02  0.51100000000E-03 0.  1.
        -12    1    3    3    0    0  0.11272530382E+02 -0.10206299904E+01  0.41002253813E+02  0.42535825424E+02  0.00000000000E+00 0.  1.
</event>
<event>
 7    1  0.3662489E-015  0.9000828E+02  0.7816164E-02  0.1186338E+00
        -11   -1    0    0    0    0  0.00000000000E+00  0.00000000000E+00  0.45593999997E+02  0.45594000000E+02  0.51100000000E-03 0. -1.
         11   -1    0    0    0    0 -0.00000000000E+00 -0.00000000000E+00 -0.45593999997E+02  0.45594000000E+02  0.51100000000E-03 0.  1.
    9900012    2    1    2    0    0  0.11237762327E+01 -0.12258091007E+00  0.33739213523E+00  0.90008282850E+02  0.90000551382E+02 0.  0.
        -12    1    1    2    0    0 -0.11237762327E+01  0.12258091007E+00 -0.33739213523E+00  0.11797171498E+01  0.00000000000E+00 0.  1.
         11    1    3    3    0    0 -0.18844029602E+02 -0.15704587098E+02 -0.21207494693E+02  0.32426676348E+02  0.51100000000E-03 0. -1.
        -11    1    3    3    0    0 -0.79251808046E+01 -0.40950773484E+01 -0.83407016625E+01  0.12212512180E+02  0.51100000000E-03 0.  1.
        -12    1    3    3    0    0  0.27892986640E+02  0.19677083536E+02  0.29885588490E+02  0.45369094322E+02  0.00000000000E+00 0.  1.
</event>
<event>
 7    1  0.3662489E-015  0.9000785E+02  0.7816164E-02  0.1186339E+00
        -11   -1    0    0    0    0  0.00000000000E+00  0.00000000000E+00  0.45593999997E+02  0.45594000000E+02  0.51100000000E-03 0.  1.
         11   -1    0    0    0    0 -0.00000000000E+00 -0.00000000000E+00 -0.45593999997E+02  0.45594000000E+02  0.51100000000E-03 0. -1.
    9900012    2    1    2    0    0 -0.17232062531E+00  0.44197240482E+00 -0.10806092587E+01  0.90007851546E+02  0.90000114386E+02 0.  0.
        -12    1    1    2    0    0  0.17232062531E+00 -0.44197240482E+00  0.10806092587E+01  0.11801484544E+01  0.00000000000E+00 0.  1.
         11    1    3    3    0    0 -0.20816852731E+02 -0.13490401632E+02  0.20950789134E+01  0.24894209160E+02  0.51100000000E-03 0. -1.
        -11    1    3    3    0    0  0.53037181833E+01  0.24510517925E+01  0.27954681977E+02  0.28558734673E+02  0.51100000000E-03 0.  1.
         12    1    3    3    0    0  0.15340813922E+02  0.11481322244E+02 -0.31130370149E+02  0.36554907712E+02  0.00000000000E+00 0. -1.
</event>
<event>
 7    1  0.3662489E-015  0.9000777E+02  0.7816164E-02  0.1186339E+00
        -11   -1    0    0    0    0  0.00000000000E+00  0.00000000000E+00  0.45593999997E+02  0.45594000000E+02  0.51100000000E-03 0.  1.
         11   -1    0    0    0    0 -0.00000000000E+00 -0.00000000000E+00 -0.45593999997E+02  0.45594000000E+02  0.51100000000E-03 0. -1.
    9900012    2    1    2    0    0 -0.66058987681E+00 -0.25485804733E+00 -0.94425482621E+00  0.90007767486E+02  0.90000029217E+02 0.  0.
        -12    1    1    2    0    0  0.66058987681E+00  0.25485804733E+00  0.94425482621E+00  0.11802325137E+01  0.00000000000E+00 0.  1.
         11    1    3    3    0    0 -0.19936370111E+01  0.61124718554E+01 -0.63837765860E+01  0.90603258483E+01  0.51100000000E-03 0. -1.
        -11    1    3    3    0    0 -0.33023865765E+02  0.16126221817E+02 -0.82405501662E+01  0.37663475775E+02  0.51100000000E-03 0.  1.
         12    1    3    3    0    0  0.34356912899E+02 -0.22493551720E+02  0.13680071926E+02  0.43283965863E+02  0.00000000000E+00 0. -1.
</event>
<event>
 7    1  0.3662489E-015  0.9000771E+02  0.7816164E-02  0.1186339E+00
        -11   -1    0    0    0    0  0.00000000000E+00  0.00000000000E+00  0.45593999997E+02  0.45594000000E+02  0.51100000000E-03 0. -1.
         11   -1    0    0    0    0 -0.00000000000E+00 -0.00000000000E+00 -0.45593999997E+02  0.45594000000E+02  0.51100000000E-03 0.  1.
    9900012    2    1    2    0    0 -0.89227943288E+00 -0.77232766174E+00 -0.20950905113E-01  0.90007707009E+02  0.89999967942E+02 0.  0.
        -12    1    1    2    0    0  0.89227943288E+00  0.77232766174E+00  0.20950905113E-01  0.11802929907E+01  0.00000000000E+00 0.  1.
         11    1    3    3    0    0 -0.94082441704E+00  0.10242569100E+02 -0.72011530928E+00  0.10310865079E+02  0.51100000000E-03 0. -1.
        -11    1    3    3    0    0 -0.54501968105E+01  0.33301395229E+02 -0.67797079110E+01  0.34418774079E+02  0.51100000000E-03 0.  1.
         12    1    3    3    0    0  0.54987417946E+01 -0.44316291992E+02  0.74788723152E+01  0.45278067851E+02  0.00000000000E+00 0. -1.
</event>
<event>
 7    1  0.3662489E-015  0.9000773E+02  0.7816164E-02  0.1186339E+00
        -11   -1    0    0    0    0  0.00000000000E+00  0.00000000000E+00  0.45593999997E+02  0.45594000000E+02  0.51100000000E-03 0.  1.
         11   -1    0    0    0    0 -0.00000000000E+00 -0.00000000000E+00 -0.45593999997E+02  0.45594000000E+02  0.51100000000E-03 0. -1.
    9900012    2    1    2    0    0  0.42221823249E+00 -0.45137074707E+00 -0.10055043416E+01  0.90007727672E+02  0.89999988877E+02 0.  0.
        -12    1    1    2    0    0 -0.42221823249E+00  0.45137074707E+00  0.10055043416E+01  0.11802723279E+01  0.00000000000E+00 0.  1.
         11    1    3    3    0    0 -0.75135136189E+01  0.79827784070E+01 -0.15011640140E+01  0.11064860218E+02  0.51100000000E-03 0. -1.
        -11    1    3    3    0    0  0.10115461960E+02  0.34159518621E+02  0.53226093121E+01  0.36021180619E+02  0.51100000000E-03 0.  1.
         12    1    3    3    0    0 -0.21797301083E+01 -0.42593667775E+02 -0.48269496396E+01  0.42921686834E+02  0.00000000000E+00 0. -1.
</event>
<event>
 7    1  0.3662489E-015  0.9000770E+02  0.7816164E-02  0.1186339E+00
        -11   -1    0    0    0    0  0.00000000000E+00  0.00000000000E+00  0.45593999997E+02  0.45594000000E+02  0.51100000000E-03 0.  1.
         11   -1    0    0    0    0 -0.00000000000E+00 -0.00000000000E+00 -0.45593999997E+02  0.45594000000E+02  0.51100000000E-03 0. -1.
    9900012    2    1    2    0    0  0.23657344391E+00  0.70031902557E+00 -0.92016564092E+00  0.90007695574E+02  0.89999956355E+02 0.  0.
        -12    1    1    2    0    0 -0.23657344391E+00 -0.70031902557E+00  0.92016564092E+00  0.11803044263E+01  0.00000000000E+00 0.  1.
         11    1    3    3    0    0  0.50656647328E+01 -0.28535317108E+01 -0.38819606172E+02  0.39252584959E+02  0.51100000000E-03 0. -1.
        -11    1    3    3    0    0 -0.64676927524E+01 -0.45101929890E+01 -0.34413947857E+01  0.86032603512E+01  0.51100000000E-03 0.  1.
        -12    1    3    3    0    0  0.16386014635E+01  0.80640437253E+01  0.41340835316E+02  0.42151850263E+02  0.00000000000E+00 0.  1.
</event>
<event>
 7    1  0.3662489E-015  0.9000772E+02  0.7816164E-02  0.1186339E+00
        -11   -1    0    0    0    0  0.00000000000E+00  0.00000000000E+00  0.45593999997E+02  0.45594000000E+02  0.51100000000E-03 0.  1.
         11   -1    0    0    0    0 -0.00000000000E+00 -0.00000000000E+00 -0.45593999997E+02  0.45594000000E+02  0.51100000000E-03 0. -1.
    9900012    2    1    2    0    0 -0.11017880012E+00  0.29647179605E+00 -0.11371120218E+01  0.90007720947E+02  0.89999982063E+02 0.  0.
        -12    1    1    2    0    0  0.11017880012E+00 -0.29647179605E+00  0.11371120218E+01  0.11802790535E+01  0.00000000000E+00 0.  1.
         11    1    3    3    0    0  0.15211526781E+02 -0.11984907050E+02 -0.29514996621E+02  0.35301042050E+02  0.51100000000E-03 0. -1.
        -11    1    3    3    0    0  0.14740359905E+01 -0.34552297028E+01 -0.95944150323E+01  0.10303601044E+02  0.51100000000E-03 0.  1.
        -12    1    3    3    0    0 -0.16795741572E+02  0.15736608548E+02  0.37972299631E+02  0.44403077853E+02  0.00000000000E+00 0.  1.
</event>
<event>
 7    1  0.3662489E-015  0.9000772E+02  0.7816164E-02  0.1186339E+00
        -11   -1    0    0    0    0  0.00000000000E+00  0.00000000000E+00  0.45593999997E+02  0.45594000000E+02  0.51100000000E-03 0.  1.
         11   -1    0    0    0    0 -0.00000000000E+00 -0.00000000000E+00 -0.45593999997E+02  0.45594000000E+02  0.51100000000E-03 0. -1.
    9900012    2    1    2    0    0 -0.32051423390E+00  0.86487670032E+00 -0.73641656688E+00  0.90007724422E+02  0.89999985584E+02 0.  0.
        -12    1    1    2    0    0  0.32051423390E+00 -0.86487670032E+00  0.73641656688E+00  0.11802755784E+01  0.00000000000E+00 0.  1.
         11    1    3    3    0    0  0.10095686812E+02  0.68457348373E+01  0.77122241094E+01  0.14431402518E+02  0.51100000000E-03 0. -1.
        -11    1    3    3    0    0  0.86682499727E+01  0.27689771887E+02 -0.19936802372E+02  0.35204234317E+02  0.51100000000E-03 0.  1.
         12    1    3    3    0    0 -0.19084451019E+02 -0.33670630024E+02  0.11488161696E+02  0.40372087586E+02  0.00000000000E+00 0. -1.
</event>
<event>
 7    1  0.3662489E-015  0.9000763E+02  0.7816164E-02  0.1186339E+00
        -11   -1    0    0    0    0  0.00000000000E+00  0.00000000000E+00  0.45593999997E+02  0.45594000000E+02  0.51100000000E-03 0. -1.
         11   -1    0    0    0    0 -0.00000000000E+00 -0.00000000000E+00 -0.45593999997E+02  0.45594000000E+02  0.51100000000E-03 0.  1.
    9900012    2    1    2    0    0 -0.41581724219E+00 -0.10717454210E+01  0.26781558589E+00  0.90007632509E+02  0.89999892458E+02 0.  0.
        -12    1    1    2    0    0  0.41581724219E+00  0.10717454210E+01 -0.26781558589E+00  0.11803674912E+01  0.00000000000E+00 0.  1.
         11    1    3    3    0    0  0.10139578787E+01 -0.37741690287E+02  0.49218540378E+01  0.38074767810E+02  0.51100000000E-03 0. -1.
        -11    1    3    3    0    0 -0.67264571130E+01 -0.57241220143E+01 -0.23862944035E+01  0.91490545615E+01  0.51100000000E-03 0.  1.
        -12    1    3    3    0    0  0.52966819921E+01  0.42394066881E+02 -0.22677440483E+01  0.42783810138E+02  0.00000000000E+00 0.  1.
</event>
<event>
 7    1  0.3662489E-015  0.9000781E+02  0.7816164E-02  0.1186339E+00
        -11   -1    0    0    0    0  0.00000000000E+00  0.00000000000E+00  0.45593999997E+02  0.45594000000E+02  0.51100000000E-03 0. -1.
         11   -1    0    0    0    0 -0.00000000000E+00 -0.00000000000E+00 -0.45593999997E+02  0.45594000000E+02  0.51100000000E-03 0.  1.
    9900012    2    1    2    0    0 -0.67924774208E-01 -0.10108610192E+01  0.60530374757E+00  0.90007810862E+02  0.90000073165E+02 0.  0.
        -12    1    1    2    0    0  0.67924774208E-01  0.10108610192E+01 -0.60530374757E+00  0.11801891382E+01  0.00000000000E+00 0.  1.
         11    1    3    3    0    0  0.94149251933E+01 -0.38433350492E+01 -0.53522103518E+00  0.10183246168E+02  0.51100000000E-03 0. -1.
        -11    1    3    3    0    0  0.11295456571E+02  0.36974547204E+02  0.74186820851E+01  0.39366754047E+02  0.51100000000E-03 0.  1.
         12    1    3    3    0    0 -0.20778306538E+02 -0.34142073174E+02 -0.62781573024E+01  0.40457810647E+02  0.00000000000E+00 0. -1.
</event>
<event>
 7    1  0.3662489E-015  0.9000768E+02  0.7816164E-02  0.1186339E+00
        -11   -1    0    0    0    0  0.00000000000E+00  0.00000000000E+00  0.45593999997E+02  0.45594000000E+02  0.51100000000E-03 0.  1.
         11   -1    0    0    0    0 -0.00000000000E+00 -0.00000000000E+00 -0.45593999997E+02  0.45594000000E+02  0.51100000000E-03 0. -1.
    9900012    2    1    2    0    0 -0.34976349591E-01 -0.11593926644E+01  0.21848894699E+00  0.90007681350E+02  0.89999941944E+02 0.  0.
        -12    1    1    2    0    0  0.34976349591E-01  0.11593926644E+01 -0.21848894699E+00  0.11803186498E+01  0.00000000000E+00 0.  1.
         11    1    3    3    0    0  0.70285321138E+01  0.49273650958E+01 -0.42746153831E+01  0.95891359045E+01  0.51100000000E-03 0. -1.
        -11    1    3    3    0    0 -0.37267573476E+02  0.17771134853E+02  0.68685591764E+01  0.41855255013E+02  0.51100000000E-03 0.  1.
         12    1    3    3    0    0  0.30204065013E+02 -0.23857892614E+02 -0.23754548463E+01  0.38563290433E+02  0.00000000000E+00 0. -1.
</event>
<event>
 7    1  0.3662489E-015  0.9000775E+02  0.7816164E-02  0.1186339E+00
        -11   -1    0    0    0    0  0.00000000000E+00  0.00000000000E+00  0.45593999997E+02  0.45594000000E+02  0.51100000000E-03 0.  1.
         11   -1    0    0    0    0 -0.00000000000E+00 -0.00000000000E+00 -0.45593999997E+02  0.45594000000E+02  0.51100000000E-03 0. -1.
    9900012    2    1    2    0    0  0.11202414009E+01  0.22597778634E+00 -0.29491516234E+00  0.90007753539E+02  0.90000015085E+02 0.  0.
        -12    1    1    2    0    0 -0.11202414009E+01 -0.22597778634E+00  0.29491516234E+00  0.11802464612E+01  0.00000000000E+00 0.  1.
         11    1    3    3    0    0  0.70322135845E+00 -0.12659009766E+01 -0.48193293139E+01  0.50321924504E+01  0.51100000000E-03 0. -1.
        -11    1    3    3    0    0 -0.21625901048E+02  0.10363523196E+02 -0.32859361090E+02  0.40679476652E+02  0.51100000000E-03 0.  1.
         12    1    3    3    0    0  0.22042921090E+02 -0.88716444327E+01  0.37383775241E+02  0.44296084437E+02  0.00000000000E+00 0. -1.
</event>
<event>
 7    1  0.3662489E-015  0.9000774E+02  0.7816164E-02  0.1186339E+00
        -11   -1    0    0    0    0  0.00000000000E+00  0.00000000000E+00  0.45593999997E+02  0.45594000000E+02  0.51100000000E-03 0.  1.
         11   -1    0    0    0    0 -0.00000000000E+00 -0.00000000000E+00 -0.45593999997E+02  0.45594000000E+02  0.51100000000E-03 0. -1.
    9900012    2    1    2    0    0  0.97102101087E+00 -0.35417259979E+00 -0.56981523699E+00  0.90007741792E+02  0.90000003183E+02 0.  0.
        -12    1    1    2    0    0 -0.97102101087E+00  0.35417259979E+00  0.56981523699E+00  0.11802582083E+01  0.00000000000E+00 0.  1.
         11    1    3    3    0    0  0.13793527591E+02 -0.21468066052E+02  0.19725897469E+02  0.32252911413E+02  0.51100000000E-03 0. -1.
        -11    1    3    3    0    0  0.13144416619E+02  0.26968134848E+01  0.76052191390E+01  0.15423613378E+02  0.51100000000E-03 0.  1.
        -12    1    3    3    0    0 -0.25966923199E+02  0.18417079968E+02 -0.27900931845E+02  0.42331217000E+02  0.00000000000E+00 0.  1.
</event>
<event>
 7    1  0.3662489E-015  0.9000758E+02  0.7816164E-02  0.1186339E+00
        -11   -1    0    0    0    0  0.00000000000E+00  0.00000000000E+00  0.45593999997E+02  0.45594000000E+02  0.51100000000E-03 0.  1.
         11   -1    0    0    0    0 -0.00000000000E+00 -0.00000000000E+00 -0.45593999997E+02  0.45594000000E+02  0.51100000000E-03 0. -1.
    9900012    2    1    2    0    0  0.21861274356E+00  0.11324018676E+01 -0.25153386263E+00  0.90007578548E+02  0.89999837784E+02 0.  0.
        -12    1    1    2    0    0 -0.21861274356E+00 -0.11324018676E+01  0.25153386263E+00  0.11804214525E+01  0.00000000000E+00 0.  1.
         11    1    3    3    0    0  0.61737730216E+01  0.60780622597E+01 -0.77787942222E+01  0.11643365234E+02  0.51100000000E-03 0. -1.
        -11    1    3    3    0    0  0.28057855039E+01  0.22897699676E+02  0.32564800653E+02  0.39907935610E+02  0.51100000000E-03 0.  1.
         12    1    3    3    0    0 -0.87609457819E+01 -0.27843360069E+02 -0.25037540294E+02  0.38456277704E+02  0.00000000000E+00 0. -1.
</event>
<event>
 7    1  0.3662489E-015  0.9000772E+02  0.7816164E-02  0.1186339E+00
        -11   -1    0    0    0    0  0.00000000000E+00  0.00000000000E+00  0.45593999997E+02  0.45594000000E+02  0.51100000000E-03 0.  1.
         11   -1    0    0    0    0 -0.00000000000E+00 -0.00000000000E+00 -0.45593999997E+02  0.45594000000E+02  0.51100000000E-03 0. -1.
    9900012    2    1    2    0    0 -0.22846085873E+00  0.78885062582E+00 -0.84769376030E+00  0.90007718514E+02  0.89999979599E+02 0.  0.
        -12    1    1    2    0    0  0.22846085873E+00 -0.78885062582E+00  0.84769376030E+00  0.11802814855E+01  0.00000000000E+00 0.  1.
         11    1    3    3    0    0 -0.45440306661E+01  0.44575012352E+01  0.91946545100E+00  0.64314033409E+01  0.51100000000E-03 0. -1.
        -11    1    3    3    0    0 -0.10259860218E+02 -0.24822267199E+02  0.31595751000E+02  0.41469279740E+02  0.51100000000E-03 0.  1.
         12    1    3    3    0    0  0.14575430025E+02  0.21153616589E+02 -0.33362910212E+02  0.42107035434E+02  0.00000000000E+00 0. -1.
</event>
<event>
 7    1  0.3662489E-015  0.9000784E+02  0.7816164E-02  0.1186339E+00
        -11   -1    0    0    0    0  0.00000000000E+00  0.00000000000E+00  0.45593999997E+02  0.45594000000E+02  0.51100000000E-03 0.  1.
         11   -1    0    0    0    0 -0.00000000000E+00 -0.00000000000E+00 -0.45593999997E+02  0.45594000000E+02  0.51100000000E-03 0. -1.
    9900012    2    1    2    0    0  0.11152034834E+01  0.22307947728E+00  0.31517558768E+00  0.90007839454E+02  0.90000102135E+02 0.  0.
        -12    1    1    2    0    0 -0.11152034834E+01 -0.22307947728E+00 -0.31517558768E+00  0.11801605457E+01  0.00000000000E+00 0.  1.
         11    1    3    3    0    0  0.10772207014E+02 -0.33657479862E+01  0.35900740147E+01  0.11843028969E+02  0.51100000000E-03 0. -1.
        -11    1    3    3    0    0  0.14242510558E+02 -0.28934119268E+02 -0.15791838924E+02  0.35908418813E+02  0.51100000000E-03 0.  1.
         12    1    3    3    0    0 -0.23899514089E+02  0.32522946731E+02  0.12516940497E+02  0.42256391672E+02  0.00000000000E+00 0. -1.
</event>
<event>
 7    1  0.3662489E-015  0.9000771E+02  0.7816164E-02  0.1186339E+00
        -11   -1    0    0    0    0  0.00000000000E+00  0.00000000000E+00  0.45593999997E+02  0.45594000000E+02  0.51100000000E-03 0.  1.
         11   -1    0    0    0    0 -0.00000000000E+00 -0.00000000000E+00 -0.45593999997E+02  0.45594000000E+02  0.51100000000E-03 0. -1.
    9900012    2    1    2    0    0 -0.75579056486E+00 -0.12680631969E+00 -0.89765616283E+00  0.90007709439E+02  0.89999970404E+02 0.  0.
        -12    1    1    2    0    0  0.75579056486E+00  0.12680631969E+00  0.89765616283E+00  0.11802905605E+01  0.00000000000E+00 0.  1.
         11    1    3    3    0    0  0.21390938892E+01  0.13402920293E+02 -0.39356755113E+02  0.41631336375E+02  0.51100000000E-03 0. -1.
        -11    1    3    3    0    0  0.84314714605E+01 -0.89337087252E-01  0.32736495333E+01  0.90451353573E+01  0.51100000000E-03 0.  1.
        -12    1    3    3    0    0 -0.11326355915E+02 -0.13440389525E+02  0.35185449417E+02  0.39331237707E+02  0.00000000000E+00 0.  1.
</event>
<event>
 7    1  0.3662489E-015  0.9000822E+02  0.7816164E-02  0.1186338E+00
        -11   -1    0    0    0    0  0.00000000000E+00  0.00000000000E+00  0.45593999997E+02  0.45594000000E+02  0.51100000000E-03 0. -1.
         11   -1    0    0    0    0 -0.00000000000E+00 -0.00000000000E+00 -0.45593999997E+02  0.45594000000E+02  0.51100000000E-03 0.  1.
    9900012    2    1    2    0    0  0.41059135087E-02 -0.27669667653E+00  0.11468646696E+01  0.90008221852E+02  0.90000489579E+02 0.  0.
        -12    1    1    2    0    0 -0.41059135087E-02  0.27669667653E+00 -0.11468646696E+01  0.11797781485E+01  0.00000000000E+00 0.  1.
         11    1    3    3    0    0 -0.76341531578E+01  0.13632144943E+02  0.35220157606E+02  0.38530185208E+02  0.51100000000E-03 0. -1.
        -11    1    3    3    0    0 -0.13813629635E+02 -0.73122624041E+01 -0.99444804807E+01  0.18525070511E+02  0.51100000000E-03 0.  1.
        -12    1    3    3    0    0  0.21451888706E+02 -0.65965792151E+01 -0.24128812455E+02  0.32952966132E+02  0.00000000000E+00 0.  1.
</event>
<event>
 7    1  0.3662489E-015  0.9000772E+02  0.7816164E-02  0.1186339E+00
        -11   -1    0    0    0    0  0.00000000000E+00  0.00000000000E+00  0.45593999997E+02  0.45594000000E+02  0.51100000000E-03 0.  1.
         11   -1    0    0    0    0 -0.00000000000E+00 -0.00000000000E+00 -0.45593999997E+02  0.45594000000E+02  0.51100000000E-03 0. -1.
    9900012    2    1    2    0    0  0.27461553335E+00 -0.11473190763E+01  0.36008545102E-01  0.90007724028E+02  0.89999985185E+02 0.  0.
        -12    1    1    2    0    0 -0.27461553335E+00  0.11473190763E+01 -0.36008545102E-01  0.11802759717E+01  0.00000000000E+00 0.  1.
         11    1    3    3    0    0 -0.49366843733E+01  0.25008909630E+01 -0.89955621734E+01  0.10561507813E+02  0.51100000000E-03 0. -1.
        -11    1    3    3    0    0  0.13034496986E+02  0.13830610318E+02  0.39285529846E+02  0.43640998488E+02  0.51100000000E-03 0.  1.
         12    1    3    3    0    0 -0.78231970791E+01 -0.17478820357E+02 -0.30253959128E+02  0.35805217728E+02  0.00000000000E+00 0. -1.
</event>
<event>
 7    1  0.3662489E-015  0.9000779E+02  0.7816164E-02  0.1186339E+00
        -11   -1    0    0    0    0  0.00000000000E+00  0.00000000000E+00  0.45593999997E+02  0.45594000000E+02  0.51100000000E-03 0.  1.
         11   -1    0    0    0    0 -0.00000000000E+00 -0.00000000000E+00 -0.45593999997E+02  0.45594000000E+02  0.51100000000E-03 0. -1.
    9900012    2    1    2    0    0  0.22115047230E+00 -0.11460140046E+01  0.17503204406E+00  0.90007791609E+02  0.90000053658E+02 0.  0.
        -12    1    1    2    0    0 -0.22115047230E+00  0.11460140046E+01 -0.17503204406E+00  0.11802083912E+01  0.00000000000E+00 0.  1.
         11    1    3    3    0    0  0.84087451039E+01  0.11970274048E+01  0.21650952861E+01  0.87651301581E+01  0.51100000000E-03 0. -1.
        -11    1    3    3    0    0  0.96943321246E+01  0.36787837474E+02 -0.34089289747E+01  0.38196149784E+02  0.51100000000E-03 0.  1.
         12    1    3    3    0    0 -0.17881926756E+02 -0.39130878883E+02  0.14188657327E+01  0.43046511666E+02  0.00000000000E+00 0. -1.
</event>
<event>
 7    1  0.3662489E-015  0.9000772E+02  0.7816164E-02  0.1186339E+00
        -11   -1    0    0    0    0  0.00000000000E+00  0.00000000000E+00  0.45593999997E+02  0.45594000000E+02  0.51100000000E-03 0.  1.
         11   -1    0    0    0    0 -0.00000000000E+00 -0.00000000000E+00 -0.45593999997E+02  0.45594000000E+02  0.51100000000E-03 0. -1.
    9900012    2    1    2    0    0 -0.96471540496E+00 -0.31762963289E+00 -0.60124866536E+00  0.90007718528E+02  0.89999979612E+02 0.  0.
        -12    1    1    2    0    0  0.96471540496E+00  0.31762963289E+00  0.60124866536E+00  0.11802814723E+01  0.00000000000E+00 0.  1.
         11    1    3    3    0    0  0.65762013922E+01  0.27424090984E+02 -0.28316953312E+02  0.39964697373E+02  0.51100000000E-03 0. -1.
        -11    1    3    3    0    0 -0.83280220009E+01  0.40020002479E+01  0.27198788528E+01  0.96317027397E+01  0.51100000000E-03 0.  1.
        -12    1    3    3    0    0  0.78710520369E+00 -0.31743720864E+02  0.24995825793E+02  0.40411318415E+02  0.00000000000E+00 0.  1.
</event>
<event>
 7    1  0.3662489E-015  0.9000768E+02  0.7816164E-02  0.1186339E+00
        -11   -1    0    0    0    0  0.00000000000E+00  0.00000000000E+00  0.45593999997E+02  0.45594000000E+02  0.51100000000E-03 0.  1.
         11   -1    0    0    0    0 -0.00000000000E+00 -0.00000000000E+00 -0.45593999997E+02  0.45594000000E+02  0.51100000000E-03 0. -1.
    9900012    2    1    2    0    0 -0.96711961248E+00 -0.15343834309E+00  0.65900443884E+00  0.90007682026E+02  0.89999942628E+02 0.  0.
        -12    1    1    2    0    0  0.96711961248E+00  0.15343834309E+00 -0.65900443884E+00  0.11803179743E+01  0.00000000000E+00 0.  1.
         11    1    3    3    0    0  0.13402817981E+02 -0.19450060938E+02  0.44698226758E+01  0.24039960802E+02  0.51100000000E-03 0. -1.
        -11    1    3    3    0    0  0.17937789723E+02 -0.44655699786E+01 -0.15575699882E+02  0.24172464551E+02  0.51100000000E-03 0.  1.
         12    1    3    3    0    0 -0.32307727317E+02  0.23762192573E+02  0.11764881645E+02  0.41795256673E+02  0.00000000000E+00 0. -1.
</event>
<event>
 7    1  0.3662489E-015  0.9000767E+02  0.7816164E-02  0.1186339E+00
        -11   -1    0    0    0    0  0.00000000000E+00  0.00000000000E+00  0.45593999997E+02  0.45594000000E+02  0.51100000000E-03 0. -1.
         11   -1    0    0    0    0 -0.00000000000E+00 -0.00000000000E+00 -0.45593999997E+02  0.45594000000E+02  0.51100000000E-03 0.  1.
    9900012    2    1    2    0    0 -0.49028338787E+00 -0.10645924254E+01 -0.13943248995E+00  0.90007671126E+02  0.89999931584E+02 0.  0.
        -12    1    1    2    0    0  0.49028338787E+00  0.10645924254E+01  0.13943248995E+00  0.11803288744E+01  0.00000000000E+00 0.  1.
         11    1    3    3    0    0  0.77556180331E+01  0.27328750949E+01  0.37212606498E+02  0.38110317501E+02  0.51100000000E-03 0. -1.
        -11    1    3    3    0    0 -0.61868700196E+01 -0.93596677415E+01  0.25921692094E+01  0.11515210912E+02  0.51100000000E-03 0.  1.
        -12    1    3    3    0    0 -0.20590314013E+01  0.55622002212E+01 -0.39944208197E+02  0.40382142713E+02  0.00000000000E+00 0.  1.
</event>
<event>
 7    1  0.3662489E-015  0.9000791E+02  0.7816164E-02  0.1186339E+00
        -11   -1    0    0    0    0  0.00000000000E+00  0.00000000000E+00  0.45593999997E+02  0.45594000000E+02  0.51100000000E-03 0.  1.
         11   -1    0    0    0    0 -0.00000000000E+00 -0.00000000000E+00 -0.45593999997E+02  0.45594000000E+02  0.51100000000E-03 0. -1.
    9900012    2    1    2    0    0  0.66246029707E-01  0.65073602651E+00 -0.98222509935E+00  0.90007910148E+02  0.90000173762E+02 0.  0.
        -12    1    1    2    0    0 -0.66246029707E-01 -0.65073602651E+00  0.98222509935E+00  0.11800898519E+01  0.00000000000E+00 0.  1.
         11    1    3    3    0    0  0.50384345789E+01 -0.30044481489E+02 -0.25935370877E+02  0.40008750964E+02  0.51100000000E-03 0. -1.
        -11    1    3    3    0    0  0.89939905524E+01  0.70238150819E+00  0.84211640148E+00  0.90605941380E+01  0.51100000000E-03 0.  1.
        -12    1    3    3    0    0 -0.13966179102E+02  0.29992836007E+02  0.24111029376E+02  0.40938565046E+02  0.00000000000E+00 0.  1.
</event>
<event>
 7    1  0.3662489E-015  0.9000773E+02  0.7816164E-02  0.1186339E+00
        -11   -1    0    0    0    0  0.00000000000E+00  0.00000000000E+00  0.45593999997E+02  0.45594000000E+02  0.51100000000E-03 0.  1.
         11   -1    0    0    0    0 -0.00000000000E+00 -0.00000000000E+00 -0.45593999997E+02  0.45594000000E+02  0.51100000000E-03 0. -1.
    9900012    2    1    2    0    0 -0.36368983683E+00  0.10747576799E+01  0.32505177023E+00  0.90007731801E+02  0.89999993061E+02 0.  0.
        -12    1    1    2    0    0  0.36368983683E+00 -0.10747576799E+01 -0.32505177023E+00  0.11802681989E+01  0.00000000000E+00 0.  1.
         11    1    3    3    0    0 -0.38718160183E+02  0.80037280816E+01 -0.74380695400E+01  0.40230342652E+02  0.51100000000E-03 0. -1.
        -11    1    3    3    0    0  0.17526641875E+01  0.89619785112E+01  0.26832811293E-01  0.91317912180E+01  0.51100000000E-03 0.  1.
        -12    1    3    3    0    0  0.36601806159E+02 -0.15890948913E+02  0.77362884990E+01  0.40645597931E+02  0.00000000000E+00 0.  1.
</event>
<event>
 7    1  0.3662489E-015  0.9000771E+02  0.7816164E-02  0.1186339E+00
        -11   -1    0    0    0    0  0.00000000000E+00  0.00000000000E+00  0.45593999997E+02  0.45594000000E+02  0.51100000000E-03 0. -1.
         11   -1    0    0    0    0 -0.00000000000E+00 -0.00000000000E+00 -0.45593999997E+02  0.45594000000E+02  0.51100000000E-03 0.  1.
    9900012    2    1    2    0    0  0.20082415758E+00  0.35289323244E+00  0.11082552699E+01  0.90007706088E+02  0.89999967008E+02 0.  0.
        -12    1    1    2    0    0 -0.20082415758E+00 -0.35289323244E+00 -0.11082552699E+01  0.11802939121E+01  0.00000000000E+00 0.  1.
         11    1    3    3    0    0  0.50540004402E+01 -0.51716553283E+01 -0.85446475227E+01  0.11193745612E+02  0.51100000000E-03 0. -1.
        -11    1    3    3    0    0  0.59943992938E+01 -0.34471600217E+02 -0.39175621254E+01  0.35207546601E+02  0.51100000000E-03 0.  1.
         12    1    3    3    0    0 -0.10847575576E+02  0.39996148777E+02  0.13570464918E+02  0.43606413875E+02  0.00000000000E+00 0. -1.
</event>
<event>
 7    1  0.3662489E-015  0.9000777E+02  0.7816164E-02  0.1186339E+00
        -11   -1    0    0    0    0  0.00000000000E+00  0.00000000000E+00  0.45593999997E+02  0.45594000000E+02  0.51100000000E-03 0. -1.
         11   -1    0    0    0    0 -0.00000000000E+00 -0.00000000000E+00 -0.45593999997E+02  0.45594000000E+02  0.51100000000E-03 0.  1.
    9900012    2    1    2    0    0  0.21914210767E+00  0.34920658368E+00  0.11058859002E+01  0.90007766072E+02  0.90000027784E+02 0.  0.
        -12    1    1    2    0    0 -0.21914210767E+00 -0.34920658368E+00 -0.11058859002E+01  0.11802339284E+01  0.00000000000E+00 0.  1.
         11    1    3    3    0    0  0.55979827244E+01  0.34386674790E+02  0.12428621596E+02  0.36989883059E+02  0.51100000000E-03 0. -1.
        -11    1    3    3    0    0 -0.14611936330E+01  0.51620615338E+01 -0.12502993474E+02  0.13605396436E+02  0.51100000000E-03 0.  1.
        -12    1    3    3    0    0 -0.39176469838E+01 -0.39199529740E+02  0.11802577783E+01  0.39412486576E+02  0.00000000000E+00 0.  1.
</event>
<event>
 7    1  0.3662489E-015  0.9000773E+02  0.7816164E-02  0.1186339E+00
        -11   -1    0    0    0    0  0.00000000000E+00  0.00000000000E+00  0.45593999997E+02  0.45594000000E+02  0.51100000000E-03 0.  1.
         11   -1    0    0    0    0 -0.00000000000E+00 -0.00000000000E+00 -0.45593999997E+02  0.45594000000E+02  0.51100000000E-03 0. -1.
    9900012    2    1    2    0    0 -0.11032305533E+01 -0.28117670871E+00 -0.31123598940E+00  0.90007726372E+02  0.89999987560E+02 0.  0.
        -12    1    1    2    0    0  0.11032305533E+01  0.28117670871E+00  0.31123598940E+00  0.11802736277E+01  0.00000000000E+00 0.  1.
         11    1    3    3    0    0 -0.11433952523E+01  0.99938097194E+01 -0.37948201308E+01  0.10751011371E+02  0.51100000000E-03 0. -1.
        -11    1    3    3    0    0 -0.13722567084E+02  0.25470706255E+02 -0.19216008713E+02  0.34732128004E+02  0.51100000000E-03 0.  1.
         12    1    3    3    0    0  0.13762731783E+02 -0.35745692683E+02  0.22699592855E+02  0.44524586998E+02  0.00000000000E+00 0. -1.
</event>
<event>
 7    1  0.3662489E-015  0.9000773E+02  0.7816164E-02  0.1186339E+00
        -11   -1    0    0    0    0  0.00000000000E+00  0.00000000000E+00  0.45593999997E+02  0.45594000000E+02  0.51100000000E-03 0. -1.
         11   -1    0    0    0    0 -0.00000000000E+00 -0.00000000000E+00 -0.45593999997E+02  0.45594000000E+02  0.51100000000E-03 0.  1.
    9900012    2    1    2    0    0  0.83952627097E+00 -0.39488208207E+00 -0.72959298730E+00  0.90007727936E+02  0.89999989145E+02 0.  0.
        -12    1    1    2    0    0 -0.83952627097E+00  0.39488208207E+00  0.72959298730E+00  0.11802720642E+01  0.00000000000E+00 0.  1.
         11    1    3    3    0    0  0.92198585648E+01  0.21024719995E+01 -0.10006264834E+01  0.95093340505E+01  0.51100000000E-03 0. -1.
        -11    1    3    3    0    0  0.13293982377E+02 -0.51819069908E+01 -0.35683542399E+02  0.38430421881E+02  0.51100000000E-03 0.  1.
         12    1    3    3    0    0 -0.21674314670E+02  0.26845529093E+01  0.35954575896E+02  0.42067972005E+02  0.00000000000E+00 0. -1.
</event>
<event>
 7    1  0.3662489E-015  0.9000777E+02  0.7816164E-02  0.1186339E+00
        -11   -1    0    0    0    0  0.00000000000E+00  0.00000000000E+00  0.45593999997E+02  0.45594000000E+02  0.51100000000E-03 0.  1.
         11   -1    0    0    0    0 -0.00000000000E+00 -0.00000000000E+00 -0.45593999997E+02  0.45594000000E+02  0.51100000000E-03 0. -1.
    9900012    2    1    2    0    0  0.12522973440E+00  0.36513500486E+00 -0.11153219921E+01  0.90007767309E+02  0.90000029038E+02 0.  0.
        -12    1    1    2    0    0 -0.12522973440E+00 -0.36513500486E+00  0.11153219921E+01  0.11802326907E+01  0.00000000000E+00 0.  1.
         11    1    3    3    0    0  0.40615671180E+02  0.97873051063E+01  0.89053340601E+01  0.42716847515E+02  0.51100000000E-03 0. -1.
        -11    1    3    3    0    0 -0.69778747961E+00 -0.45462222644E+01 -0.51515385859E+01  0.69060404218E+01  0.51100000000E-03 0.  1.
        -12    1    3    3    0    0 -0.39792653966E+02 -0.48759478370E+01 -0.48691174663E+01  0.40384879372E+02  0.00000000000E+00 0.  1.
</event>
<event>
 7    1  0.3662489E-015  0.9000772E+02  0.7816164E-02  0.1186339E+00
        -11   -1    0    0    0    0  0.00000000000E+00  0.00000000000E+00  0.45593999997E+02  0.45594000000E+02  0.51100000000E-03 0. -1.
         11   -1    0    0    0    0 -0.00000000000E+00 -0.00000000000E+00 -0.45593999997E+02  0.45594000000E+02  0.51100000000E-03 0.  1.
    9900012    2    1    2    0    0 -0.91814356447E+00 -0.25695614848E+00  0.69573689389E+00  0.90007718723E+02  0.89999979810E+02 0.  0.
        -12    1    1    2    0    0  0.91814356447E+00  0.25695614848E+00 -0.69573689389E+00  0.11802812770E+01  0.00000000000E+00 0.  1.
         11    1    3    3    0    0 -0.20882405360E+02 -0.27138177205E+02 -0.14493280108E+01  0.34273255865E+02  0.51100000000E-03 0. -1.
        -11    1    3    3    0    0 -0.56559668581E+01 -0.89399538454E+01 -0.39130460828E+01  0.11279391197E+02  0.51100000000E-03 0.  1.
        -12    1    3    3    0    0  0.25620228654E+02  0.35821174902E+02  0.60581109875E+01  0.44455071661E+02  0.00000000000E+00 0.  1.
</event>
<event>
 7    1  0.3662489E-015  0.9000777E+02  0.7816164E-02  0.1186339E+00
        -11   -1    0    0    0    0  0.00000000000E+00  0.00000000000E+00  0.45593999997E+02  0.45594000000E+02  0.51100000000E-03 0.  1.
         11   -1    0    0    0    0 -0.00000000000E+00 -0.00000000000E+00 -0.45593999997E+02  0.45594000000E+02  0.51100000000E-03 0. -1.
    9900012    2    1    2    0    0 -0.39718003429E+00  0.10681830461E+01  0.30689966406E+00  0.90007765107E+02  0.90000026806E+02 0.  0.
        -12    1    1    2    0    0  0.39718003429E+00 -0.10681830461E+01 -0.30689966406E+00  0.11802348933E+01  0.00000000000E+00 0.  1.
         11    1    3    3    0    0  0.43528008411E+01 -0.19834311211E+02 -0.33086992525E+02  0.38821332421E+02  0.51100000000E-03 0. -1.
        -11    1    3    3    0    0 -0.88439748154E+01 -0.56568428781E+00 -0.24595238041E+01  0.91970183675E+01  0.51100000000E-03 0.  1.
        -12    1    3    3    0    0  0.40939939400E+01  0.21468178545E+02  0.35853415993E+02  0.41989414318E+02  0.00000000000E+00 0.  1.
</event>
<event>
 7    1  0.3662489E-015  0.9000880E+02  0.7816164E-02  0.1186337E+00
        -11   -1    0    0    0    0  0.00000000000E+00  0.00000000000E+00  0.45593999997E+02  0.45594000000E+02  0.51100000000E-03 0.  1.
         11   -1    0    0    0    0 -0.00000000000E+00 -0.00000000000E+00 -0.45593999997E+02  0.45594000000E+02  0.51100000000E-03 0. -1.
    9900012    2    1    2    0    0  0.31791614528E+00  0.25937228325E+00 -0.11055155161E+01  0.90008801453E+02  0.90001076826E+02 0.  0.
        -12    1    1    2    0    0 -0.31791614528E+00 -0.25937228325E+00  0.11055155161E+01  0.11791985469E+01  0.00000000000E+00 0.  1.
         11    1    3    3    0    0 -0.69956289783E+01  0.64224839893E+01  0.10479342774E+01  0.95543336714E+01  0.51100000000E-03 0. -1.
        -11    1    3    3    0    0  0.18766675942E+02 -0.14213267128E+02  0.34188318760E+02  0.41509592003E+02  0.51100000000E-03 0.  1.
         12    1    3    3    0    0 -0.11453130819E+02  0.80501554220E+01 -0.36341768553E+02  0.38944875779E+02  0.00000000000E+00 0. -1.
</event>
<event>
 7    1  0.3662489E-015  0.9000773E+02  0.7816164E-02  0.1186339E+00
        -11   -1    0    0    0    0  0.00000000000E+00  0.00000000000E+00  0.45593999997E+02  0.45594000000E+02  0.51100000000E-03 0.  1.
         11   -1    0    0    0    0 -0.00000000000E+00 -0.00000000000E+00 -0.45593999997E+02  0.45594000000E+02  0.51100000000E-03 0. -1.
    9900012    2    1    2    0    0 -0.10545314434E+01 -0.49229864425E-01 -0.52780161879E+00  0.90007731093E+02  0.89999992343E+02 0.  0.
        -12    1    1    2    0    0  0.10545314434E+01  0.49229864425E-01  0.52780161879E+00  0.11802689072E+01  0.00000000000E+00 0.  1.
         11    1    3    3    0    0 -0.26273290208E+02 -0.13313822706E+02  0.25509101575E+02  0.38964829229E+02  0.51100000000E-03 0. -1.
        -11    1    3    3    0    0 -0.23812875438E+00 -0.96218443618E+01 -0.66949568608E+01  0.11724292808E+02  0.51100000000E-03 0.  1.
        -12    1    3    3    0    0  0.25456887519E+02  0.22886437204E+02 -0.19341946333E+02  0.39318609055E+02  0.00000000000E+00 0.  1.
</event>
<event>
 7    1  0.3662489E-015  0.9000804E+02  0.7816164E-02  0.1186338E+00
        -11   -1    0    0    0    0  0.00000000000E+00  0.00000000000E+00  0.45593999997E+02  0.45594000000E+02  0.51100000000E-03 0.  1.
         11   -1    0    0    0    0 -0.00000000000E+00 -0.00000000000E+00 -0.45593999997E+02  0.45594000000E+02  0.51100000000E-03 0. -1.
    9900012    2    1    2    0    0  0.53581452894E+00  0.40754202524E+00 -0.96908391923E+00  0.90008037562E+02  0.90000302858E+02 0.  0.
        -12    1    1    2    0    0 -0.53581452894E+00 -0.40754202524E+00  0.96908391923E+00  0.11799624377E+01  0.00000000000E+00 0.  1.
         11    1    3    3    0    0  0.22521999988E+02 -0.15302003999E+02 -0.34334286019E+02  0.43820486151E+02  0.51100000000E-03 0. -1.
        -11    1    3    3    0    0  0.77868446706E+00 -0.43283065809E+00  0.92842512252E+01  0.93268972842E+01  0.51100000000E-03 0.  1.
        -12    1    3    3    0    0 -0.22764869926E+02  0.16142376682E+02  0.24080950874E+02  0.36860654127E+02  0.00000000000E+00 0.  1.
</event>
<event>
 7    1  0.3662489E-015  0.9000765E+02  0.7816164E-02  0.1186339E+00
        -11   -1    0    0    0    0  0.00000000000E+00  0.00000000000E+00  0.45593999997E+02  0.45594000000E+02  0.51100000000E-03 0.  1.
         11   -1    0    0    0    0 -0.00000000000E+00 -0.00000000000E+00 -0.45593999997E+02  0.45594000000E+02  0.51100000000E-03 0. -1.
    9900012    2    1    2    0    0 -0.52781278945E+00 -0.97424026049E+00  0.40681642429E+00  0.90007648345E+02  0.89999908503E+02 0.  0.
        -12    1    1    2    0    0  0.52781278945E+00  0.97424026049E+00 -0.40681642429E+00  0.11803516548E+01  0.00000000000E+00 0.  1.
         11    1    3    3    0    0  0.27599951971E+01  0.25525562358E+02 -0.34737177334E+02  0.43195409439E+02  0.51100000000E-03 0. -1.
        -11    1    3    3    0    0  0.40927169233E+01 -0.12679783661E+01  0.76775774284E+01  0.87922293181E+01  0.51100000000E-03 0.  1.
        -12    1    3    3    0    0 -0.73805249098E+01 -0.25231824253E+02  0.27466416330E+02  0.38020009588E+02  0.00000000000E+00 0.  1.
</event>
<event>
 7    1  0.3662489E-015  0.9000774E+02  0.7816164E-02  0.1186339E+00
        -11   -1    0    0    0    0  0.00000000000E+00  0.00000000000E+00  0.45593999997E+02  0.45594000000E+02  0.51100000000E-03 0.  1.
         11   -1    0    0    0    0 -0.00000000000E+00 -0.00000000000E+00 -0.45593999997E+02  0.45594000000E+02  0.51100000000E-03 0. -1.
    9900012    2    1    2    0    0  0.94240017536E+00  0.47363093323E+00 -0.52968867034E+00  0.90007739673E+02  0.90000001037E+02 0.  0.
        -12    1    1    2    0    0 -0.94240017536E+00 -0.47363093323E+00  0.52968867034E+00  0.11802603268E+01  0.00000000000E+00 0.  1.
         11    1    3    3    0    0  0.24878424089E+02 -0.36398555039E+02 -0.40479711595E+01  0.44273884682E+02  0.51100000000E-03 0. -1.
        -11    1    3    3    0    0 -0.80958765258E+01  0.50311209512E+01 -0.20149716122E+01  0.97424589096E+01  0.51100000000E-03 0.  1.
        -12    1    3    3    0    0 -0.15840147388E+02  0.31841065021E+02  0.55332541013E+01  0.35991396081E+02  0.00000000000E+00 0.  1.
</event>
<event>
 7    1  0.3662489E-015  0.9000776E+02  0.7816164E-02  0.1186339E+00
        -11   -1    0    0    0    0  0.00000000000E+00  0.00000000000E+00  0.45593999997E+02  0.45594000000E+02  0.51100000000E-03 0. -1.
         11   -1    0    0    0    0 -0.00000000000E+00 -0.00000000000E+00 -0.45593999997E+02  0.45594000000E+02  0.51100000000E-03 0.  1.
    9900012    2    1    2    0    0 -0.78995021770E+00  0.36050694743E+00  0.79936002314E+00  0.90007761443E+02  0.90000023094E+02 0.  0.
        -12    1    1    2    0    0  0.78995021770E+00 -0.36050694743E+00 -0.79936002314E+00  0.11802385573E+01  0.00000000000E+00 0.  1.
         11    1    3    3    0    0  0.25124703599E+02  0.63835913344E+01  0.26442610125E+02  0.37029887925E+02  0.51100000000E-03 0. -1.
        -11    1    3    3    0    0  0.98819483516E+01 -0.22596301011E+01 -0.35309207437E+01  0.10734348279E+02  0.51100000000E-03 0.  1.
        -12    1    3    3    0    0 -0.35796602168E+02 -0.37634542859E+01 -0.22112329358E+02  0.42243525239E+02  0.00000000000E+00 0.  1.
</event>
<event>
 7    1  0.3662489E-015  0.9000780E+02  0.7816164E-02  0.1186339E+00
        -11   -1    0    0    0    0  0.00000000000E+00  0.00000000000E+00  0.45593999997E+02  0.45594000000E+02  0.51100000000E-03 0. -1.
         11   -1    0    0    0    0 -0.00000000000E+00 -0.00000000000E+00 -0.45593999997E+02  0.45594000000E+02  0.51100000000E-03 0.  1.
    9900012    2    1    2    0    0  0.11392073211E+01 -0.24603121858E+00  0.18585129386E+00  0.90007802820E+02  0.90000065017E+02 0.  0.
        -12    1    1    2    0    0 -0.11392073211E+01  0.24603121858E+00 -0.18585129386E+00  0.11801971804E+01  0.00000000000E+00 0.  1.
         11    1    3    3    0    0 -0.35486940211E+01 -0.43701089238E+01 -0.45257831912E+01  0.72231430150E+01  0.51100000000E-03 0. -1.
        -11    1    3    3    0    0  0.76999990318E+01  0.39500990404E+02 -0.14051220169E+02  0.42626928303E+02  0.51100000000E-03 0.  1.
         12    1    3    3    0    0 -0.30120976896E+01 -0.35376912699E+02  0.18762854654E+02  0.40157731502E+02  0.00000000000E+00 0. -1.
</event>
<event>
 7    1  0.3662489E-015  0.9000778E+02  0.7816164E-02  0.1186339E+00
        -11   -1    0    0    0    0  0.00000000000E+00  0.00000000000E+00  0.45593999997E+02  0.45594000000E+02  0.51100000000E-03 0.  1.
         11   -1    0    0    0    0 -0.00000000000E+00 -0.00000000000E+00 -0.45593999997E+02  0.45594000000E+02  0.51100000000E-03 0. -1.
    9900012    2    1    2    0    0 -0.71976173967E+00  0.93320393335E+00  0.63136094166E-01  0.90007782770E+02  0.90000044703E+02 0.  0.
        -12    1    1    2    0    0  0.71976173967E+00 -0.93320393335E+00 -0.63136094166E-01  0.11802172298E+01  0.00000000000E+00 0.  1.
         11    1    3    3    0    0 -0.10106554201E+02 -0.15363570997E+01 -0.34662499553E+01  0.10794337403E+02  0.51100000000E-03 0. -1.
        -11    1    3    3    0    0 -0.27268350584E+02 -0.19501557756E+02 -0.89401499077E+01  0.34695820773E+02  0.51100000000E-03 0.  1.
         12    1    3    3    0    0  0.36655143045E+02  0.21971118789E+02  0.12469535957E+02  0.44517624594E+02  0.00000000000E+00 0. -1.
</event>
<event>
 7    1  0.3662489E-015  0.9000771E+02  0.7816164E-02  0.1186339E+00
        -11   -1    0    0    0    0  0.00000000000E+00  0.00000000000E+00  0.45593999997E+02  0.45594000000E+02  0.51100000000E-03 0.  1.
         11   -1    0    0    0    0 -0.00000000000E+00 -0.00000000000E+00 -0.45593999997E+02  0.45594000000E+02  0.51100000000E-03 0. -1.
    9900012    2    1    2    0    0 -0.24039004486E-01  0.11794009731E+01 -0.38948774676E-01  0.90007711249E+02  0.89999972237E+02 0.  0.
        -12    1    1    2    0    0  0.24039004486E-01 -0.11794009731E+01  0.38948774676E-01  0.11802887512E+01  0.00000000000E+00 0.  1.
         11    1    3    3    0    0 -0.20048550540E+02 -0.17747291380E+02 -0.32849952171E+02  0.42379595184E+02  0.51100000000E-03 0. -1.
        -11    1    3    3    0    0  0.33333106915E+00 -0.35630219668E+01  0.80612667179E+01  0.88198784853E+01  0.51100000000E-03 0.  1.
        -12    1    3    3    0    0  0.19691180466E+02  0.22489714320E+02  0.24749736679E+02  0.38808237579E+02  0.00000000000E+00 0.  1.
</event>
<event>
 7    1  0.3662489E-015  0.9000785E+02  0.7816164E-02  0.1186339E+00
        -11   -1    0    0    0    0  0.00000000000E+00  0.00000000000E+00  0.45593999997E+02  0.45594000000E+02  0.51100000000E-03 0.  1.
         11   -1    0    0    0    0 -0.00000000000E+00 -0.00000000000E+00 -0.45593999997E+02  0.45594000000E+02  0.51100000000E-03 0. -1.
    9900012    2    1    2    0    0  0.27595641169E+00  0.12037031655E+00 -0.11411024618E+01  0.90007849254E+02  0.90000112064E+02 0.  0.
        -12    1    1    2    0    0 -0.27595641169E+00 -0.12037031655E+00  0.11411024618E+01  0.11801507457E+01  0.00000000000E+00 0.  1.
         11    1    3    3    0    0 -0.36527765005E+02 -0.15778148212E+02  0.30642827224E+01  0.39907610880E+02  0.51100000000E-03 0. -1.
        -11    1    3    3    0    0 -0.18593548120E+01  0.96125456956E+01 -0.48457510802E+01  0.10924263767E+02  0.51100000000E-03 0.  1.
        -12    1    3    3    0    0  0.38663076229E+02  0.62859728329E+01  0.64036589601E+00  0.39175974607E+02  0.00000000000E+00 0.  1.
</event>
<event>
 7    1  0.3662489E-015  0.9000752E+02  0.7816164E-02  0.1186339E+00
        -11   -1    0    0    0    0  0.00000000000E+00  0.00000000000E+00  0.45593999997E+02  0.45594000000E+02  0.51100000000E-03 0. -1.
         11   -1    0    0    0    0 -0.00000000000E+00 -0.00000000000E+00 -0.45593999997E+02  0.45594000000E+02  0.51100000000E-03 0.  1.
    9900012    2    1    2    0    0  0.81794088961E+00 -0.25314065751E+00  0.81266409299E+00  0.90007521106E+02  0.89999779584E+02 0.  0.
        -12    1    1    2    0    0 -0.81794088961E+00  0.25314065751E+00 -0.81266409299E+00  0.11804788941E+01  0.00000000000E+00 0.  1.
         11    1    3    3    0    0  0.15315074613E+01  0.58706185165E+01 -0.75125264242E-01  0.60675630147E+01  0.51100000000E-03 0. -1.
        -11    1    3    3    0    0  0.15880989604E+02  0.27851750653E+02 -0.22781651100E+02  0.39331024298E+02  0.51100000000E-03 0.  1.
         12    1    3    3    0    0 -0.16594556175E+02 -0.33975509827E+02  0.23669440457E+02  0.44608933794E+02  0.00000000000E+00 0. -1.
</event>
<event>
 7    1  0.3662489E-015  0.9000737E+02  0.7816164E-02  0.1186340E+00
        -11   -1    0    0    0    0  0.00000000000E+00  0.00000000000E+00  0.45593999997E+02  0.45594000000E+02  0.51100000000E-03 0.  1.
         11   -1    0    0    0    0 -0.00000000000E+00 -0.00000000000E+00 -0.45593999997E+02  0.45594000000E+02  0.51100000000E-03 0. -1.
    9900012    2    1    2    0    0 -0.71475653405E+00  0.36658933522E+00 -0.86522543615E+00  0.90007373175E+02  0.89999629701E+02 0.  0.
        -12    1    1    2    0    0  0.71475653405E+00 -0.36658933522E+00  0.86522543615E+00  0.11806268246E+01  0.00000000000E+00 0.  1.
         11    1    3    3    0    0 -0.21703005967E+02 -0.52140724168E+01 -0.33221393854E+02  0.40023343552E+02  0.51100000000E-03 0. -1.
        -11    1    3    3    0    0  0.58981666335E+01  0.45333167856E+01 -0.54778021727E+01  0.92382708133E+01  0.51100000000E-03 0.  1.
        -12    1    3    3    0    0  0.15090082800E+02  0.10473449664E+01  0.37833970591E+02  0.40745758810E+02  0.00000000000E+00 0.  1.
</event>
<event>
 7    1  0.3662489E-015  0.9000758E+02  0.7816164E-02  0.1186339E+00
        -11   -1    0    0    0    0  0.00000000000E+00  0.00000000000E+00  0.45593999997E+02  0.45594000000E+02  0.51100000000E-03 0. -1.
         11   -1    0    0    0    0 -0.00000000000E+00 -0.00000000000E+00 -0.45593999997E+02  0.45594000000E+02  0.51100000000E-03 0.  1.
    9900012    2    1    2    0    0  0.97746012338E+00  0.27422720555E+00  0.60229017050E+00  0.90007583843E+02  0.89999843150E+02 0.  0.
        -12    1    1    2    0    0 -0.97746012338E+00 -0.27422720555E+00 -0.60229017050E+00  0.11804161565E+01  0.00000000000E+00 0.  1.
         11    1    3    3    0    0  0.38539541603E+01 -0.39837034574E+00  0.13012264573E+02  0.13576843933E+02  0.51100000000E-03 0. -1.
        -11    1    3    3    0    0  0.30544938688E+02  0.10063631133E+02  0.11636132426E+02  0.34200431710E+02  0.51100000000E-03 0.  1.
        -12    1    3    3    0    0 -0.33421432725E+02 -0.93910335813E+01 -0.24046106828E+02  0.42230308201E+02  0.00000000000E+00 0.  1.
</event>
<event>
 7    1  0.3662489E-015  0.9000754E+02  0.7816164E-02  0.1186339E+00
        -11   -1    0    0    0    0  0.00000000000E+00  0.00000000000E+00  0.45593999997E+02  0.45594000000E+02  0.51100000000E-03 0.  1.
         11   -1    0    0    0    0 -0.00000000000E+00 -0.00000000000E+00 -0.45593999997E+02  0.45594000000E+02  0.51100000000E-03 0. -1.
    9900012    2    1    2    0    0  0.10592885620E+01 -0.51727486498E+00 -0.61882112268E-01  0.90007536134E+02  0.89999794811E+02 0.  0.
        -12    1    1    2    0    0 -0.10592885620E+01  0.51727486498E+00  0.61882112268E-01  0.11804638662E+01  0.00000000000E+00 0.  1.
         11    1    3    3    0    0 -0.91984580065E+01 -0.33754396962E+01  0.47535258685E+01  0.10890419243E+02  0.51100000000E-03 0. -1.
        -11    1    3    3    0    0 -0.83666426660E+01  0.19892351282E+02  0.29480470774E+02  0.36534976480E+02  0.51100000000E-03 0.  1.
         12    1    3    3    0    0  0.18624389235E+02 -0.17034186451E+02 -0.34295878755E+02  0.42582140411E+02  0.00000000000E+00 0. -1.
</event>
<event>
 7    1  0.3662489E-015  0.9000782E+02  0.7816164E-02  0.1186339E+00
        -11   -1    0    0    0    0  0.00000000000E+00  0.00000000000E+00  0.45593999997E+02  0.45594000000E+02  0.51100000000E-03 0. -1.
         11   -1    0    0    0    0 -0.00000000000E+00 -0.00000000000E+00 -0.45593999997E+02  0.45594000000E+02  0.51100000000E-03 0.  1.
    9900012    2    1    2    0    0  0.15033879965E+00  0.15409292642E+00  0.11603812211E+01  0.90007817403E+02  0.90000079792E+02 0.  0.
        -12    1    1    2    0    0 -0.15033879965E+00 -0.15409292642E+00 -0.11603812211E+01  0.11801825972E+01  0.00000000000E+00 0.  1.
         11    1    3    3    0    0  0.81124273939E+01  0.11647833255E+02 -0.72702713435E+01  0.15948051399E+02  0.51100000000E-03 0. -1.
        -11    1    3    3    0    0  0.71152251623E+01 -0.26435438652E+02 -0.23255651856E+02  0.35920526017E+02  0.51100000000E-03 0.  1.
         12    1    3    3    0    0 -0.15077313757E+02  0.14941698324E+02  0.31686304421E+02  0.38139239987E+02  0.00000000000E+00 0. -1.
</event>
<event>
 7    1  0.3662489E-015  0.9000781E+02  0.7816164E-02  0.1186339E+00
        -11   -1    0    0    0    0  0.00000000000E+00  0.00000000000E+00  0.45593999997E+02  0.45594000000E+02  0.51100000000E-03 0.  1.
         11   -1    0    0    0    0 -0.00000000000E+00 -0.00000000000E+00 -0.45593999997E+02  0.45594000000E+02  0.51100000000E-03 0. -1.
    9900012    2    1    2    0    0  0.10750313629E+01  0.45670302370E+00 -0.16904064841E+00  0.90007811530E+02  0.90000073843E+02 0.  0.
        -12    1    1    2    0    0 -0.10750313629E+01 -0.45670302370E+00  0.16904064841E+00  0.11801884696E+01  0.00000000000E+00 0.  1.
         11    1    3    3    0    0  0.43815247656E+00 -0.66718187970E+01 -0.53108918978E+01  0.85387772347E+01  0.51100000000E-03 0. -1.
        -11    1    3    3    0    0  0.40449215484E+02 -0.18175252964E+01  0.32463395567E+01  0.40619960023E+02  0.51100000000E-03 0.  1.
         12    1    3    3    0    0 -0.39812336598E+02  0.89460471171E+01  0.18955116927E+01  0.40849074273E+02  0.00000000000E+00 0. -1.
</event>
<event>
 7    1  0.3662489E-015  0.9000773E+02  0.7816164E-02  0.1186339E+00
        -11   -1    0    0    0    0  0.00000000000E+00  0.00000000000E+00  0.45593999997E+02  0.45594000000E+02  0.51100000000E-03 0. -1.
         11   -1    0    0    0    0 -0.00000000000E+00 -0.00000000000E+00 -0.45593999997E+02  0.45594000000E+02  0.51100000000E-03 0.  1.
    9900012    2    1    2    0    0 -0.94472484428E+00  0.69090189089E+00  0.15225094161E+00  0.90007732741E+02  0.89999994013E+02 0.  0.
        -12    1    1    2    0    0  0.94472484428E+00 -0.69090189089E+00 -0.15225094161E+00  0.11802672593E+01  0.00000000000E+00 0.  1.
         11    1    3    3    0    0  0.17645982682E+02 -0.84729193024E+01  0.31944175062E+02  0.37464668516E+02  0.51100000000E-03 0. -1.
        -11    1    3    3    0    0  0.78552264504E+01 -0.46939891344E+01 -0.31182366129E+00  0.91561646358E+01  0.51100000000E-03 0.  1.
        -12    1    3    3    0    0 -0.26445933977E+02  0.13857810328E+02 -0.31480100460E+02  0.43386899589E+02  0.00000000000E+00 0.  1.
</event>
<event>
 7    1  0.3662489E-015  0.9000772E+02  0.7816164E-02  0.1186339E+00
        -11   -1    0    0    0    0  0.00000000000E+00  0.00000000000E+00  0.45593999997E+02  0.45594000000E+02  0.51100000000E-03 0.  1.
         11   -1    0    0    0    0 -0.00000000000E+00 -0.00000000000E+00 -0.45593999997E+02  0.45594000000E+02  0.51100000000E-03 0. -1.
    9900012    2    1    2    0    0  0.52552489035E+00  0.54430993368E+00 -0.90587358990E+00  0.90007721781E+02  0.89999982908E+02 0.  0.
        -12    1    1    2    0    0 -0.52552489035E+00 -0.54430993368E+00  0.90587358990E+00  0.11802782194E+01  0.00000000000E+00 0.  1.
         11    1    3    3    0    0  0.13346810201E+01 -0.78642327926E+01 -0.73862760590E+01  0.10871274310E+02  0.51100000000E-03 0. -1.
        -11    1    3    3    0    0  0.22251098654E+01 -0.12083822992E+02 -0.32636475616E+02  0.34872760615E+02  0.51100000000E-03 0.  1.
         12    1    3    3    0    0 -0.30342659952E+01  0.20492365718E+02  0.39116878085E+02  0.44263686855E+02  0.00000000000E+00 0. -1.
</event>
<event>
 7    1  0.3662489E-015  0.9000761E+02  0.7816164E-02  0.1186339E+00
        -11   -1    0    0    0    0  0.00000000000E+00  0.00000000000E+00  0.45593999997E+02  0.45594000000E+02  0.51100000000E-03 0. -1.
         11   -1    0    0    0    0 -0.00000000000E+00 -0.00000000000E+00 -0.45593999997E+02  0.45594000000E+02  0.51100000000E-03 0.  1.
    9900012    2    1    2    0    0  0.16698086747E+00  0.11552931921E+01 -0.17530299163E+00  0.90007611882E+02  0.89999871559E+02 0.  0.
        -12    1    1    2    0    0 -0.16698086747E+00 -0.11552931921E+01  0.17530299163E+00  0.11803881178E+01  0.00000000000E+00 0.  1.
         11    1    3    3    0    0  0.10423938492E+02 -0.42239302709E+00 -0.27466942958E+01  0.10788013690E+02  0.51100000000E-03 0. -1.
        -11    1    3    3    0    0  0.14090224923E+02 -0.39850474083E+01 -0.32799867578E+02  0.35919999369E+02  0.51100000000E-03 0.  1.
         12    1    3    3    0    0 -0.24347182547E+02  0.55627336275E+01  0.35371258882E+02  0.43299598824E+02  0.00000000000E+00 0. -1.
</event>
<event>
 7    1  0.5038134E-015  0.9000775E+02  0.7816164E-02  0.1186339E+00
        -11   -1    0    0    0    0  0.00000000000E+00  0.00000000000E+00  0.45593999997E+02  0.45594000000E+02  0.51100000000E-03 0. -1.
         11   -1    0    0    0    0 -0.00000000000E+00 -0.00000000000E+00 -0.45593999997E+02  0.45594000000E+02  0.51100000000E-03 0.  1.
    9900012    2    1    2    0    0  0.92023558711E+00  0.19197536433E+00  0.71364581722E+00  0.90007754929E+02  0.90000016494E+02 0.  0.
        -12    1    1    2    0    0 -0.92023558711E+00 -0.19197536433E+00 -0.71364581722E+00  0.11802450715E+01  0.00000000000E+00 0.  1.
         11    1    3    3    0    0  0.15509653495E+02  0.36200241510E+02  0.14445041068E+02  0.41948373611E+02  0.51100000000E-03 0. -1.
        -11    1    3    3    0    0 -0.75913886392E+01  0.11077010238E+01 -0.53994225749E+01  0.93813617046E+01  0.51100000000E-03 0.  1.
        -12    1    3    3    0    0 -0.69980292683E+01 -0.37115967169E+02 -0.83319726757E+01  0.38678019613E+02  0.00000000000E+00 0.  1.
</event>
<event>
 7    1  0.3662489E-015  0.9000779E+02  0.7816164E-02  0.1186339E+00
        -11   -1    0    0    0    0  0.00000000000E+00  0.00000000000E+00  0.45593999997E+02  0.45594000000E+02  0.51100000000E-03 0.  1.
         11   -1    0    0    0    0 -0.00000000000E+00 -0.00000000000E+00 -0.45593999997E+02  0.45594000000E+02  0.51100000000E-03 0. -1.
    9900012    2    1    2    0    0  0.58844621623E+00 -0.54307638961E+00 -0.86699968443E+00  0.90007792659E+02  0.90000054722E+02 0.  0.
        -12    1    1    2    0    0 -0.58844621623E+00  0.54307638961E+00  0.86699968443E+00  0.11802073407E+01  0.00000000000E+00 0.  1.
         11    1    3    3    0    0  0.34170597550E+02  0.17774090319E+02 -0.12429780748E+02  0.40472799178E+02  0.51100000000E-03 0. -1.
        -11    1    3    3    0    0 -0.55782536698E+01 -0.65791984903E+01 -0.93074759505E+01  0.12689833553E+02  0.51100000000E-03 0.  1.
        -12    1    3    3    0    0 -0.28003897664E+02 -0.11737968218E+02  0.20870257014E+02  0.36845159928E+02  0.00000000000E+00 0.  1.
</event>
<event>
 7    1  0.3662489E-015  0.9000774E+02  0.7816164E-02  0.1186339E+00
        -11   -1    0    0    0    0  0.00000000000E+00  0.00000000000E+00  0.45593999997E+02  0.45594000000E+02  0.51100000000E-03 0. -1.
         11   -1    0    0    0    0 -0.00000000000E+00 -0.00000000000E+00 -0.45593999997E+02  0.45594000000E+02  0.51100000000E-03 0.  1.
    9900012    2    1    2    0    0  0.66638520724E+00  0.12901629087E+00  0.96555500093E+00  0.90007741169E+02  0.90000002553E+02 0.  0.
        -12    1    1    2    0    0 -0.66638520724E+00 -0.12901629087E+00 -0.96555500093E+00  0.11802588307E+01  0.00000000000E+00 0.  1.
         11    1    3    3    0    0 -0.53844659742E+01 -0.58519640233E+01  0.44410637072E+01  0.91082931370E+01  0.51100000000E-03 0. -1.
        -11    1    3    3    0    0  0.36869405118E+02 -0.15746431512E+02  0.91725998226E+01  0.41127116686E+02  0.51100000000E-03 0.  1.
         12    1    3    3    0    0 -0.30818553936E+02  0.21727411826E+02 -0.12648108529E+02  0.39772331347E+02  0.00000000000E+00 0. -1.
</event>
<event>
 7    1  0.3662489E-015  0.9000776E+02  0.7816164E-02  0.1186339E+00
        -11   -1    0    0    0    0  0.00000000000E+00  0.00000000000E+00  0.45593999997E+02  0.45594000000E+02  0.51100000000E-03 0. -1.
         11   -1    0    0    0    0 -0.00000000000E+00 -0.00000000000E+00 -0.45593999997E+02  0.45594000000E+02  0.51100000000E-03 0.  1.
    9900012    2    1    2    0    0 -0.81941319930E+00 -0.84931376405E+00 -0.14171946641E-01  0.90007757353E+02  0.90000018950E+02 0.  0.
        -12    1    1    2    0    0  0.81941319930E+00  0.84931376405E+00  0.14171946641E-01  0.11802426467E+01  0.00000000000E+00 0.  1.
         11    1    3    3    0    0  0.19024726867E+02 -0.12306611141E+02  0.33842667724E+02  0.40727374935E+02  0.51100000000E-03 0. -1.
        -11    1    3    3    0    0  0.66561630146E+01  0.33660893723E+01 -0.36966972851E+01  0.83247002840E+01  0.51100000000E-03 0.  1.
        -12    1    3    3    0    0 -0.26500303081E+02  0.80912080044E+01 -0.30160142386E+02  0.40955682134E+02  0.00000000000E+00 0.  1.
</event>
<event>
 7    1  0.3662489E-015  0.9000784E+02  0.7816164E-02  0.1186339E+00
        -11   -1    0    0    0    0  0.00000000000E+00  0.00000000000E+00  0.45593999997E+02  0.45594000000E+02  0.51100000000E-03 0.  1.
         11   -1    0    0    0    0 -0.00000000000E+00 -0.00000000000E+00 -0.45593999997E+02  0.45594000000E+02  0.51100000000E-03 0. -1.
    9900012    2    1    2    0    0 -0.64975651415E-01  0.19377668569E+00 -0.11623260365E+01  0.90007841937E+02  0.90000104650E+02 0.  0.
        -12    1    1    2    0    0  0.64975651415E-01 -0.19377668569E+00  0.11623260365E+01  0.11801580633E+01  0.00000000000E+00 0.  1.
         11    1    3    3    0    0 -0.33413431099E+02  0.22280354798E+02  0.66271124389E+01  0.40703687883E+02  0.51100000000E-03 0. -1.
        -11    1    3    3    0    0  0.30674651266E+01 -0.92810512656E+00 -0.11724302902E+02  0.12154423073E+02  0.51100000000E-03 0.  1.
        -12    1    3    3    0    0  0.30280990321E+02 -0.21158472986E+02  0.39348644270E+01  0.37149730981E+02  0.00000000000E+00 0.  1.
</event>
<event>
 7    1  0.3662489E-015  0.9000752E+02  0.7816164E-02  0.1186339E+00
        -11   -1    0    0    0    0  0.00000000000E+00  0.00000000000E+00  0.45593999997E+02  0.45594000000E+02  0.51100000000E-03 0.  1.
         11   -1    0    0    0    0 -0.00000000000E+00 -0.00000000000E+00 -0.45593999997E+02  0.45594000000E+02  0.51100000000E-03 0. -1.
    9900012    2    1    2    0    0 -0.93962155631E+00 -0.28923808508E-01 -0.71400281619E+00  0.90007523284E+02  0.89999781791E+02 0.  0.
        -12    1    1    2    0    0  0.93962155631E+00  0.28923808508E-01  0.71400281619E+00  0.11804767161E+01  0.00000000000E+00 0.  1.
         11    1    3    3    0    0 -0.27807327502E+02 -0.13115093713E+02 -0.25032846974E+02  0.39647150891E+02  0.51100000000E-03 0. -1.
        -11    1    3    3    0    0  0.47876289642E+01 -0.89575970771E+01 -0.96369089753E+00  0.10202383883E+02  0.51100000000E-03 0.  1.
        -12    1    3    3    0    0  0.22080076982E+02  0.22043766982E+02  0.25282535055E+02  0.40157988509E+02  0.00000000000E+00 0.  1.
</event>
<event>
 7    1  0.3662489E-015  0.9000780E+02  0.7816164E-02  0.1186339E+00
        -11   -1    0    0    0    0  0.00000000000E+00  0.00000000000E+00  0.45593999997E+02  0.45594000000E+02  0.51100000000E-03 0.  1.
         11   -1    0    0    0    0 -0.00000000000E+00 -0.00000000000E+00 -0.45593999997E+02  0.45594000000E+02  0.51100000000E-03 0. -1.
    9900012    2    1    2    0    0 -0.65774988003E+00  0.80022246009E+00 -0.56557122232E+00  0.90007804382E+02  0.90000066599E+02 0.  0.
        -12    1    1    2    0    0  0.65774988003E+00 -0.80022246009E+00  0.56557122232E+00  0.11801956185E+01  0.00000000000E+00 0.  1.
         11    1    3    3    0    0  0.10476105774E+02 -0.11609469653E+02 -0.37506025985E+02  0.40635336386E+02  0.51100000000E-03 0. -1.
        -11    1    3    3    0    0 -0.92379131979E+01 -0.10248398936E+01 -0.73978016414E+00  0.93239804811E+01  0.51100000000E-03 0.  1.
        -12    1    3    3    0    0 -0.18959424559E+01  0.13434532007E+02  0.37680234927E+02  0.40048487514E+02  0.00000000000E+00 0.  1.
</event>
<event>
 7    1  0.3662489E-015  0.9000791E+02  0.7816164E-02  0.1186339E+00
        -11   -1    0    0    0    0  0.00000000000E+00  0.00000000000E+00  0.45593999997E+02  0.45594000000E+02  0.51100000000E-03 0.  1.
         11   -1    0    0    0    0 -0.00000000000E+00 -0.00000000000E+00 -0.45593999997E+02  0.45594000000E+02  0.51100000000E-03 0. -1.
    9900012    2    1    2    0    0  0.21443251867E+00  0.39371051929E+00 -0.10916199787E+01  0.90007905319E+02  0.90000168869E+02 0.  0.
        -12    1    1    2    0    0 -0.21443251867E+00 -0.39371051929E+00  0.10916199787E+01  0.11800946809E+01  0.00000000000E+00 0.  1.
         11    1    3    3    0    0 -0.28071657520E+02  0.27139516824E+02  0.95152628595E+01  0.40188450542E+02  0.51100000000E-03 0. -1.
        -11    1    3    3    0    0 -0.99328695576E+00 -0.49507924671E+01  0.75258469944E+01  0.90628548633E+01  0.51100000000E-03 0.  1.
        -12    1    3    3    0    0  0.29279376995E+02 -0.21795013838E+02 -0.18132729833E+02  0.40756599914E+02  0.00000000000E+00 0.  1.
</event>
<event>
 7    1  0.3662489E-015  0.9000776E+02  0.7816164E-02  0.1186339E+00
        -11   -1    0    0    0    0  0.00000000000E+00  0.00000000000E+00  0.45593999997E+02  0.45594000000E+02  0.51100000000E-03 0. -1.
         11   -1    0    0    0    0 -0.00000000000E+00 -0.00000000000E+00 -0.45593999997E+02  0.45594000000E+02  0.51100000000E-03 0.  1.
    9900012    2    1    2    0    0 -0.68158419748E+00 -0.28499482634E+00  0.92043113527E+00  0.90007757422E+02  0.90000019019E+02 0.  0.
        -12    1    1    2    0    0  0.68158419748E+00  0.28499482634E+00 -0.92043113527E+00  0.11802425785E+01  0.00000000000E+00 0.  1.
         11    1    3    3    0    0 -0.17265135064E+02 -0.20000611591E+02  0.24841250568E+02  0.36265646042E+02  0.51100000000E-03 0. -1.
        -11    1    3    3    0    0 -0.68975183237E+01 -0.59092679633E+01  0.32281005069E+01  0.96392862822E+01  0.51100000000E-03 0.  1.
        -12    1    3    3    0    0  0.23481069190E+02  0.25624884728E+02 -0.27148919940E+02  0.44102825097E+02  0.00000000000E+00 0.  1.
</event>
<event>
 7    1  0.3662489E-015  0.9000754E+02  0.7816164E-02  0.1186339E+00
        -11   -1    0    0    0    0  0.00000000000E+00  0.00000000000E+00  0.45593999997E+02  0.45594000000E+02  0.51100000000E-03 0.  1.
         11   -1    0    0    0    0 -0.00000000000E+00 -0.00000000000E+00 -0.45593999997E+02  0.45594000000E+02  0.51100000000E-03 0. -1.
    9900012    2    1    2    0    0 -0.76104287648E+00 -0.18973525875E+00 -0.88220957649E+00  0.90007542688E+02  0.89999801451E+02 0.  0.
        -12    1    1    2    0    0  0.76104287648E+00  0.18973525875E+00  0.88220957649E+00  0.11804573118E+01  0.00000000000E+00 0.  1.
         11    1    3    3    0    0  0.31519947432E+02 -0.17330522930E+02  0.40857359411E+00  0.35972503997E+02  0.51100000000E-03 0. -1.
        -11    1    3    3    0    0  0.84872824252E+01  0.38449356308E+01 -0.57072891640E+01  0.10926602529E+02  0.51100000000E-03 0.  1.
        -12    1    3    3    0    0 -0.40768272734E+02  0.13295852040E+02  0.44165059934E+01  0.43108436162E+02  0.00000000000E+00 0.  1.
</event>
<event>
 7    1  0.3662489E-015  0.9000771E+02  0.7816164E-02  0.1186339E+00
        -11   -1    0    0    0    0  0.00000000000E+00  0.00000000000E+00  0.45593999997E+02  0.45594000000E+02  0.51100000000E-03 0.  1.
         11   -1    0    0    0    0 -0.00000000000E+00 -0.00000000000E+00 -0.45593999997E+02  0.45594000000E+02  0.51100000000E-03 0. -1.
    9900012    2    1    2    0    0 -0.80227764001E+00  0.34307050428E+00  0.79482387770E+00  0.90007706910E+02  0.89999967841E+02 0.  0.
        -12    1    1    2    0    0  0.80227764001E+00 -0.34307050428E+00 -0.79482387770E+00  0.11802930903E+01  0.00000000000E+00 0.  1.
         11    1    3    3    0    0  0.56738259143E+01  0.29139165138E+02 -0.24385601641E+02  0.38417975130E+02  0.51100000000E-03 0. -1.
        -11    1    3    3    0    0 -0.29751730620E+01 -0.52475096775E+01 -0.84519432386E+01  0.10383802643E+02  0.51100000000E-03 0.  1.
        -12    1    3    3    0    0 -0.35009304923E+01 -0.23548584957E+02  0.33632368757E+02  0.41205929136E+02  0.00000000000E+00 0.  1.
</event>
<event>
 7    1  0.3662489E-015  0.9000773E+02  0.7816164E-02  0.1186339E+00
        -11   -1    0    0    0    0  0.00000000000E+00  0.00000000000E+00  0.45593999997E+02  0.45594000000E+02  0.51100000000E-03 0. -1.
         11   -1    0    0    0    0 -0.00000000000E+00 -0.00000000000E+00 -0.45593999997E+02  0.45594000000E+02  0.51100000000E-03 0.  1.
    9900012    2    1    2    0    0 -0.10149408149E+01  0.55981346066E+00  0.22257805695E+00  0.90007730133E+02  0.89999991370E+02 0.  0.
        -12    1    1    2    0    0  0.10149408149E+01 -0.55981346066E+00 -0.22257805695E+00  0.11802698674E+01  0.00000000000E+00 0.  1.
         11    1    3    3    0    0  0.73616874722E+01 -0.25518034706E+02 -0.21682770364E+02  0.34285668560E+02  0.51100000000E-03 0. -1.
        -11    1    3    3    0    0  0.96425974934E+01  0.15012184167E+02 -0.76235549812E+01  0.19402678957E+02  0.51100000000E-03 0.  1.
        -12    1    3    3    0    0 -0.18019225780E+02  0.11065663999E+02  0.29528903402E+02  0.36319382616E+02  0.00000000000E+00 0.  1.
</event>
<event>
 7    1  0.3662489E-015  0.9000770E+02  0.7816164E-02  0.1186339E+00
        -11   -1    0    0    0    0  0.00000000000E+00  0.00000000000E+00  0.45593999997E+02  0.45594000000E+02  0.51100000000E-03 0.  1.
         11   -1    0    0    0    0 -0.00000000000E+00 -0.00000000000E+00 -0.45593999997E+02  0.45594000000E+02  0.51100000000E-03 0. -1.
    9900012    2    1    2    0    0  0.76980071955E+00 -0.63917016829E+00 -0.62607620243E+00  0.90007702130E+02  0.89999962998E+02 0.  0.
        -12    1    1    2    0    0 -0.76980071955E+00  0.63917016829E+00  0.62607620243E+00  0.11802978705E+01  0.00000000000E+00 0.  1.
         11    1    3    3    0    0 -0.23597173739E+01 -0.38424978137E+01 -0.10445387006E+02  0.11377133448E+02  0.51100000000E-03 0. -1.
        -11    1    3    3    0    0  0.56035110366E+01 -0.35384871470E+02 -0.69325477991E+01  0.36490391668E+02  0.51100000000E-03 0.  1.
         12    1    3    3    0    0 -0.24739929431E+01  0.38588199115E+02  0.16751858603E+02  0.42140177013E+02  0.00000000000E+00 0. -1.
</event>
<event>
 7    1  0.3662489E-015  0.9000773E+02  0.7816164E-02  0.1186339E+00
        -11   -1    0    0    0    0  0.00000000000E+00  0.00000000000E+00  0.45593999997E+02  0.45594000000E+02  0.51100000000E-03 0.  1.
         11   -1    0    0    0    0 -0.00000000000E+00 -0.00000000000E+00 -0.45593999997E+02  0.45594000000E+02  0.51100000000E-03 0. -1.
    9900012    2    1    2    0    0  0.11767797135E+01 -0.53551871152E-01 -0.73126100222E-01  0.90007734893E+02  0.89999996193E+02 0.  0.
        -12    1    1    2    0    0 -0.11767797135E+01  0.53551871152E-01  0.73126100222E-01  0.11802651073E+01  0.00000000000E+00 0.  1.
         11    1    3    3    0    0 -0.61670541848E+01 -0.50181300800E+01  0.12826327174E+01  0.80535292740E+01  0.51100000000E-03 0. -1.
        -11    1    3    3    0    0 -0.20989480976E+02  0.31437989126E+02  0.13912791098E+02  0.40279910977E+02  0.51100000000E-03 0.  1.
         12    1    3    3    0    0  0.28333314874E+02 -0.26473410917E+02 -0.15268549915E+02  0.41674294642E+02  0.00000000000E+00 0. -1.
</event>
<event>
 7    1  0.3662489E-015  0.9000775E+02  0.7816164E-02  0.1186339E+00
        -11   -1    0    0    0    0  0.00000000000E+00  0.00000000000E+00  0.45593999997E+02  0.45594000000E+02  0.51100000000E-03 0. -1.
         11   -1    0    0    0    0 -0.00000000000E+00 -0.00000000000E+00 -0.45593999997E+02  0.45594000000E+02  0.51100000000E-03 0.  1.
    9900012    2    1    2    0    0  0.27015259956E+00 -0.11313562267E+01  0.20012943495E+00  0.90007745312E+02  0.90000006750E+02 0.  0.
        -12    1    1    2    0    0 -0.27015259956E+00  0.11313562267E+01 -0.20012943495E+00  0.11802546884E+01  0.00000000000E+00 0.  1.
         11    1    3    3    0    0  0.31932822426E+01 -0.36699707514E+02 -0.92347467628E+01  0.37978232332E+02  0.51100000000E-03 0. -1.
        -11    1    3    3    0    0  0.77051218170E+01 -0.50253665941E+01  0.13955967787E+01  0.93043485667E+01  0.51100000000E-03 0.  1.
        -12    1    3    3    0    0 -0.10628251460E+02  0.40593717881E+02  0.80392794190E+01  0.42725164413E+02  0.00000000000E+00 0.  1.
</event>
<event>
 7    1  0.3662489E-015  0.9000784E+02  0.7816164E-02  0.1186339E+00
        -11   -1    0    0    0    0  0.00000000000E+00  0.00000000000E+00  0.45593999997E+02  0.45594000000E+02  0.51100000000E-03 0. -1.
         11   -1    0    0    0    0 -0.00000000000E+00 -0.00000000000E+00 -0.45593999997E+02  0.45594000000E+02  0.51100000000E-03 0.  1.
    9900012    2    1    2    0    0  0.98022616263E+00  0.46336126563E+00  0.46607643004E+00  0.90007841438E+02  0.90000104145E+02 0.  0.
        -12    1    1    2    0    0 -0.98022616263E+00 -0.46336126563E+00 -0.46607643004E+00  0.11801585618E+01  0.00000000000E+00 0.  1.
         11    1    3    3    0    0 -0.10557933621E+02  0.36104088467E+01 -0.29899139493E+01  0.11551822370E+02  0.51100000000E-03 0. -1.
        -11    1    3    3    0    0  0.10240604828E+02  0.21015957837E+02 -0.29456050651E+02  0.37605842515E+02  0.51100000000E-03 0.  1.
         12    1    3    3    0    0  0.12975549558E+01 -0.24163005418E+02  0.32912041030E+02  0.40850176554E+02  0.00000000000E+00 0. -1.
</event>
<event>
 7    1  0.3662489E-015  0.9000789E+02  0.7816164E-02  0.1186339E+00
        -11   -1    0    0    0    0  0.00000000000E+00  0.00000000000E+00  0.45593999997E+02  0.45594000000E+02  0.51100000000E-03 0. -1.
         11   -1    0    0    0    0 -0.00000000000E+00 -0.00000000000E+00 -0.45593999997E+02  0.45594000000E+02  0.51100000000E-03 0.  1.
    9900012    2    1    2    0    0  0.96258156239E+00  0.41756884571E+00 -0.54011186747E+00  0.90007894990E+02  0.90000158404E+02 0.  0.
        -12    1    1    2    0    0 -0.96258156239E+00 -0.41756884571E+00  0.54011186747E+00  0.11801050100E+01  0.00000000000E+00 0.  1.
         11    1    3    3    0    0  0.25792951090E+02  0.25865043936E+02  0.17401475094E+02  0.40460946102E+02  0.51100000000E-03 0. -1.
        -11    1    3    3    0    0 -0.62235277495E+01  0.66286021132E+01 -0.31278469412E+01  0.96153050068E+01  0.51100000000E-03 0.  1.
        -12    1    3    3    0    0 -0.18606841778E+02 -0.32076077204E+02 -0.14813740020E+02  0.39931643882E+02  0.00000000000E+00 0.  1.
</event>
<event>
 7    1  0.3662489E-015  0.9000780E+02  0.7816164E-02  0.1186339E+00
        -11   -1    0    0    0    0  0.00000000000E+00  0.00000000000E+00  0.45593999997E+02  0.45594000000E+02  0.51100000000E-03 0. -1.
         11   -1    0    0    0    0 -0.00000000000E+00 -0.00000000000E+00 -0.45593999997E+02  0.45594000000E+02  0.51100000000E-03 0.  1.
    9900012    2    1    2    0    0  0.92935997484E+00  0.64005280051E+00 -0.34566727154E+00  0.90007803655E+02  0.90000065863E+02 0.  0.
        -12    1    1    2    0    0 -0.92935997484E+00 -0.64005280051E+00  0.34566727154E+00  0.11801963451E+01  0.00000000000E+00 0.  1.
         11    1    3    3    0    0  0.66125826669E+01 -0.22314343051E+02  0.31043806252E+02  0.38799150277E+02  0.51100000000E-03 0. -1.
        -11    1    3    3    0    0 -0.39450194171E+01 -0.80163912345E+01 -0.38522323425E+01  0.97296146330E+01  0.51100000000E-03 0.  1.
        -12    1    3    3    0    0 -0.17382032750E+01  0.30970787086E+02 -0.27537241181E+02  0.41479038745E+02  0.00000000000E+00 0.  1.
</event>
<event>
 7    1  0.3662489E-015  0.9000779E+02  0.7816164E-02  0.1186339E+00
        -11   -1    0    0    0    0  0.00000000000E+00  0.00000000000E+00  0.45593999997E+02  0.45594000000E+02  0.51100000000E-03 0. -1.
         11   -1    0    0    0    0 -0.00000000000E+00 -0.00000000000E+00 -0.45593999997E+02  0.45594000000E+02  0.51100000000E-03 0.  1.
    9900012    2    1    2    0    0 -0.32488640529E-01  0.76549033517E+00  0.89769366045E+00  0.90007794563E+02  0.90000056651E+02 0.  0.
        -12    1    1    2    0    0  0.32488640529E-01 -0.76549033517E+00 -0.89769366045E+00  0.11802054368E+01  0.00000000000E+00 0.  1.
         11    1    3    3    0    0  0.20408415844E+02 -0.20064154563E+02 -0.50178388207E+01  0.29056022479E+02  0.51100000000E-03 0. -1.
        -11    1    3    3    0    0 -0.18246156699E+02 -0.32484643247E+01 -0.18784328335E+02  0.26387984880E+02  0.51100000000E-03 0.  1.
        -12    1    3    3    0    0 -0.21947477856E+01  0.24078109223E+02  0.24699860816E+02  0.34563787205E+02  0.00000000000E+00 0.  1.
</event>
<event>
 7    1  0.3662489E-015  0.9000767E+02  0.7816164E-02  0.1186339E+00
        -11   -1    0    0    0    0  0.00000000000E+00  0.00000000000E+00  0.45593999997E+02  0.45594000000E+02  0.51100000000E-03 0.  1.
         11   -1    0    0    0    0 -0.00000000000E+00 -0.00000000000E+00 -0.45593999997E+02  0.45594000000E+02  0.51100000000E-03 0. -1.
    9900012    2    1    2    0    0  0.98911538826E+00  0.52099537096E+00  0.37867200496E+00  0.90007670421E+02  0.89999930870E+02 0.  0.
        -12    1    1    2    0    0 -0.98911538826E+00 -0.52099537096E+00 -0.37867200496E+00  0.11803295791E+01  0.00000000000E+00 0.  1.
         11    1    3    3    0    0 -0.67157004212E+01  0.10053233349E+01 -0.79343370740E+00  0.68367276137E+01  0.51100000000E-03 0. -1.
        -11    1    3    3    0    0  0.13874122385E+02  0.17436740358E+02  0.36681894426E+02  0.42919605837E+02  0.51100000000E-03 0.  1.
         12    1    3    3    0    0 -0.61693065759E+01 -0.17921068322E+02 -0.35509788713E+02  0.40251336970E+02  0.00000000000E+00 0. -1.
</event>
<event>
 7    1  0.3662489E-015  0.9000780E+02  0.7816164E-02  0.1186339E+00
        -11   -1    0    0    0    0  0.00000000000E+00  0.00000000000E+00  0.45593999997E+02  0.45594000000E+02  0.51100000000E-03 0.  1.
         11   -1    0    0    0    0 -0.00000000000E+00 -0.00000000000E+00 -0.45593999997E+02  0.45594000000E+02  0.51100000000E-03 0. -1.
    9900012    2    1    2    0    0  0.59327511128E+00  0.37897097235E+00  0.94724671961E+00  0.90007800566E+02  0.90000062734E+02 0.  0.
        -12    1    1    2    0    0 -0.59327511128E+00 -0.37897097235E+00 -0.94724671961E+00  0.11801994337E+01  0.00000000000E+00 0.  1.
         11    1    3    3    0    0 -0.33700249761E+02 -0.43919812789E+00 -0.17826947874E+02  0.38127415330E+02  0.51100000000E-03 0. -1.
        -11    1    3    3    0    0  0.88468716990E+01 -0.78473509213E+01 -0.77315408342E+01  0.14128863340E+02  0.51100000000E-03 0.  1.
        -12    1    3    3    0    0  0.25446653174E+02  0.86655200215E+01  0.26505735427E+02  0.37751521897E+02  0.00000000000E+00 0.  1.
</event>
<event>
 7    1  0.3662489E-015  0.9000775E+02  0.7816164E-02  0.1186339E+00
        -11   -1    0    0    0    0  0.00000000000E+00  0.00000000000E+00  0.45593999997E+02  0.45594000000E+02  0.51100000000E-03 0. -1.
         11   -1    0    0    0    0 -0.00000000000E+00 -0.00000000000E+00 -0.45593999997E+02  0.45594000000E+02  0.51100000000E-03 0.  1.
    9900012    2    1    2    0    0  0.58071667663E+00 -0.22000328146E+00  0.10036761652E+01  0.90007746152E+02  0.90000007601E+02 0.  0.
        -12    1    1    2    0    0 -0.58071667663E+00  0.22000328146E+00 -0.10036761652E+01  0.11802538485E+01  0.00000000000E+00 0.  1.
         11    1    3    3    0    0 -0.14963828252E+02 -0.19365181071E+02  0.21626622433E+02  0.32659411997E+02  0.51100000000E-03 0. -1.
        -11    1    3    3    0    0 -0.14504881045E+02 -0.22386098555E+01  0.79662819635E+00  0.14698216387E+02  0.51100000000E-03 0.  1.
        -12    1    3    3    0    0  0.30049425973E+02  0.21383787645E+02 -0.21419574464E+02  0.42650117768E+02  0.00000000000E+00 0.  1.
</event>
<event>
 7    1  0.3662489E-015  0.9000797E+02  0.7816164E-02  0.1186339E+00
        -11   -1    0    0    0    0  0.00000000000E+00  0.00000000000E+00  0.45593999997E+02  0.45594000000E+02  0.51100000000E-03 0.  1.
         11   -1    0    0    0    0 -0.00000000000E+00 -0.00000000000E+00 -0.45593999997E+02  0.45594000000E+02  0.51100000000E-03 0. -1.
    9900012    2    1    2    0    0 -0.11343327071E+01  0.35924618387E-02 -0.32518052128E+00  0.90007972048E+02  0.90000236479E+02 0.  0.
        -12    1    1    2    0    0  0.11343327071E+01 -0.35924618387E-02  0.32518052128E+00  0.11800279520E+01  0.00000000000E+00 0.  1.
         11    1    3    3    0    0 -0.97417090786E-01  0.47470205719E+01  0.67661767224E+01  0.82658842297E+01  0.51100000000E-03 0. -1.
        -11    1    3    3    0    0 -0.10624209314E+02  0.27712953225E+02  0.22136055547E+02  0.37025485216E+02  0.51100000000E-03 0.  1.
         12    1    3    3    0    0  0.95872936976E+01 -0.32456381335E+02 -0.29227412791E+02  0.44716602602E+02  0.00000000000E+00 0. -1.
</event>
<event>
 7    1  0.3662489E-015  0.9000806E+02  0.7816164E-02  0.1186338E+00
        -11   -1    0    0    0    0  0.00000000000E+00  0.00000000000E+00  0.45593999997E+02  0.45594000000E+02  0.51100000000E-03 0. -1.
         11   -1    0    0    0    0 -0.00000000000E+00 -0.00000000000E+00 -0.45593999997E+02  0.45594000000E+02  0.51100000000E-03 0.  1.
    9900012    2    1    2    0    0  0.14563043719E+00 -0.10551545106E+01  0.50764942830E+00  0.90008056269E+02  0.90000321812E+02 0.  0.
        -12    1    1    2    0    0 -0.14563043719E+00  0.10551545106E+01 -0.50764942830E+00  0.11799437307E+01  0.00000000000E+00 0.  1.
         11    1    3    3    0    0 -0.13081339490E+02  0.13328490584E+02  0.31380555664E+02  0.36517247681E+02  0.51100000000E-03 0. -1.
        -11    1    3    3    0    0  0.79463684186E+01  0.52448781242E+01  0.60937814276E+01  0.11304321737E+02  0.51100000000E-03 0.  1.
        -12    1    3    3    0    0  0.52806015086E+01 -0.19628523219E+02 -0.36966687664E+02  0.42186486852E+02  0.00000000000E+00 0.  1.
</event>
<event>
 7    1  0.3662489E-015  0.9000794E+02  0.7816164E-02  0.1186339E+00
        -11   -1    0    0    0    0  0.00000000000E+00  0.00000000000E+00  0.45593999997E+02  0.45594000000E+02  0.51100000000E-03 0.  1.
         11   -1    0    0    0    0 -0.00000000000E+00 -0.00000000000E+00 -0.45593999997E+02  0.45594000000E+02  0.51100000000E-03 0. -1.
    9900012    2    1    2    0    0  0.73496879564E+00  0.51217704890E+00 -0.76814247054E+00  0.90007937580E+02  0.90000201556E+02 0.  0.
        -12    1    1    2    0    0 -0.73496879564E+00 -0.51217704890E+00  0.76814247054E+00  0.11800624200E+01  0.00000000000E+00 0.  1.
         11    1    3    3    0    0 -0.30579219903E+02  0.28765647202E+01 -0.17653952039E+02  0.35426336775E+02  0.51100000000E-03 0. -1.
        -11    1    3    3    0    0 -0.97923538940E+01 -0.10836423169E+01 -0.64797542633E+00  0.98734162209E+01  0.51100000000E-03 0.  1.
        -12    1    3    3    0    0  0.41106542593E+02 -0.12807453544E+01  0.17533784994E+02  0.44708184584E+02  0.00000000000E+00 0.  1.
</event>
<event>
 7    1  0.3662489E-015  0.9000776E+02  0.7816164E-02  0.1186339E+00
        -11   -1    0    0    0    0  0.00000000000E+00  0.00000000000E+00  0.45593999997E+02  0.45594000000E+02  0.51100000000E-03 0.  1.
         11   -1    0    0    0    0 -0.00000000000E+00 -0.00000000000E+00 -0.45593999997E+02  0.45594000000E+02  0.51100000000E-03 0. -1.
    9900012    2    1    2    0    0 -0.49731901124E+00 -0.11325777461E+00 -0.10643380690E+01  0.90007758903E+02  0.90000020520E+02 0.  0.
        -12    1    1    2    0    0  0.49731901124E+00  0.11325777461E+00  0.10643380690E+01  0.11802410973E+01  0.00000000000E+00 0.  1.
         11    1    3    3    0    0 -0.93162140189E+01  0.11656209513E+00 -0.47395054880E+01  0.10453149903E+02  0.51100000000E-03 0. -1.
        -11    1    3    3    0    0 -0.11983659524E+02 -0.13591157182E+02  0.35140963561E+02  0.39537513445E+02  0.51100000000E-03 0.  1.
         12    1    3    3    0    0  0.20802554532E+02  0.13361337313E+02 -0.31465796142E+02  0.40017095555E+02  0.00000000000E+00 0. -1.
</event>
<event>
 7    1  0.3662489E-015  0.9000743E+02  0.7816164E-02  0.1186340E+00
        -11   -1    0    0    0    0  0.00000000000E+00  0.00000000000E+00  0.45593999997E+02  0.45594000000E+02  0.51100000000E-03 0. -1.
         11   -1    0    0    0    0 -0.00000000000E+00 -0.00000000000E+00 -0.45593999997E+02  0.45594000000E+02  0.51100000000E-03 0.  1.
    9900012    2    1    2    0    0 -0.10842141403E+01 -0.45082352141E+00  0.12240372049E+00  0.90007430298E+02  0.89999687578E+02 0.  0.
        -12    1    1    2    0    0  0.10842141403E+01  0.45082352141E+00 -0.12240372049E+00  0.11805697016E+01  0.00000000000E+00 0.  1.
         11    1    3    3    0    0 -0.72062794001E+01 -0.27090554899E+01 -0.14419274600E+01  0.78325346792E+01  0.51100000000E-03 0. -1.
        -11    1    3    3    0    0 -0.11490282982E+02  0.13820426373E+02 -0.35358357538E+02  0.39664142953E+02  0.51100000000E-03 0.  1.
         12    1    3    3    0    0  0.17612348241E+02 -0.11562194405E+02  0.36922688719E+02  0.42510752666E+02  0.00000000000E+00 0. -1.
</event>
<event>
 7    1  0.3662489E-015  0.9000769E+02  0.7816164E-02  0.1186339E+00
        -11   -1    0    0    0    0  0.00000000000E+00  0.00000000000E+00  0.45593999997E+02  0.45594000000E+02  0.51100000000E-03 0.  1.
         11   -1    0    0    0    0 -0.00000000000E+00 -0.00000000000E+00 -0.45593999997E+02  0.45594000000E+02  0.51100000000E-03 0. -1.
    9900012    2    1    2    0    0 -0.91640029524E+00 -0.70924221302E+00  0.22433327043E+00  0.90007686722E+02  0.89999947387E+02 0.  0.
        -12    1    1    2    0    0  0.91640029524E+00  0.70924221302E+00 -0.22433327043E+00  0.11803132779E+01  0.00000000000E+00 0.  1.
         11    1    3    3    0    0 -0.61634481885E+01  0.22432773793E+01  0.95893333359E+01  0.11617904332E+02  0.51100000000E-03 0. -1.
        -11    1    3    3    0    0  0.33057291296E+02  0.20155265834E+02  0.58586450038E+01  0.39157923467E+02  0.51100000000E-03 0.  1.
         12    1    3    3    0    0 -0.27810243403E+02 -0.23107785426E+02 -0.15223645069E+02  0.39231858924E+02  0.00000000000E+00 0. -1.
</event>
<event>
 7    1  0.3662489E-015  0.9000773E+02  0.7816164E-02  0.1186339E+00
        -11   -1    0    0    0    0  0.00000000000E+00  0.00000000000E+00  0.45593999997E+02  0.45594000000E+02  0.51100000000E-03 0.  1.
         11   -1    0    0    0    0 -0.00000000000E+00 -0.00000000000E+00 -0.45593999997E+02  0.45594000000E+02  0.51100000000E-03 0. -1.
    9900012    2    1    2    0    0  0.14923043312E-01 -0.10386151688E+01 -0.56044637865E+00  0.90007727019E+02  0.89999988216E+02 0.  0.
        -12    1    1    2    0    0 -0.14923043312E-01  0.10386151688E+01  0.56044637865E+00  0.11802729809E+01  0.00000000000E+00 0.  1.
         11    1    3    3    0    0  0.12308050545E+02 -0.19282117533E+02  0.19987998294E+02  0.30377758983E+02  0.51100000000E-03 0. -1.
        -11    1    3    3    0    0 -0.66206561102E+01 -0.15264343303E+02  0.47039073730E+01  0.17290460047E+02  0.51100000000E-03 0.  1.
        -12    1    3    3    0    0 -0.56724713912E+01  0.33507845667E+02 -0.25252352046E+02  0.42339507989E+02  0.00000000000E+00 0.  1.
</event>
<event>
 7    1  0.3662489E-015  0.9000769E+02  0.7816164E-02  0.1186339E+00
        -11   -1    0    0    0    0  0.00000000000E+00  0.00000000000E+00  0.45593999997E+02  0.45594000000E+02  0.51100000000E-03 0.  1.
         11   -1    0    0    0    0 -0.00000000000E+00 -0.00000000000E+00 -0.45593999997E+02  0.45594000000E+02  0.51100000000E-03 0. -1.
    9900012    2    1    2    0    0  0.11000240345E+01  0.41101996977E+00 -0.11890574839E+00  0.90007691198E+02  0.89999951921E+02 0.  0.
        -12    1    1    2    0    0 -0.11000240345E+01 -0.41101996977E+00  0.11890574839E+00  0.11803088024E+01  0.00000000000E+00 0.  1.
         11    1    3    3    0    0  0.91955123366E+00  0.29800116922E+01  0.82590402479E+01  0.88282382293E+01  0.51100000000E-03 0. -1.
        -11    1    3    3    0    0  0.27203906694E+02  0.50580925026E+01  0.25187952708E+02  0.37417506612E+02  0.51100000000E-03 0.  1.
         12    1    3    3    0    0 -0.27023433893E+02 -0.76270842249E+01 -0.33565898704E+02  0.43761946357E+02  0.00000000000E+00 0. -1.
</event>
<event>
 7    1  0.3662489E-015  0.9000771E+02  0.7816164E-02  0.1186339E+00
        -11   -1    0    0    0    0  0.00000000000E+00  0.00000000000E+00  0.45593999997E+02  0.45594000000E+02  0.51100000000E-03 0.  1.
         11   -1    0    0    0    0 -0.00000000000E+00 -0.00000000000E+00 -0.45593999997E+02  0.45594000000E+02  0.51100000000E-03 0. -1.
    9900012    2    1    2    0    0  0.10499540957E+01 -0.35291794950E+00  0.40757575959E+00  0.90007715000E+02  0.89999976038E+02 0.  0.
        -12    1    1    2    0    0 -0.10499540957E+01  0.35291794950E+00 -0.40757575959E+00  0.11802850003E+01  0.00000000000E+00 0.  1.
         11    1    3    3    0    0 -0.88817987412E+00 -0.19407373950E+02 -0.37947201716E+02  0.42631269573E+02  0.51100000000E-03 0. -1.
        -11    1    3    3    0    0 -0.58081296803E+01 -0.12586081232E+01  0.10201885568E+02  0.11806647881E+02  0.51100000000E-03 0.  1.
        -12    1    3    3    0    0  0.77462636501E+01  0.20313064124E+02  0.28152891908E+02  0.35569797545E+02  0.00000000000E+00 0.  1.
</event>
<event>
 7    1  0.3662489E-015  0.9000797E+02  0.7816164E-02  0.1186339E+00
        -11   -1    0    0    0    0  0.00000000000E+00  0.00000000000E+00  0.45593999997E+02  0.45594000000E+02  0.51100000000E-03 0.  1.
         11   -1    0    0    0    0 -0.00000000000E+00 -0.00000000000E+00 -0.45593999997E+02  0.45594000000E+02  0.51100000000E-03 0. -1.
    9900012    2    1    2    0    0 -0.81368873552E+00 -0.79443480671E+00 -0.31506293429E+00  0.90007965817E+02  0.90000230166E+02 0.  0.
        -12    1    1    2    0    0  0.81368873552E+00  0.79443480671E+00  0.31506293429E+00  0.11800341830E+01  0.00000000000E+00 0.  1.
         11    1    3    3    0    0 -0.18509529480E+02  0.36113962542E+02 -0.11308433904E+02  0.42127207950E+02  0.51100000000E-03 0. -1.
        -11    1    3    3    0    0 -0.28685738253E+01 -0.69225126466E+01 -0.40661773026E+01  0.85254733154E+01  0.51100000000E-03 0.  1.
        -12    1    3    3    0    0  0.20564414570E+02 -0.29985884702E+02  0.15059548273E+02  0.39355284551E+02  0.00000000000E+00 0.  1.
</event>
<event>
 7    1  0.3662489E-015  0.9000803E+02  0.7816164E-02  0.1186338E+00
        -11   -1    0    0    0    0  0.00000000000E+00  0.00000000000E+00  0.45593999997E+02  0.45594000000E+02  0.51100000000E-03 0.  1.
         11   -1    0    0    0    0 -0.00000000000E+00 -0.00000000000E+00 -0.45593999997E+02  0.45594000000E+02  0.51100000000E-03 0. -1.
    9900012    2    1    2    0    0  0.11290054180E+01 -0.33962991391E+00  0.48281004719E-01  0.90008028489E+02  0.90000293664E+02 0.  0.
        -12    1    1    2    0    0 -0.11290054180E+01  0.33962991391E+00 -0.48281004719E-01  0.11799715114E+01  0.00000000000E+00 0.  1.
         11    1    3    3    0    0  0.90447463272E+01  0.41178810342E+01 -0.24411962853E+01  0.10233465684E+02  0.51100000000E-03 0. -1.
        -11    1    3    3    0    0  0.25878557549E+02 -0.73105797184E+01  0.26863092864E+02  0.38010131217E+02  0.51100000000E-03 0.  1.
         12    1    3    3    0    0 -0.33794298459E+02  0.28530687702E+01 -0.24373615574E+02  0.41764431588E+02  0.00000000000E+00 0. -1.
</event>
<event>
 7    1  0.3662489E-015  0.9000766E+02  0.7816164E-02  0.1186339E+00
        -11   -1    0    0    0    0  0.00000000000E+00  0.00000000000E+00  0.45593999997E+02  0.45594000000E+02  0.51100000000E-03 0.  1.
         11   -1    0    0    0    0 -0.00000000000E+00 -0.00000000000E+00 -0.45593999997E+02  0.45594000000E+02  0.51100000000E-03 0. -1.
    9900012    2    1    2    0    0  0.68171519034E+00 -0.87712153027E+00  0.39891094873E+00  0.90007657793E+02  0.89999918076E+02 0.  0.
        -12    1    1    2    0    0 -0.68171519034E+00  0.87712153027E+00 -0.39891094873E+00  0.11803422066E+01  0.00000000000E+00 0.  1.
         11    1    3    3    0    0 -0.97013615439E+01  0.23487953227E+02 -0.31220901130E+02  0.40255993718E+02  0.51100000000E-03 0. -1.
        -11    1    3    3    0    0  0.76731937437E+01 -0.36255882133E+01 -0.32519111013E+01  0.90883286799E+01  0.51100000000E-03 0.  1.
        -12    1    3    3    0    0  0.27098829905E+01 -0.20739486544E+02  0.34871723180E+02  0.40663335395E+02  0.00000000000E+00 0.  1.
</event>
<event>
 7    1  0.3662489E-015  0.9000772E+02  0.7816164E-02  0.1186339E+00
        -11   -1    0    0    0    0  0.00000000000E+00  0.00000000000E+00  0.45593999997E+02  0.45594000000E+02  0.51100000000E-03 0. -1.
         11   -1    0    0    0    0 -0.00000000000E+00 -0.00000000000E+00 -0.45593999997E+02  0.45594000000E+02  0.51100000000E-03 0.  1.
    9900012    2    1    2    0    0  0.81330829073E+00  0.77820275769E-01  0.85178597623E+00  0.90007717949E+02  0.89999979026E+02 0.  0.
        -12    1    1    2    0    0 -0.81330829073E+00 -0.77820275769E-01 -0.85178597623E+00  0.11802820512E+01  0.00000000000E+00 0.  1.
         11    1    3    3    0    0  0.50551824587E+01 -0.30165008734E+02  0.18749302683E+02  0.35875046662E+02  0.51100000000E-03 0. -1.
        -11    1    3    3    0    0 -0.94626995347E+01 -0.68558838409E+01  0.17719220157E+01  0.11818863465E+02  0.51100000000E-03 0.  1.
        -12    1    3    3    0    0  0.52208253668E+01  0.37098712851E+02 -0.19669438722E+02  0.42313807822E+02  0.00000000000E+00 0.  1.
</event>
<event>
 7    1  0.3662489E-015  0.9000773E+02  0.7816164E-02  0.1186339E+00
        -11   -1    0    0    0    0  0.00000000000E+00  0.00000000000E+00  0.45593999997E+02  0.45594000000E+02  0.51100000000E-03 0. -1.
         11   -1    0    0    0    0 -0.00000000000E+00 -0.00000000000E+00 -0.45593999997E+02  0.45594000000E+02  0.51100000000E-03 0.  1.
    9900012    2    1    2    0    0  0.25551007588E+00  0.11463370558E+01 -0.11685322832E+00  0.90007733623E+02  0.89999994906E+02 0.  0.
        -12    1    1    2    0    0 -0.25551007588E+00 -0.11463370558E+01  0.11685322832E+00  0.11802663773E+01  0.00000000000E+00 0.  1.
         11    1    3    3    0    0 -0.10164346053E+01 -0.21278925527E+01  0.74958680979E+01  0.78580598639E+01  0.51100000000E-03 0. -1.
        -11    1    3    3    0    0 -0.29067191066E+02  0.21548674791E+02 -0.23695036847E+02  0.43251609833E+02  0.51100000000E-03 0.  1.
         12    1    3    3    0    0  0.30339135747E+02 -0.18274445182E+02  0.16082315521E+02  0.38898063925E+02  0.00000000000E+00 0. -1.
</event>
<event>
 7    1  0.3662489E-015  0.9000776E+02  0.7816164E-02  0.1186339E+00
        -11   -1    0    0    0    0  0.00000000000E+00  0.00000000000E+00  0.45593999997E+02  0.45594000000E+02  0.51100000000E-03 0.  1.
         11   -1    0    0    0    0 -0.00000000000E+00 -0.00000000000E+00 -0.45593999997E+02  0.45594000000E+02  0.51100000000E-03 0. -1.
    9900012    2    1    2    0    0  0.10780826255E+01 -0.15732301556E+00 -0.45382437434E+00  0.90007758821E+02  0.90000020437E+02 0.  0.
        -12    1    1    2    0    0 -0.10780826255E+01  0.15732301556E+00  0.45382437434E+00  0.11802411793E+01  0.00000000000E+00 0.  1.
         11    1    3    3    0    0 -0.46759498079E+01  0.36884089234E+02  0.33896561045E+01  0.37333501229E+02  0.51100000000E-03 0. -1.
        -11    1    3    3    0    0 -0.38473911106E+01  0.41125025989E+01  0.70601919583E+01  0.90311354066E+01  0.51100000000E-03 0.  1.
        -12    1    3    3    0    0  0.96014235440E+01 -0.41153914849E+02 -0.10903672437E+02  0.43643122185E+02  0.00000000000E+00 0.  1.
</event>
<event>
 7    1  0.3662489E-015  0.9000773E+02  0.7816164E-02  0.1186339E+00
        -11   -1    0    0    0    0  0.00000000000E+00  0.00000000000E+00  0.45593999997E+02  0.45594000000E+02  0.51100000000E-03 0. -1.
         11   -1    0    0    0    0 -0.00000000000E+00 -0.00000000000E+00 -0.45593999997E+02  0.45594000000E+02  0.51100000000E-03 0.  1.
    9900012    2    1    2    0    0  0.11512318580E+01  0.25476807573E+00  0.52807560729E-01  0.90007732996E+02  0.89999994271E+02 0.  0.
        -12    1    1    2    0    0 -0.11512318580E+01 -0.25476807573E+00 -0.52807560729E-01  0.11802670044E+01  0.00000000000E+00 0.  1.
         11    1    3    3    0    0 -0.96716870928E+01 -0.47810177326E+01 -0.26034338874E+01  0.11098537293E+02  0.51100000000E-03 0. -1.
        -11    1    3    3    0    0  0.31777681628E+02 -0.13797583815E+02 -0.22358703241E+02  0.41232341428E+02  0.51100000000E-03 0.  1.
         12    1    3    3    0    0 -0.20954762677E+02  0.18833369624E+02  0.25014944689E+02  0.37676854274E+02  0.00000000000E+00 0. -1.
</event>
<event>
 7    1  0.3662489E-015  0.9000773E+02  0.7816164E-02  0.1186339E+00
        -11   -1    0    0    0    0  0.00000000000E+00  0.00000000000E+00  0.45593999997E+02  0.45594000000E+02  0.51100000000E-03 0.  1.
         11   -1    0    0    0    0 -0.00000000000E+00 -0.00000000000E+00 -0.45593999997E+02  0.45594000000E+02  0.51100000000E-03 0. -1.
    9900012    2    1    2    0    0 -0.81406146476E+00 -0.60570989198E+00  0.60287808901E+00  0.90007727772E+02  0.89999988979E+02 0.  0.
        -12    1    1    2    0    0  0.81406146476E+00  0.60570989198E+00 -0.60287808901E+00  0.11802722279E+01  0.00000000000E+00 0.  1.
         11    1    3    3    0    0 -0.20614575458E+02  0.34444555962E+02 -0.16533781918E+02  0.43413754750E+02  0.51100000000E-03 0. -1.
        -11    1    3    3    0    0  0.69497606991E+01 -0.26865063952E+01  0.72495065996E+01  0.10395760510E+02  0.51100000000E-03 0.  1.
        -12    1    3    3    0    0  0.12850753294E+02 -0.32363759459E+02  0.98871534070E+01  0.36198212512E+02  0.00000000000E+00 0.  1.
</event>
<event>
 7    1  0.3662489E-015  0.9000778E+02  0.7816164E-02  0.1186339E+00
        -11   -1    0    0    0    0  0.00000000000E+00  0.00000000000E+00  0.45593999997E+02  0.45594000000E+02  0.51100000000E-03 0.  1.
         11   -1    0    0    0    0 -0.00000000000E+00 -0.00000000000E+00 -0.45593999997E+02  0.45594000000E+02  0.51100000000E-03 0. -1.
    9900012    2    1    2    0    0 -0.63559511379E-01  0.11705387406E+01 -0.13677930447E+00  0.90007784201E+02  0.90000046152E+02 0.  0.
        -12    1    1    2    0    0  0.63559511379E-01 -0.11705387406E+01  0.13677930447E+00  0.11802157993E+01  0.00000000000E+00 0.  1.
         11    1    3    3    0    0  0.18385299234E+01 -0.37359310418E+01  0.92446173312E+01  0.10139049408E+02  0.51100000000E-03 0. -1.
        -11    1    3    3    0    0 -0.20793728795E+02 -0.31491070558E+02  0.27970703538E+00  0.37737844644E+02  0.51100000000E-03 0.  1.
         12    1    3    3    0    0  0.18891639361E+02  0.36397540341E+02 -0.96611036711E+01  0.42130890149E+02  0.00000000000E+00 0. -1.
</event>
<event>
 7    1  0.3662489E-015  0.9000806E+02  0.7816164E-02  0.1186338E+00
        -11   -1    0    0    0    0  0.00000000000E+00  0.00000000000E+00  0.45593999997E+02  0.45594000000E+02  0.51100000000E-03 0.  1.
         11   -1    0    0    0    0 -0.00000000000E+00 -0.00000000000E+00 -0.45593999997E+02  0.45594000000E+02  0.51100000000E-03 0. -1.
    9900012    2    1    2    0    0 -0.44227249035E+00  0.11791023060E+00 -0.10875445445E+01  0.90008058936E+02  0.90000324513E+02 0.  0.
        -12    1    1    2    0    0  0.44227249035E+00 -0.11791023060E+00  0.10875445445E+01  0.11799410640E+01  0.00000000000E+00 0.  1.
         11    1    3    3    0    0  0.22182854705E+01  0.84440040116E+01  0.13208294814E+01  0.88298689094E+01  0.51100000000E-03 0. -1.
        -11    1    3    3    0    0  0.20952035206E+02 -0.74369730662E+01  0.32286567558E+02  0.39201004995E+02  0.51100000000E-03 0.  1.
         12    1    3    3    0    0 -0.23612593167E+02 -0.88912071479E+00 -0.34694941584E+02  0.41977185032E+02  0.00000000000E+00 0. -1.
</event>
<event>
 7    1  0.3662489E-015  0.9000769E+02  0.7816164E-02  0.1186339E+00
        -11   -1    0    0    0    0  0.00000000000E+00  0.00000000000E+00  0.45593999997E+02  0.45594000000E+02  0.51100000000E-03 0. -1.
         11   -1    0    0    0    0 -0.00000000000E+00 -0.00000000000E+00 -0.45593999997E+02  0.45594000000E+02  0.51100000000E-03 0.  1.
    9900012    2    1    2    0    0  0.73145922113E+00 -0.24290307936E+00  0.89392666451E+00  0.90007686745E+02  0.89999947410E+02 0.  0.
        -12    1    1    2    0    0 -0.73145922113E+00  0.24290307936E+00 -0.89392666451E+00  0.11803132549E+01  0.00000000000E+00 0.  1.
         11    1    3    3    0    0 -0.60590306579E+01  0.10156273031E+02 -0.50788778840E+00  0.11837216086E+02  0.51100000000E-03 0. -1.
        -11    1    3    3    0    0  0.37235549182E+02  0.11042191639E+02 -0.82445906629E+01  0.39703770533E+02  0.51100000000E-03 0.  1.
         12    1    3    3    0    0 -0.30445059303E+02 -0.21441367750E+02  0.96464051158E+01  0.38466700126E+02  0.00000000000E+00 0. -1.
</event>
<event>
 7    1  0.3662489E-015  0.9000781E+02  0.7816164E-02  0.1186339E+00
        -11   -1    0    0    0    0  0.00000000000E+00  0.00000000000E+00  0.45593999997E+02  0.45594000000E+02  0.51100000000E-03 0. -1.
         11   -1    0    0    0    0 -0.00000000000E+00 -0.00000000000E+00 -0.45593999997E+02  0.45594000000E+02  0.51100000000E-03 0.  1.
    9900012    2    1    2    0    0 -0.75338935894E+00 -0.83322217381E+00  0.36193162205E+00  0.90007809670E+02  0.90000071957E+02 0.  0.
        -12    1    1    2    0    0  0.75338935894E+00  0.83322217381E+00 -0.36193162205E+00  0.11801903305E+01  0.00000000000E+00 0.  1.
         11    1    3    3    0    0  0.15665227950E+02  0.24307759054E+01  0.75813994676E+01  0.17572297983E+02  0.51100000000E-03 0. -1.
        -11    1    3    3    0    0  0.43573533286E+01  0.21411235686E+02 -0.26894499345E+02  0.34651719105E+02  0.51100000000E-03 0.  1.
         12    1    3    3    0    0 -0.20775970638E+02 -0.24675233766E+02  0.19675031500E+02  0.37783792582E+02  0.00000000000E+00 0. -1.
</event>
<event>
 7    1  0.3662489E-015  0.9000776E+02  0.7816164E-02  0.1186339E+00
        -11   -1    0    0    0    0  0.00000000000E+00  0.00000000000E+00  0.45593999997E+02  0.45594000000E+02  0.51100000000E-03 0. -1.
         11   -1    0    0    0    0 -0.00000000000E+00 -0.00000000000E+00 -0.45593999997E+02  0.45594000000E+02  0.51100000000E-03 0.  1.
    9900012    2    1    2    0    0  0.24229808733E+00 -0.10380330738E+01  0.50670220586E+00  0.90007759283E+02  0.90000020905E+02 0.  0.
        -12    1    1    2    0    0 -0.24229808733E+00  0.10380330738E+01 -0.50670220586E+00  0.11802407173E+01  0.00000000000E+00 0.  1.
         11    1    3    3    0    0 -0.18988478748E+01 -0.31462421186E+01  0.41776760343E+01  0.55639410519E+01  0.51100000000E-03 0. -1.
        -11    1    3    3    0    0 -0.22222981040E+02  0.29989343366E+02 -0.21791042212E+02  0.43221188355E+02  0.51100000000E-03 0.  1.
         12    1    3    3    0    0  0.24364127002E+02 -0.27881134322E+02  0.18120068384E+02  0.41222629876E+02  0.00000000000E+00 0. -1.
</event>
<event>
 7    1  0.3662489E-015  0.9000776E+02  0.7816164E-02  0.1186339E+00
        -11   -1    0    0    0    0  0.00000000000E+00  0.00000000000E+00  0.45593999997E+02  0.45594000000E+02  0.51100000000E-03 0. -1.
         11   -1    0    0    0    0 -0.00000000000E+00 -0.00000000000E+00 -0.45593999997E+02  0.45594000000E+02  0.51100000000E-03 0.  1.
    9900012    2    1    2    0    0  0.11029780007E+01 -0.22007096289E+00 -0.35773730153E+00  0.90007759484E+02  0.90000021109E+02 0.  0.
        -12    1    1    2    0    0 -0.11029780007E+01  0.22007096289E+00  0.35773730153E+00  0.11802405160E+01  0.00000000000E+00 0.  1.
         11    1    3    3    0    0 -0.14148076095E+01 -0.87209663071E+01  0.32982813817E+01  0.94305670156E+01  0.51100000000E-03 0. -1.
        -11    1    3    3    0    0 -0.36990477473E+01  0.79249633925E+01 -0.41403372566E+02  0.42316985468E+02  0.51100000000E-03 0.  1.
         12    1    3    3    0    0  0.62168333575E+01  0.57593195163E+00  0.37747353882E+02  0.38260207001E+02  0.00000000000E+00 0. -1.
</event>
<event>
 7    1  0.3662489E-015  0.9000771E+02  0.7816164E-02  0.1186339E+00
        -11   -1    0    0    0    0  0.00000000000E+00  0.00000000000E+00  0.45593999997E+02  0.45594000000E+02  0.51100000000E-03 0.  1.
         11   -1    0    0    0    0 -0.00000000000E+00 -0.00000000000E+00 -0.45593999997E+02  0.45594000000E+02  0.51100000000E-03 0. -1.
    9900012    2    1    2    0    0  0.10152463723E+01  0.59491761921E+00 -0.91797215698E-01  0.90007712366E+02  0.89999973369E+02 0.  0.
        -12    1    1    2    0    0 -0.10152463723E+01 -0.59491761921E+00  0.91797215698E-01  0.11802876339E+01  0.00000000000E+00 0.  1.
         11    1    3    3    0    0 -0.43053589877E+02 -0.48514152945E+01  0.41899571176E+01  0.43528192848E+02  0.51100000000E-03 0. -1.
        -11    1    3    3    0    0  0.79291319463E+01 -0.30483385867E+01 -0.39136213336E+01  0.93530708200E+01  0.51100000000E-03 0.  1.
        -12    1    3    3    0    0  0.36139704303E+02  0.84946715004E+01 -0.36813299969E+00  0.37126448698E+02  0.00000000000E+00 0.  1.
</event>
<event>
 7    1  0.3662489E-015  0.9000772E+02  0.7816164E-02  0.1186339E+00
        -11   -1    0    0    0    0  0.00000000000E+00  0.00000000000E+00  0.45593999997E+02  0.45594000000E+02  0.51100000000E-03 0. -1.
         11   -1    0    0    0    0 -0.00000000000E+00 -0.00000000000E+00 -0.45593999997E+02  0.45594000000E+02  0.51100000000E-03 0.  1.
    9900012    2    1    2    0    0 -0.78961138028E-01 -0.52805954532E+00  0.10526111998E+01  0.90007715254E+02  0.89999976295E+02 0.  0.
        -12    1    1    2    0    0  0.78961138028E-01  0.52805954532E+00 -0.10526111998E+01  0.11802847464E+01  0.00000000000E+00 0.  1.
         11    1    3    3    0    0 -0.29924198102E+01 -0.13447927368E+02 -0.16168243363E+01  0.13871389548E+02  0.51100000000E-03 0. -1.
        -11    1    3    3    0    0 -0.24742111224E+02  0.17904149708E+02 -0.22877048554E+02  0.38158747299E+02  0.51100000000E-03 0.  1.
         12    1    3    3    0    0  0.27655569897E+02 -0.49842818858E+01  0.25546484090E+02  0.37977578406E+02  0.00000000000E+00 0. -1.
</event>
<event>
 7    1  0.3662489E-015  0.9000776E+02  0.7816164E-02  0.1186339E+00
        -11   -1    0    0    0    0  0.00000000000E+00  0.00000000000E+00  0.45593999997E+02  0.45594000000E+02  0.51100000000E-03 0. -1.
         11   -1    0    0    0    0 -0.00000000000E+00 -0.00000000000E+00 -0.45593999997E+02  0.45594000000E+02  0.51100000000E-03 0.  1.
    9900012    2    1    2    0    0 -0.81808278430E+00 -0.57881477652E+00  0.62345166258E+00  0.90007755126E+02  0.90000016693E+02 0.  0.
        -12    1    1    2    0    0  0.81808278430E+00  0.57881477652E+00 -0.62345166258E+00  0.11802448742E+01  0.00000000000E+00 0.  1.
         11    1    3    3    0    0  0.78571345681E+01 -0.35643511459E+02 -0.10841689666E+02  0.38075408177E+02  0.51100000000E-03 0. -1.
        -11    1    3    3    0    0 -0.49907412842E+01 -0.68285238255E+01  0.33745151821E+01  0.91062390248E+01  0.51100000000E-03 0.  1.
        -12    1    3    3    0    0 -0.36844760681E+01  0.41893220508E+02  0.80906261465E+01  0.42826107924E+02  0.00000000000E+00 0.  1.
</event>
<event>
 7    1  0.3662489E-015  0.9000776E+02  0.7816164E-02  0.1186339E+00
        -11   -1    0    0    0    0  0.00000000000E+00  0.00000000000E+00  0.45593999997E+02  0.45594000000E+02  0.51100000000E-03 0.  1.
         11   -1    0    0    0    0 -0.00000000000E+00 -0.00000000000E+00 -0.45593999997E+02  0.45594000000E+02  0.51100000000E-03 0. -1.
    9900012    2    1    2    0    0  0.11681844650E+01 -0.16699722910E+00  0.20328812290E-01  0.90007764312E+02  0.90000026001E+02 0.  0.
        -12    1    1    2    0    0 -0.11681844650E+01  0.16699722910E+00 -0.20328812290E-01  0.11802356881E+01  0.00000000000E+00 0.  1.
         11    1    3    3    0    0 -0.14842102157E+01 -0.35582881082E+02  0.14332166078E+02  0.38389520586E+02  0.51100000000E-03 0. -1.
        -11    1    3    3    0    0 -0.69010922590E+01 -0.26046623192E+01  0.39541059213E+01  0.83692469233E+01  0.51100000000E-03 0.  1.
        -12    1    3    3    0    0  0.95534869397E+01  0.38020546172E+02 -0.18265943187E+02  0.43248996803E+02  0.00000000000E+00 0.  1.
</event>
<event>
 7    1  0.3662489E-015  0.9000771E+02  0.7816164E-02  0.1186339E+00
        -11   -1    0    0    0    0  0.00000000000E+00  0.00000000000E+00  0.45593999997E+02  0.45594000000E+02  0.51100000000E-03 0. -1.
         11   -1    0    0    0    0 -0.00000000000E+00 -0.00000000000E+00 -0.45593999997E+02  0.45594000000E+02  0.51100000000E-03 0.  1.
    9900012    2    1    2    0    0  0.10652729927E+01 -0.47475082688E+00 -0.18132930303E+00  0.90007713928E+02  0.89999974951E+02 0.  0.
        -12    1    1    2    0    0 -0.10652729927E+01  0.47475082688E+00  0.18132930303E+00  0.11802860724E+01  0.00000000000E+00 0.  1.
         11    1    3    3    0    0  0.27333757457E+01 -0.75292236689E+01  0.39840082218E+00  0.80199298937E+01  0.51100000000E-03 0. -1.
        -11    1    3    3    0    0 -0.39975352085E+02 -0.45505004199E+01 -0.86572198580E+01  0.41154383537E+02  0.51100000000E-03 0.  1.
         12    1    3    3    0    0  0.38307249332E+02  0.11604973262E+02  0.80774897328E+01  0.40833400497E+02  0.00000000000E+00 0. -1.
</event>
<event>
 7    1  0.3662489E-015  0.9000755E+02  0.7816164E-02  0.1186339E+00
        -11   -1    0    0    0    0  0.00000000000E+00  0.00000000000E+00  0.45593999997E+02  0.45594000000E+02  0.51100000000E-03 0. -1.
         11   -1    0    0    0    0 -0.00000000000E+00 -0.00000000000E+00 -0.45593999997E+02  0.45594000000E+02  0.51100000000E-03 0.  1.
    9900012    2    1    2    0    0  0.10433733090E+01  0.54652424674E+00 -0.78352797015E-01  0.90007552722E+02  0.89999811618E+02 0.  0.
        -12    1    1    2    0    0 -0.10433733090E+01 -0.54652424674E+00  0.78352797015E-01  0.11804472775E+01  0.00000000000E+00 0.  1.
         11    1    3    3    0    0  0.13872982538E+02  0.32038231353E+02  0.33609597649E+01  0.35074263549E+02  0.51100000000E-03 0. -1.
        -11    1    3    3    0    0 -0.99904112034E+01  0.53414975741E+01 -0.12526655839E+02  0.16889553550E+02  0.51100000000E-03 0.  1.
        -12    1    3    3    0    0 -0.28391980251E+01 -0.36833204680E+02  0.90873432766E+01  0.38043735624E+02  0.00000000000E+00 0.  1.
</event>
<event>
 7    1  0.3662489E-015  0.9000774E+02  0.7816164E-02  0.1186339E+00
        -11   -1    0    0    0    0  0.00000000000E+00  0.00000000000E+00  0.45593999997E+02  0.45594000000E+02  0.51100000000E-03 0.  1.
         11   -1    0    0    0    0 -0.00000000000E+00 -0.00000000000E+00 -0.45593999997E+02  0.45594000000E+02  0.51100000000E-03 0. -1.
    9900012    2    1    2    0    0 -0.57240663975E-01  0.73793552984E+00 -0.91933678154E+00  0.90007743478E+02  0.90000004892E+02 0.  0.
        -12    1    1    2    0    0  0.57240663975E-01 -0.73793552984E+00  0.91933678154E+00  0.11802565220E+01  0.00000000000E+00 0.  1.
         11    1    3    3    0    0  0.19949040396E+02  0.20303738486E+02 -0.25492408850E+02  0.38210848178E+02  0.51100000000E-03 0. -1.
        -11    1    3    3    0    0 -0.34851265673E+01  0.73805352371E+01 -0.40888187829E+01  0.91289017344E+01  0.51100000000E-03 0.  1.
        -12    1    3    3    0    0 -0.16521154493E+02 -0.26946338193E+02  0.28661890851E+02  0.42667993566E+02  0.00000000000E+00 0.  1.
</event>
<event>
 7    1  0.3662489E-015  0.9000776E+02  0.7816164E-02  0.1186339E+00
        -11   -1    0    0    0    0  0.00000000000E+00  0.00000000000E+00  0.45593999997E+02  0.45594000000E+02  0.51100000000E-03 0. -1.
         11   -1    0    0    0    0 -0.00000000000E+00 -0.00000000000E+00 -0.45593999997E+02  0.45594000000E+02  0.51100000000E-03 0.  1.
    9900012    2    1    2    0    0  0.23713521486E+00 -0.53824724347E+00  0.10232428386E+01  0.90007758875E+02  0.90000020493E+02 0.  0.
        -12    1    1    2    0    0 -0.23713521486E+00  0.53824724347E+00 -0.10232428386E+01  0.11802411245E+01  0.00000000000E+00 0.  1.
         11    1    3    3    0    0 -0.21635998336E+02 -0.26056148811E+01  0.26364265624E+02  0.34204972666E+02  0.51100000000E-03 0. -1.
        -11    1    3    3    0    0 -0.88759884950E+01 -0.22628120567E+01  0.65732613675E+01  0.11274362751E+02  0.51100000000E-03 0.  1.
        -12    1    3    3    0    0  0.30749122046E+02  0.43301796943E+01 -0.31914284153E+02  0.44528423459E+02  0.00000000000E+00 0.  1.
</event>
<event>
 7    1  0.3662489E-015  0.9000772E+02  0.7816164E-02  0.1186339E+00
        -11   -1    0    0    0    0  0.00000000000E+00  0.00000000000E+00  0.45593999997E+02  0.45594000000E+02  0.51100000000E-03 0.  1.
         11   -1    0    0    0    0 -0.00000000000E+00 -0.00000000000E+00 -0.45593999997E+02  0.45594000000E+02  0.51100000000E-03 0. -1.
    9900012    2    1    2    0    0 -0.10500634679E+01  0.39471459872E+00 -0.36692387927E+00  0.90007717816E+02  0.89999978891E+02 0.  0.
        -12    1    1    2    0    0  0.10500634679E+01 -0.39471459872E+00  0.36692387927E+00  0.11802821842E+01  0.00000000000E+00 0.  1.
         11    1    3    3    0    0  0.14393620549E+02 -0.30921625322E+02 -0.11356438335E+02  0.35948461956E+02  0.51100000000E-03 0. -1.
        -11    1    3    3    0    0  0.10707857700E+01 -0.70612988142E+01 -0.56308145368E+01  0.90947564957E+01  0.51100000000E-03 0.  1.
        -12    1    3    3    0    0 -0.16514469787E+02  0.38377638735E+02  0.16620328993E+02  0.44964499364E+02  0.00000000000E+00 0.  1.
</event>
<event>
 7    1  0.3662489E-015  0.9000776E+02  0.7816164E-02  0.1186339E+00
        -11   -1    0    0    0    0  0.00000000000E+00  0.00000000000E+00  0.45593999997E+02  0.45594000000E+02  0.51100000000E-03 0.  1.
         11   -1    0    0    0    0 -0.00000000000E+00 -0.00000000000E+00 -0.45593999997E+02  0.45594000000E+02  0.51100000000E-03 0. -1.
    9900012    2    1    2    0    0  0.73399038239E+00  0.86999213249E+00  0.31200912221E+00  0.90007755159E+02  0.90000016727E+02 0.  0.
        -12    1    1    2    0    0 -0.73399038239E+00 -0.86999213249E+00 -0.31200912221E+00  0.11802448409E+01  0.00000000000E+00 0.  1.
         11    1    3    3    0    0 -0.90582085121E+01  0.68623768250E+00  0.34562509815E+01  0.97194513587E+01  0.51100000000E-03 0. -1.
        -11    1    3    3    0    0  0.23481511990E+01  0.23725857636E+01  0.38137694881E+02  0.38283504912E+02  0.51100000000E-03 0.  1.
         12    1    3    3    0    0  0.74440476955E+01 -0.21888313136E+01 -0.41281936740E+02  0.42004798888E+02  0.00000000000E+00 0. -1.
</event>
<event>
 7    1  0.3662489E-015  0.9000780E+02  0.7816164E-02  0.1186339E+00
        -11   -1    0    0    0    0  0.00000000000E+00  0.00000000000E+00  0.45593999997E+02  0.45594000000E+02  0.51100000000E-03 0.  1.
         11   -1    0    0    0    0 -0.00000000000E+00 -0.00000000000E+00 -0.45593999997E+02  0.45594000000E+02  0.51100000000E-03 0. -1.
    9900012    2    1    2    0    0 -0.53324475364E+00 -0.19817861258E+00 -0.10340401984E+01  0.90007803465E+02  0.90000065671E+02 0.  0.
        -12    1    1    2    0    0  0.53324475364E+00  0.19817861258E+00  0.10340401984E+01  0.11801965352E+01  0.00000000000E+00 0.  1.
         11    1    3    3    0    0 -0.34483743891E+02  0.14549373650E+02 -0.83234945922E+01  0.38341797413E+02  0.51100000000E-03 0. -1.
        -11    1    3    3    0    0 -0.58300846210E+01 -0.16445564430E+01  0.76796962731E+01  0.97812160640E+01  0.51100000000E-03 0.  1.
        -12    1    3    3    0    0  0.39780583758E+02 -0.13102995820E+02 -0.39024187927E+00  0.41884789988E+02  0.00000000000E+00 0.  1.
</event>
<event>
 7    1  0.3662489E-015  0.9000772E+02  0.7816164E-02  0.1186339E+00
        -11   -1    0    0    0    0  0.00000000000E+00  0.00000000000E+00  0.45593999997E+02  0.45594000000E+02  0.51100000000E-03 0.  1.
         11   -1    0    0    0    0 -0.00000000000E+00 -0.00000000000E+00 -0.45593999997E+02  0.45594000000E+02  0.51100000000E-03 0. -1.
    9900012    2    1    2    0    0  0.46073756536E+00  0.10756995052E+01  0.15376652580E+00  0.90007723476E+02  0.89999984625E+02 0.  0.
        -12    1    1    2    0    0 -0.46073756536E+00 -0.10756995052E+01 -0.15376652580E+00  0.11802765244E+01  0.00000000000E+00 0.  1.
         11    1    3    3    0    0  0.37755696948E+02 -0.10427110263E+02  0.78331454283E+01  0.39944654811E+02  0.51100000000E-03 0. -1.
        -11    1    3    3    0    0  0.22217787062E+01  0.96351655489E+01 -0.94417607565E+00  0.99329846722E+01  0.51100000000E-03 0.  1.
        -12    1    3    3    0    0 -0.39516738088E+02  0.18676442196E+01 -0.67352028268E+01  0.40130083992E+02  0.00000000000E+00 0.  1.
</event>
<event>
 7    1  0.3662489E-015  0.9000781E+02  0.7816164E-02  0.1186339E+00
        -11   -1    0    0    0    0  0.00000000000E+00  0.00000000000E+00  0.45593999997E+02  0.45594000000E+02  0.51100000000E-03 0.  1.
         11   -1    0    0    0    0 -0.00000000000E+00 -0.00000000000E+00 -0.45593999997E+02  0.45594000000E+02  0.51100000000E-03 0. -1.
    9900012    2    1    2    0    0  0.10279621836E+01 -0.34318607660E+00  0.46730583446E+00  0.90007806085E+02  0.90000068325E+02 0.  0.
        -12    1    1    2    0    0 -0.10279621836E+01  0.34318607660E+00 -0.46730583446E+00  0.11801939150E+01  0.00000000000E+00 0.  1.
         11    1    3    3    0    0  0.21093409188E+02  0.80651316586E+01 -0.16909384149E+02  0.28211797752E+02  0.51100000000E-03 0. -1.
        -11    1    3    3    0    0  0.18572961317E+02 -0.90278776208E+01  0.55580471811E+01  0.21385727838E+02  0.51100000000E-03 0.  1.
        -12    1    3    3    0    0 -0.38638408321E+02  0.61955988557E+00  0.11818642802E+02  0.40410280496E+02  0.00000000000E+00 0.  1.
</event>
<event>
 7    1  0.3662489E-015  0.9000759E+02  0.7816164E-02  0.1186339E+00
        -11   -1    0    0    0    0  0.00000000000E+00  0.00000000000E+00  0.45593999997E+02  0.45594000000E+02  0.51100000000E-03 0.  1.
         11   -1    0    0    0    0 -0.00000000000E+00 -0.00000000000E+00 -0.45593999997E+02  0.45594000000E+02  0.51100000000E-03 0. -1.
    9900012    2    1    2    0    0  0.11769182858E+01  0.24229441626E-01  0.87442514622E-01  0.90007589092E+02  0.89999848468E+02 0.  0.
        -12    1    1    2    0    0 -0.11769182858E+01 -0.24229441626E-01 -0.87442514622E-01  0.11804109076E+01  0.00000000000E+00 0.  1.
         11    1    3    3    0    0 -0.10119222781E+02  0.38382053442E+01 -0.38315154145E+01  0.11480897203E+02  0.51100000000E-03 0. -1.
        -11    1    3    3    0    0 -0.27443384702E+02  0.57664821790E+01  0.21084504270E+02  0.35084868550E+02  0.51100000000E-03 0.  1.
         12    1    3    3    0    0  0.38739525769E+02 -0.95804580816E+01 -0.17165546341E+02  0.43441823339E+02  0.00000000000E+00 0. -1.
</event>
<event>
 7    1  0.3662489E-015  0.9000796E+02  0.7816164E-02  0.1186339E+00
        -11   -1    0    0    0    0  0.00000000000E+00  0.00000000000E+00  0.45593999997E+02  0.45594000000E+02  0.51100000000E-03 0.  1.
         11   -1    0    0    0    0 -0.00000000000E+00 -0.00000000000E+00 -0.45593999997E+02  0.45594000000E+02  0.51100000000E-03 0. -1.
    9900012    2    1    2    0    0  0.96911114015E-01  0.75992283830E+00 -0.89756845808E+00  0.90007956094E+02  0.90000220314E+02 0.  0.
        -12    1    1    2    0    0 -0.96911114015E-01 -0.75992283830E+00  0.89756845808E+00  0.11800439064E+01  0.00000000000E+00 0.  1.
         11    1    3    3    0    0  0.23671559034E+02  0.11434029750E+01 -0.18138801806E+02  0.29844031375E+02  0.51100000000E-03 0. -1.
        -11    1    3    3    0    0  0.40412116694E+00 -0.98320123516E+01 -0.15583303646E+02  0.18430169115E+02  0.51100000000E-03 0.  1.
        -12    1    3    3    0    0 -0.23978769087E+02  0.94485322149E+01  0.32824536994E+02  0.41733755604E+02  0.00000000000E+00 0.  1.
</event>
<event>
 7    1  0.3662489E-015  0.9000775E+02  0.7816164E-02  0.1186339E+00
        -11   -1    0    0    0    0  0.00000000000E+00  0.00000000000E+00  0.45593999997E+02  0.45594000000E+02  0.51100000000E-03 0. -1.
         11   -1    0    0    0    0 -0.00000000000E+00 -0.00000000000E+00 -0.45593999997E+02  0.45594000000E+02  0.51100000000E-03 0.  1.
    9900012    2    1    2    0    0 -0.17630228251E+00 -0.10837691438E+01  0.43284534983E+00  0.90007748693E+02  0.90000010175E+02 0.  0.
        -12    1    1    2    0    0  0.17630228251E+00  0.10837691438E+01 -0.43284534983E+00  0.11802513075E+01  0.00000000000E+00 0.  1.
         11    1    3    3    0    0  0.35325863754E+02  0.17289715143E+02  0.11217786478E+02  0.40898528499E+02  0.51100000000E-03 0. -1.
        -11    1    3    3    0    0 -0.63084065253E+01  0.64057720898E+01  0.99662288910E+00  0.90456158662E+01  0.51100000000E-03 0.  1.
        -12    1    3    3    0    0 -0.29193759511E+02 -0.24779256377E+02 -0.11781564017E+02  0.40063604327E+02  0.00000000000E+00 0.  1.
</event>
<event>
 7    1  0.3662489E-015  0.9000776E+02  0.7816164E-02  0.1186339E+00
        -11   -1    0    0    0    0  0.00000000000E+00  0.00000000000E+00  0.45593999997E+02  0.45594000000E+02  0.51100000000E-03 0.  1.
         11   -1    0    0    0    0 -0.00000000000E+00 -0.00000000000E+00 -0.45593999997E+02  0.45594000000E+02  0.51100000000E-03 0. -1.
    9900012    2    1    2    0    0  0.77495777334E+00 -0.66658481829E+00 -0.58998084999E+00  0.90007757536E+02  0.90000019135E+02 0.  0.
        -12    1    1    2    0    0 -0.77495777334E+00  0.66658481829E+00  0.58998084999E+00  0.11802424640E+01  0.00000000000E+00 0.  1.
         11    1    3    3    0    0 -0.53870862345E+01  0.52168964456E+01 -0.64209196313E+01  0.98724321114E+01  0.51100000000E-03 0. -1.
        -11    1    3    3    0    0 -0.22433711343E+02  0.71543359236E+01  0.31659388726E+02  0.39455960537E+02  0.51100000000E-03 0.  1.
         12    1    3    3    0    0  0.28595755351E+02 -0.13037817188E+02 -0.25828449945E+02  0.40679364888E+02  0.00000000000E+00 0. -1.
</event>
<event>
 7    1  0.3662489E-015  0.9000791E+02  0.7816164E-02  0.1186339E+00
        -11   -1    0    0    0    0  0.00000000000E+00  0.00000000000E+00  0.45593999997E+02  0.45594000000E+02  0.51100000000E-03 0.  1.
         11   -1    0    0    0    0 -0.00000000000E+00 -0.00000000000E+00 -0.45593999997E+02  0.45594000000E+02  0.51100000000E-03 0. -1.
    9900012    2    1    2    0    0 -0.77540994644E+00  0.80612968281E+00  0.37616484752E+00  0.90007912866E+02  0.90000176516E+02 0.  0.
        -12    1    1    2    0    0  0.77540994644E+00 -0.80612968281E+00 -0.37616484752E+00  0.11800871337E+01  0.00000000000E+00 0.  1.
         11    1    3    3    0    0 -0.73127248737E+01 -0.72103204508E+01  0.98701657833E+00  0.10316921443E+02  0.51100000000E-03 0. -1.
        -11    1    3    3    0    0 -0.97964858296E+01 -0.32773936618E+02  0.74752007072E+01  0.35014006939E+02  0.51100000000E-03 0.  1.
         12    1    3    3    0    0  0.16333800757E+02  0.40790386752E+02 -0.80860524380E+01  0.44676984484E+02  0.00000000000E+00 0. -1.
</event>
<event>
 7    1  0.3662489E-015  0.9000782E+02  0.7816164E-02  0.1186339E+00
        -11   -1    0    0    0    0  0.00000000000E+00  0.00000000000E+00  0.45593999997E+02  0.45594000000E+02  0.51100000000E-03 0. -1.
         11   -1    0    0    0    0 -0.00000000000E+00 -0.00000000000E+00 -0.45593999997E+02  0.45594000000E+02  0.51100000000E-03 0.  1.
    9900012    2    1    2    0    0  0.33592129474E+00 -0.44417975755E+00  0.10405227514E+01  0.90007819349E+02  0.90000081764E+02 0.  0.
        -12    1    1    2    0    0 -0.33592129474E+00  0.44417975755E+00 -0.10405227514E+01  0.11801806512E+01  0.00000000000E+00 0.  1.
         11    1    3    3    0    0  0.41144968501E+02  0.39944118434E+01 -0.64868011949E+01  0.41844263034E+02  0.51100000000E-03 0. -1.
        -11    1    3    3    0    0 -0.75072086796E+01 -0.92174751388E+01  0.83219395047E+01  0.14511192490E+02  0.51100000000E-03 0.  1.
        -12    1    3    3    0    0 -0.33301838526E+02  0.47788835378E+01 -0.79461555839E+00  0.33652363825E+02  0.00000000000E+00 0.  1.
</event>
<event>
 7    1  0.3662489E-015  0.9000767E+02  0.7816164E-02  0.1186339E+00
        -11   -1    0    0    0    0  0.00000000000E+00  0.00000000000E+00  0.45593999997E+02  0.45594000000E+02  0.51100000000E-03 0. -1.
         11   -1    0    0    0    0 -0.00000000000E+00 -0.00000000000E+00 -0.45593999997E+02  0.45594000000E+02  0.51100000000E-03 0.  1.
    9900012    2    1    2    0    0 -0.44907422692E-01  0.11750322425E+01  0.10230268039E+00  0.90007668146E+02  0.89999928565E+02 0.  0.
        -12    1    1    2    0    0  0.44907422692E-01 -0.11750322425E+01 -0.10230268039E+00  0.11803318541E+01  0.00000000000E+00 0.  1.
         11    1    3    3    0    0  0.32635746790E+01  0.72549112415E+01 -0.78399682664E+01  0.11169143185E+02  0.51100000000E-03 0. -1.
        -11    1    3    3    0    0 -0.17644695405E+02  0.15433008690E+02 -0.26753435195E+02  0.35570483946E+02  0.51100000000E-03 0.  1.
         12    1    3    3    0    0  0.14336213304E+02 -0.21512887689E+02  0.34695706142E+02  0.43268041015E+02  0.00000000000E+00 0. -1.
</event>
<event>
 7    1  0.3662489E-015  0.9000771E+02  0.7816164E-02  0.1186339E+00
        -11   -1    0    0    0    0  0.00000000000E+00  0.00000000000E+00  0.45593999997E+02  0.45594000000E+02  0.51100000000E-03 0.  1.
         11   -1    0    0    0    0 -0.00000000000E+00 -0.00000000000E+00 -0.45593999997E+02  0.45594000000E+02  0.51100000000E-03 0. -1.
    9900012    2    1    2    0    0  0.52982809095E-01 -0.90403431609E+00 -0.75696558504E+00  0.90007711002E+02  0.89999971987E+02 0.  0.
        -12    1    1    2    0    0 -0.52982809095E-01  0.90403431609E+00  0.75696558504E+00  0.11802889984E+01  0.00000000000E+00 0.  1.
         11    1    3    3    0    0  0.19870973482E+02  0.28388207137E+02 -0.35777498958E+01  0.34835989812E+02  0.51100000000E-03 0. -1.
        -11    1    3    3    0    0 -0.54770878234E+01  0.11012834439E+02  0.18285860976E-01  0.12299648290E+02  0.51100000000E-03 0.  1.
        -12    1    3    3    0    0 -0.14340902850E+02 -0.40305075892E+02  0.28024984498E+01  0.42872072901E+02  0.00000000000E+00 0.  1.
</event>
<event>
 7    1  0.3662489E-015  0.9000772E+02  0.7816164E-02  0.1186339E+00
        -11   -1    0    0    0    0  0.00000000000E+00  0.00000000000E+00  0.45593999997E+02  0.45594000000E+02  0.51100000000E-03 0.  1.
         11   -1    0    0    0    0 -0.00000000000E+00 -0.00000000000E+00 -0.45593999997E+02  0.45594000000E+02  0.51100000000E-03 0. -1.
    9900012    2    1    2    0    0 -0.10560084259E+01 -0.51784163826E+00 -0.98734779639E-01  0.90007719392E+02  0.89999980488E+02 0.  0.
        -12    1    1    2    0    0  0.10560084259E+01  0.51784163826E+00  0.98734779639E-01  0.11802806084E+01  0.00000000000E+00 0.  1.
         11    1    3    3    0    0  0.11420967574E+02  0.44456244251E+01 -0.35161130501E+02  0.37235831873E+02  0.51100000000E-03 0. -1.
        -11    1    3    3    0    0  0.89937401587E-01 -0.16637265464E+00 -0.78235717575E+01  0.78258573909E+01  0.51100000000E-03 0.  1.
        -12    1    3    3    0    0 -0.12566913402E+02 -0.47970934088E+01  0.42885967479E+02  0.44946030128E+02  0.00000000000E+00 0.  1.
</event>
<event>
 7    1  0.3662489E-015  0.9000777E+02  0.7816164E-02  0.1186339E+00
        -11   -1    0    0    0    0  0.00000000000E+00  0.00000000000E+00  0.45593999997E+02  0.45594000000E+02  0.51100000000E-03 0.  1.
         11   -1    0    0    0    0 -0.00000000000E+00 -0.00000000000E+00 -0.45593999997E+02  0.45594000000E+02  0.51100000000E-03 0. -1.
    9900012    2    1    2    0    0 -0.92659491215E+00 -0.38107581633E+00 -0.62380783065E+00  0.90007774124E+02  0.90000035942E+02 0.  0.
        -12    1    1    2    0    0  0.92659491215E+00  0.38107581633E+00  0.62380783065E+00  0.11802258761E+01  0.00000000000E+00 0.  1.
         11    1    3    3    0    0  0.28204382161E+02 -0.19079556358E+02 -0.10347032396E+02  0.35589011275E+02  0.51100000000E-03 0. -1.
        -11    1    3    3    0    0  0.83363670548E+01 -0.21615583402E+01  0.75957019544E+01  0.11483119723E+02  0.51100000000E-03 0.  1.
        -12    1    3    3    0    0 -0.37467344128E+02  0.20860038882E+02  0.21275226108E+01  0.42935643126E+02  0.00000000000E+00 0.  1.
</event>
<event>
 7    1  0.3662489E-015  0.9000761E+02  0.7816164E-02  0.1186339E+00
        -11   -1    0    0    0    0  0.00000000000E+00  0.00000000000E+00  0.45593999997E+02  0.45594000000E+02  0.51100000000E-03 0. -1.
         11   -1    0    0    0    0 -0.00000000000E+00 -0.00000000000E+00 -0.45593999997E+02  0.45594000000E+02  0.51100000000E-03 0.  1.
    9900012    2    1    2    0    0 -0.87198826408E+00 -0.43655915246E-01  0.79438150482E+00  0.90007613899E+02  0.89999873603E+02 0.  0.
        -12    1    1    2    0    0  0.87198826408E+00  0.43655915246E-01 -0.79438150482E+00  0.11803861007E+01  0.00000000000E+00 0.  1.
         11    1    3    3    0    0  0.77233391400E+01 -0.26255682650E+02 -0.30170176224E+01  0.27533856150E+02  0.51100000000E-03 0. -1.
        -11    1    3    3    0    0 -0.25427439775E+02  0.61487972366E+01  0.18877755128E+02  0.32260378793E+02  0.51100000000E-03 0.  1.
        -12    1    3    3    0    0  0.16832112371E+02  0.20063229499E+02 -0.15066356001E+02  0.30213378956E+02  0.00000000000E+00 0.  1.
</event>
<event>
 7    1  0.3662489E-015  0.9000769E+02  0.7816164E-02  0.1186339E+00
        -11   -1    0    0    0    0  0.00000000000E+00  0.00000000000E+00  0.45593999997E+02  0.45594000000E+02  0.51100000000E-03 0. -1.
         11   -1    0    0    0    0 -0.00000000000E+00 -0.00000000000E+00 -0.45593999997E+02  0.45594000000E+02  0.51100000000E-03 0.  1.
    9900012    2    1    2    0    0 -0.73833405532E+00 -0.49726176905E+00 -0.77506227937E+00  0.90007691574E+02  0.89999952302E+02 0.  0.
        -12    1    1    2    0    0  0.73833405532E+00  0.49726176905E+00  0.77506227937E+00  0.11803084263E+01  0.00000000000E+00 0.  1.
         11    1    3    3    0    0 -0.28553673272E+02  0.18903561876E+02  0.95416635314E+01  0.35548561886E+02  0.51100000000E-03 0. -1.
        -11    1    3    3    0    0 -0.71050461089E+01  0.28530605202E+01  0.62260612339E+01  0.98684078397E+01  0.51100000000E-03 0.  1.
        -12    1    3    3    0    0  0.34920385326E+02 -0.22253884165E+02 -0.16542787045E+02  0.44590721848E+02  0.00000000000E+00 0.  1.
</event>
<event>
 7    1  0.3662489E-015  0.9000774E+02  0.7816164E-02  0.1186339E+00
        -11   -1    0    0    0    0  0.00000000000E+00  0.00000000000E+00  0.45593999997E+02  0.45594000000E+02  0.51100000000E-03 0. -1.
         11   -1    0    0    0    0 -0.00000000000E+00 -0.00000000000E+00 -0.45593999997E+02  0.45594000000E+02  0.51100000000E-03 0.  1.
    9900012    2    1    2    0    0  0.23318916635E+00 -0.11477565361E+01  0.14590731448E+00  0.90007741046E+02  0.90000002428E+02 0.  0.
        -12    1    1    2    0    0 -0.23318916635E+00  0.11477565361E+01 -0.14590731448E+00  0.11802589537E+01  0.00000000000E+00 0.  1.
         11    1    3    3    0    0  0.44917947075E+01 -0.81764639353E+00 -0.80482992967E+01  0.92531014882E+01  0.51100000000E-03 0. -1.
        -11    1    3    3    0    0 -0.21246899291E+02  0.33365876799E+02 -0.68221800291E+01  0.40140436030E+02  0.51100000000E-03 0.  1.
         12    1    3    3    0    0  0.16988293750E+02 -0.33695986942E+02  0.15016386640E+02  0.40614203528E+02  0.00000000000E+00 0. -1.
</event>
<event>
 7    1  0.3662489E-015  0.9000772E+02  0.7816164E-02  0.1186339E+00
        -11   -1    0    0    0    0  0.00000000000E+00  0.00000000000E+00  0.45593999997E+02  0.45594000000E+02  0.51100000000E-03 0.  1.
         11   -1    0    0    0    0 -0.00000000000E+00 -0.00000000000E+00 -0.45593999997E+02  0.45594000000E+02  0.51100000000E-03 0. -1.
    9900012    2    1    2    0    0 -0.86628246827E+00 -0.79175073190E+00  0.12552383038E+00  0.90007715810E+02  0.89999976859E+02 0.  0.
        -12    1    1    2    0    0  0.86628246827E+00  0.79175073190E+00 -0.12552383038E+00  0.11802841896E+01  0.00000000000E+00 0.  1.
         11    1    3    3    0    0 -0.13410222106E+02 -0.58094702281E+01 -0.31156041074E+02  0.34413411585E+02  0.51100000000E-03 0. -1.
        -11    1    3    3    0    0 -0.12080475753E+01 -0.60277959334E+01 -0.94123366402E+01  0.11242143214E+02  0.51100000000E-03 0.  1.
        -12    1    3    3    0    0  0.13751987213E+02  0.11045515430E+02  0.40693901545E+02  0.44352161011E+02  0.00000000000E+00 0.  1.
</event>
<event>
 7    1  0.3662489E-015  0.9000782E+02  0.7816164E-02  0.1186339E+00
        -11   -1    0    0    0    0  0.00000000000E+00  0.00000000000E+00  0.45593999997E+02  0.45594000000E+02  0.51100000000E-03 0. -1.
         11   -1    0    0    0    0 -0.00000000000E+00 -0.00000000000E+00 -0.45593999997E+02  0.45594000000E+02  0.51100000000E-03 0.  1.
    9900012    2    1    2    0    0  0.72771854260E+00  0.90966103465E+00 -0.18911289758E+00  0.90007821554E+02  0.90000083999E+02 0.  0.
        -12    1    1    2    0    0 -0.72771854260E+00 -0.90966103465E+00  0.18911289758E+00  0.11801784455E+01  0.00000000000E+00 0.  1.
         11    1    3    3    0    0  0.82608603419E+01 -0.47322035968E+01 -0.33313354749E+00  0.95260979783E+01  0.51100000000E-03 0. -1.
        -11    1    3    3    0    0 -0.88350912685E+01  0.39651433577E+02  0.15055560914E+02  0.43323953388E+02  0.51100000000E-03 0.  1.
         12    1    3    3    0    0  0.13019494693E+01 -0.34009568946E+02 -0.14911540264E+02  0.37157770188E+02  0.00000000000E+00 0. -1.
</event>
<event>
 7    1  0.3997147E-015  0.9000776E+02  0.7816164E-02  0.1186339E+00
        -11   -1    0    0    0    0  0.00000000000E+00  0.00000000000E+00  0.45593999997E+02  0.45594000000E+02  0.51100000000E-03 0. -1.
         11   -1    0    0    0    0 -0.00000000000E+00 -0.00000000000E+00 -0.45593999997E+02  0.45594000000E+02  0.51100000000E-03 0.  1.
    9900012    2    1    2    0    0  0.49514444725E+00  0.64604400775E+00  0.85465600322E+00  0.90007755209E+02  0.90000016777E+02 0.  0.
        -12    1    1    2    0    0 -0.49514444725E+00 -0.64604400775E+00 -0.85465600322E+00  0.11802447913E+01  0.00000000000E+00 0.  1.
         11    1    3    3    0    0  0.51303124203E+01 -0.26938948150E+01 -0.70418008944E+01  0.91194372031E+01  0.51100000000E-03 0. -1.
        -11    1    3    3    0    0  0.30978249112E+02 -0.19704697673E+02 -0.37347519287E+01  0.36903596039E+02  0.51100000000E-03 0.  1.
         12    1    3    3    0    0 -0.35613417085E+02  0.23044636496E+02  0.11631208826E+02  0.43984721966E+02  0.00000000000E+00 0. -1.
</event>
<event>
 7    1  0.3662489E-015  0.9000755E+02  0.7816164E-02  0.1186339E+00
        -11   -1    0    0    0    0  0.00000000000E+00  0.00000000000E+00  0.45593999997E+02  0.45594000000E+02  0.51100000000E-03 0.  1.
         11   -1    0    0    0    0 -0.00000000000E+00 -0.00000000000E+00 -0.45593999997E+02  0.45594000000E+02  0.51100000000E-03 0. -1.
    9900012    2    1    2    0    0 -0.93206076461E-02  0.90253179528E-01 -0.11769531192E+01  0.90007554679E+02  0.89999813601E+02 0.  0.
        -12    1    1    2    0    0  0.93206076461E-02 -0.90253179528E-01  0.11769531192E+01  0.11804453206E+01  0.00000000000E+00 0.  1.
         11    1    3    3    0    0  0.57860769168E+01  0.12186644183E+02 -0.35057155210E+02  0.37563241529E+02  0.51100000000E-03 0. -1.
        -11    1    3    3    0    0 -0.65461793242E+01  0.49347088843E+01 -0.52685519882E+01  0.97448168700E+01  0.51100000000E-03 0.  1.
        -12    1    3    3    0    0  0.75078179982E+00 -0.17031099887E+02  0.39148754079E+02  0.42699496280E+02  0.00000000000E+00 0.  1.
</event>
<event>
 7    1  0.3662489E-015  0.9000772E+02  0.7816164E-02  0.1186339E+00
        -11   -1    0    0    0    0  0.00000000000E+00  0.00000000000E+00  0.45593999997E+02  0.45594000000E+02  0.51100000000E-03 0.  1.
         11   -1    0    0    0    0 -0.00000000000E+00 -0.00000000000E+00 -0.45593999997E+02  0.45594000000E+02  0.51100000000E-03 0. -1.
    9900012    2    1    2    0    0 -0.10905369135E+01 -0.94985401624E-01 -0.44131717785E+00  0.90007722983E+02  0.89999984126E+02 0.  0.
        -12    1    1    2    0    0  0.10905369135E+01  0.94985401624E-01  0.44131717785E+00  0.11802770173E+01  0.00000000000E+00 0.  1.
         11    1    3    3    0    0 -0.33826953047E+02  0.58951482458E+00 -0.97462837831E+01  0.35207958305E+02  0.51100000000E-03 0. -1.
        -11    1    3    3    0    0 -0.10000116730E+02  0.38427675805E+01  0.42601785923E+01  0.11529020738E+02  0.51100000000E-03 0.  1.
        -12    1    3    3    0    0  0.42736532863E+02 -0.45272678067E+01  0.50447880129E+01  0.43270743939E+02  0.00000000000E+00 0.  1.
</event>
<event>
 7    1  0.3662489E-015  0.9000761E+02  0.7816164E-02  0.1186339E+00
        -11   -1    0    0    0    0  0.00000000000E+00  0.00000000000E+00  0.45593999997E+02  0.45594000000E+02  0.51100000000E-03 0.  1.
         11   -1    0    0    0    0 -0.00000000000E+00 -0.00000000000E+00 -0.45593999997E+02  0.45594000000E+02  0.51100000000E-03 0. -1.
    9900012    2    1    2    0    0  0.54696736838E+00 -0.46623333743E+00 -0.93636577460E+00  0.90007606976E+02  0.89999866588E+02 0.  0.
        -12    1    1    2    0    0 -0.54696736838E+00  0.46623333743E+00  0.93636577460E+00  0.11803930239E+01  0.00000000000E+00 0.  1.
         11    1    3    3    0    0 -0.27880716222E+02 -0.17450954367E+02 -0.25602024236E+02  0.41681336239E+02  0.51100000000E-03 0. -1.
        -11    1    3    3    0    0 -0.34177680574E+01  0.67098820850E+01  0.16378000415E+01  0.77062341858E+01  0.51100000000E-03 0.  1.
        -12    1    3    3    0    0  0.31845451648E+02  0.10274838945E+02  0.23027858420E+02  0.40620036551E+02  0.00000000000E+00 0.  1.
</event>
<event>
 7    1  0.6496454E-015  0.9000774E+02  0.7816164E-02  0.1186339E+00
        -11   -1    0    0    0    0  0.00000000000E+00  0.00000000000E+00  0.45593999997E+02  0.45594000000E+02  0.51100000000E-03 0. -1.
         11   -1    0    0    0    0 -0.00000000000E+00 -0.00000000000E+00 -0.45593999997E+02  0.45594000000E+02  0.51100000000E-03 0.  1.
    9900012    2    1    2    0    0  0.54260402519E+00  0.14488552991E+00  0.10380820781E+01  0.90007735053E+02  0.89999996355E+02 0.  0.
        -12    1    1    2    0    0 -0.54260402519E+00 -0.14488552991E+00 -0.10380820781E+01  0.11802649473E+01  0.00000000000E+00 0.  1.
         11    1    3    3    0    0 -0.50587541430E+01 -0.68522962152E+01  0.47274407423E+01  0.97413373380E+01  0.51100000000E-03 0. -1.
        -11    1    3    3    0    0  0.20115617887E+02 -0.16136314407E+02 -0.31888320879E+02  0.41010775832E+02  0.51100000000E-03 0.  1.
         12    1    3    3    0    0 -0.14514259719E+02  0.23133496152E+02  0.28198962215E+02  0.39255621883E+02  0.00000000000E+00 0. -1.
</event>
<event>
 7    1  0.3662489E-015  0.9000869E+02  0.7816164E-02  0.1186337E+00
        -11   -1    0    0    0    0  0.00000000000E+00  0.00000000000E+00  0.45593999997E+02  0.45594000000E+02  0.51100000000E-03 0. -1.
         11   -1    0    0    0    0 -0.00000000000E+00 -0.00000000000E+00 -0.45593999997E+02  0.45594000000E+02  0.51100000000E-03 0.  1.
    9900012    2    1    2    0    0  0.69376916322E+00 -0.55248475613E+00  0.77731989731E+00  0.90008686098E+02  0.90000959949E+02 0.  0.
        -12    1    1    2    0    0 -0.69376916322E+00  0.55248475613E+00 -0.77731989731E+00  0.11793139024E+01  0.00000000000E+00 0.  1.
         11    1    3    3    0    0 -0.19427629159E+01 -0.57121525287E+01 -0.86360267270E+01  0.10534893077E+02  0.51100000000E-03 0. -1.
        -11    1    3    3    0    0 -0.28065099173E+02 -0.14292890684E+02 -0.15803065996E+02  0.35237386549E+02  0.51100000000E-03 0.  1.
         12    1    3    3    0    0  0.30701631252E+02  0.19452558457E+02  0.25216412620E+02  0.44236406471E+02  0.00000000000E+00 0. -1.
</event>
<event>
 7    1  0.3662489E-015  0.9000785E+02  0.7816164E-02  0.1186339E+00
        -11   -1    0    0    0    0  0.00000000000E+00  0.00000000000E+00  0.45593999997E+02  0.45594000000E+02  0.51100000000E-03 0.  1.
         11   -1    0    0    0    0 -0.00000000000E+00 -0.00000000000E+00 -0.45593999997E+02  0.45594000000E+02  0.51100000000E-03 0. -1.
    9900012    2    1    2    0    0  0.83537741945E+00  0.51395335818E+00 -0.65631684755E+00  0.90007849462E+02  0.90000112275E+02 0.  0.
        -12    1    1    2    0    0 -0.83537741945E+00 -0.51395335818E+00  0.65631684755E+00  0.11801505377E+01  0.00000000000E+00 0.  1.
         11    1    3    3    0    0  0.11268044175E+00  0.52801597999E+00 -0.36828426386E+02  0.36832383688E+02  0.51100000000E-03 0. -1.
        -11    1    3    3    0    0 -0.85228494651E+01 -0.64761548617E+00 -0.57107216704E+01  0.10279626019E+02  0.51100000000E-03 0.  1.
        -12    1    3    3    0    0  0.92455464428E+01  0.63355286437E+00  0.41882831209E+02  0.42895839756E+02  0.00000000000E+00 0.  1.
</event>
<event>
 7    1  0.3662489E-015  0.9000654E+02  0.7816164E-02  0.1186341E+00
        -11   -1    0    0    0    0  0.00000000000E+00  0.00000000000E+00  0.45593999997E+02  0.45594000000E+02  0.51100000000E-03 0. -1.
         11   -1    0    0    0    0 -0.00000000000E+00 -0.00000000000E+00 -0.45593999997E+02  0.45594000000E+02  0.51100000000E-03 0.  1.
    9900012    2    1    2    0    0  0.50872550122E+00  0.96832660854E+00  0.44654115979E+00  0.90006536051E+02  0.89998781518E+02 0.  0.
        -12    1    1    2    0    0 -0.50872550122E+00 -0.96832660854E+00 -0.44654115979E+00  0.11814639494E+01  0.00000000000E+00 0.  1.
         11    1    3    3    0    0  0.39391650778E+01  0.88005235990E+01 -0.10426055618E+01  0.96981061937E+01  0.51100000000E-03 0. -1.
        -11    1    3    3    0    0 -0.14786776591E+00  0.35423226014E+02 -0.69928908532E+01  0.36107164509E+02  0.51100000000E-03 0.  1.
         12    1    3    3    0    0 -0.32825718106E+01 -0.43255423004E+02  0.84820375748E+01  0.44201265348E+02  0.00000000000E+00 0. -1.
</event>
<event>
 7    1  0.3662489E-015  0.9000778E+02  0.7816164E-02  0.1186339E+00
        -11   -1    0    0    0    0  0.00000000000E+00  0.00000000000E+00  0.45593999997E+02  0.45594000000E+02  0.51100000000E-03 0.  1.
         11   -1    0    0    0    0 -0.00000000000E+00 -0.00000000000E+00 -0.45593999997E+02  0.45594000000E+02  0.51100000000E-03 0. -1.
    9900012    2    1    2    0    0 -0.55519166667E+00  0.71825732344E+00 -0.75418788740E+00  0.90007775132E+02  0.90000036964E+02 0.  0.
        -12    1    1    2    0    0  0.55519166667E+00 -0.71825732344E+00  0.75418788740E+00  0.11802248679E+01  0.00000000000E+00 0.  1.
         11    1    3    3    0    0  0.22962496397E+02  0.12432604375E+02 -0.28133988284E+02  0.38384465470E+02  0.51100000000E-03 0. -1.
        -11    1    3    3    0    0  0.50509680902E+01 -0.75501287533E+01 -0.31405113777E+01  0.96114273037E+01  0.51100000000E-03 0.  1.
        -12    1    3    3    0    0 -0.28568656154E+02 -0.41642182988E+01  0.30520311775E+02  0.42011882359E+02  0.00000000000E+00 0.  1.
</event>
<event>
 7    1  0.3662489E-015  0.9000784E+02  0.7816164E-02  0.1186339E+00
        -11   -1    0    0    0    0  0.00000000000E+00  0.00000000000E+00  0.45593999997E+02  0.45594000000E+02  0.51100000000E-03 0.  1.
         11   -1    0    0    0    0 -0.00000000000E+00 -0.00000000000E+00 -0.45593999997E+02  0.45594000000E+02  0.51100000000E-03 0. -1.
    9900012    2    1    2    0    0  0.44120632993E+00 -0.44584162448E+00 -0.99966881221E+00  0.90007840895E+02  0.90000103594E+02 0.  0.
        -12    1    1    2    0    0 -0.44120632993E+00  0.44584162448E+00  0.99966881221E+00  0.11801591053E+01  0.00000000000E+00 0.  1.
         11    1    3    3    0    0 -0.18121506284E+02  0.30565546103E+02 -0.62409651132E+01  0.36077572595E+02  0.51100000000E-03 0. -1.
        -11    1    3    3    0    0  0.27509606316E+01 -0.16920015481E+02 -0.16347187167E+02  0.23687237846E+02  0.51100000000E-03 0.  1.
        -12    1    3    3    0    0  0.15811751982E+02 -0.14091372247E+02  0.21588483468E+02  0.30243030453E+02  0.00000000000E+00 0.  1.
</event>
<event>
 7    1  0.3662489E-015  0.9000779E+02  0.7816164E-02  0.1186339E+00
        -11   -1    0    0    0    0  0.00000000000E+00  0.00000000000E+00  0.45593999997E+02  0.45594000000E+02  0.51100000000E-03 0.  1.
         11   -1    0    0    0    0 -0.00000000000E+00 -0.00000000000E+00 -0.45593999997E+02  0.45594000000E+02  0.51100000000E-03 0. -1.
    9900012    2    1    2    0    0 -0.71686996547E+00 -0.48620409188E+00 -0.80162418263E+00  0.90007788876E+02  0.90000050889E+02 0.  0.
        -12    1    1    2    0    0  0.71686996547E+00  0.48620409188E+00  0.80162418263E+00  0.11802111237E+01  0.00000000000E+00 0.  1.
         11    1    3    3    0    0  0.82476943718E+01  0.28747939514E+01 -0.29956069691E+00  0.87394873755E+01  0.51100000000E-03 0. -1.
        -11    1    3    3    0    0 -0.29026148335E+02  0.24112490586E+02  0.18796175993E+02  0.42157155047E+02  0.51100000000E-03 0.  1.
         12    1    3    3    0    0  0.20061583997E+02 -0.27473488629E+02 -0.19298239479E+02  0.39111146454E+02  0.00000000000E+00 0. -1.
</event>
<event>
 7    1  0.3662489E-015  0.9000776E+02  0.7816164E-02  0.1186339E+00
        -11   -1    0    0    0    0  0.00000000000E+00  0.00000000000E+00  0.45593999997E+02  0.45594000000E+02  0.51100000000E-03 0. -1.
         11   -1    0    0    0    0 -0.00000000000E+00 -0.00000000000E+00 -0.45593999997E+02  0.45594000000E+02  0.51100000000E-03 0.  1.
    9900012    2    1    2    0    0  0.63522095468E+00  0.12201133000E+00  0.98720210977E+00  0.90007762553E+02  0.90000024219E+02 0.  0.
        -12    1    1    2    0    0 -0.63522095468E+00 -0.12201133000E+00 -0.98720210977E+00  0.11802374471E+01  0.00000000000E+00 0.  1.
         11    1    3    3    0    0  0.51948901665E+01  0.42210485854E+01 -0.96628707955E+00  0.67629761189E+01  0.51100000000E-03 0. -1.
        -11    1    3    3    0    0  0.13152227976E+02  0.58786862645E+01 -0.36779950627E+02  0.39500693934E+02  0.51100000000E-03 0.  1.
         12    1    3    3    0    0 -0.17711897188E+02 -0.99777235199E+01  0.38733439816E+02  0.43744092500E+02  0.00000000000E+00 0. -1.
</event>
<event>
 7    1  0.3662489E-015  0.9000773E+02  0.7816164E-02  0.1186339E+00
        -11   -1    0    0    0    0  0.00000000000E+00  0.00000000000E+00  0.45593999997E+02  0.45594000000E+02  0.51100000000E-03 0.  1.
         11   -1    0    0    0    0 -0.00000000000E+00 -0.00000000000E+00 -0.45593999997E+02  0.45594000000E+02  0.51100000000E-03 0. -1.
    9900012    2    1    2    0    0 -0.29688433891E+00 -0.35255582700E+00 -0.10865542681E+01  0.90007730497E+02  0.89999991740E+02 0.  0.
        -12    1    1    2    0    0  0.29688433891E+00  0.35255582700E+00  0.10865542681E+01  0.11802695028E+01  0.00000000000E+00 0.  1.
         11    1    3    3    0    0  0.31819997501E+01  0.43002000359E+01  0.83036667790E+01  0.98776376223E+01  0.51100000000E-03 0. -1.
        -11    1    3    3    0    0 -0.28456374945E+02  0.11778776533E+02  0.21174094797E+02  0.37374418288E+02  0.51100000000E-03 0.  1.
         12    1    3    3    0    0  0.24977490856E+02 -0.16431532396E+02 -0.30564315844E+02  0.42755674587E+02  0.00000000000E+00 0. -1.
</event>
<event>
 7    1  0.3662489E-015  0.9000778E+02  0.7816164E-02  0.1186339E+00
        -11   -1    0    0    0    0  0.00000000000E+00  0.00000000000E+00  0.45593999997E+02  0.45594000000E+02  0.51100000000E-03 0.  1.
         11   -1    0    0    0    0 -0.00000000000E+00 -0.00000000000E+00 -0.45593999997E+02  0.45594000000E+02  0.51100000000E-03 0. -1.
    9900012    2    1    2    0    0 -0.10917480782E+01  0.28032248259E-01 -0.44745747838E+00  0.90007780585E+02  0.90000042488E+02 0.  0.
        -12    1    1    2    0    0  0.10917480782E+01 -0.28032248259E-01  0.44745747838E+00  0.11802194153E+01  0.00000000000E+00 0.  1.
         11    1    3    3    0    0 -0.54540901198E+01  0.71270351301E+00 -0.93119223788E+01  0.10815125703E+02  0.51100000000E-03 0. -1.
        -11    1    3    3    0    0 -0.21140835772E+01  0.35910421253E+02  0.18985666210E+02  0.40675339281E+02  0.51100000000E-03 0.  1.
         12    1    3    3    0    0  0.64764256188E+01 -0.36595092517E+02 -0.10121201309E+02  0.38517315601E+02  0.00000000000E+00 0. -1.
</event>
<event>
 7    1  0.3662489E-015  0.9000778E+02  0.7816164E-02  0.1186339E+00
        -11   -1    0    0    0    0  0.00000000000E+00  0.00000000000E+00  0.45593999997E+02  0.45594000000E+02  0.51100000000E-03 0. -1.
         11   -1    0    0    0    0 -0.00000000000E+00 -0.00000000000E+00 -0.45593999997E+02  0.45594000000E+02  0.51100000000E-03 0.  1.
    9900012    2    1    2    0    0 -0.17070505205E+00 -0.54620827347E+00  0.10321939539E+01  0.90007784744E+02  0.90000046702E+02 0.  0.
        -12    1    1    2    0    0  0.17070505205E+00  0.54620827347E+00 -0.10321939539E+01  0.11802152564E+01  0.00000000000E+00 0.  1.
         11    1    3    3    0    0 -0.28970916799E+02  0.26340209459E+02 -0.17064102315E+01  0.39192250390E+02  0.51100000000E-03 0. -1.
        -11    1    3    3    0    0  0.33709646032E+01  0.73484655630E+01  0.49298815481E-01  0.80849105821E+01  0.51100000000E-03 0.  1.
        -12    1    3    3    0    0  0.25429247144E+02 -0.34234883295E+02  0.26893053699E+01  0.42730623772E+02  0.00000000000E+00 0.  1.
</event>
<event>
 7    1  0.3662489E-015  0.9000772E+02  0.7816164E-02  0.1186339E+00
        -11   -1    0    0    0    0  0.00000000000E+00  0.00000000000E+00  0.45593999997E+02  0.45594000000E+02  0.51100000000E-03 0. -1.
         11   -1    0    0    0    0 -0.00000000000E+00 -0.00000000000E+00 -0.45593999997E+02  0.45594000000E+02  0.51100000000E-03 0.  1.
    9900012    2    1    2    0    0 -0.93265960310E+00  0.67262136774E+00 -0.26604548548E+00  0.90007723066E+02  0.89999984211E+02 0.  0.
        -12    1    1    2    0    0  0.93265960310E+00 -0.67262136774E+00  0.26604548548E+00  0.11802769336E+01  0.00000000000E+00 0.  1.
         11    1    3    3    0    0 -0.12779557331E+02  0.37669865944E+01 -0.41443201680E+01  0.13952872947E+02  0.51100000000E-03 0. -1.
        -11    1    3    3    0    0 -0.39133443357E+01 -0.34990436633E+02 -0.11859269542E+02  0.37152216542E+02  0.51100000000E-03 0.  1.
         12    1    3    3    0    0  0.15760242063E+02  0.31896071406E+02  0.15737544225E+02  0.38902633577E+02  0.00000000000E+00 0. -1.
</event>
<event>
 7    1  0.3662489E-015  0.9000776E+02  0.7816164E-02  0.1186339E+00
        -11   -1    0    0    0    0  0.00000000000E+00  0.00000000000E+00  0.45593999997E+02  0.45594000000E+02  0.51100000000E-03 0.  1.
         11   -1    0    0    0    0 -0.00000000000E+00 -0.00000000000E+00 -0.45593999997E+02  0.45594000000E+02  0.51100000000E-03 0. -1.
    9900012    2    1    2    0    0 -0.25432370300E+00  0.48509974863E+00 -0.10454491873E+01  0.90007760060E+02  0.90000021693E+02 0.  0.
        -12    1    1    2    0    0  0.25432370300E+00 -0.48509974863E+00  0.10454491873E+01  0.11802399397E+01  0.00000000000E+00 0.  1.
         11    1    3    3    0    0  0.19405719774E+01  0.15831611627E+02 -0.18468866347E+01  0.16056672657E+02  0.51100000000E-03 0. -1.
        -11    1    3    3    0    0 -0.36411921654E+02 -0.31346146149E-01  0.17084896921E+01  0.36451995259E+02  0.51100000000E-03 0.  1.
         12    1    3    3    0    0  0.34217025973E+02 -0.15315165732E+02 -0.90705224474E+00  0.37499092144E+02  0.00000000000E+00 0. -1.
</event>
<event>
 7    1  0.3662489E-015  0.9000771E+02  0.7816164E-02  0.1186339E+00
        -11   -1    0    0    0    0  0.00000000000E+00  0.00000000000E+00  0.45593999997E+02  0.45594000000E+02  0.51100000000E-03 0. -1.
         11   -1    0    0    0    0 -0.00000000000E+00 -0.00000000000E+00 -0.45593999997E+02  0.45594000000E+02  0.51100000000E-03 0.  1.
    9900012    2    1    2    0    0 -0.41936062032E+00 -0.93235192481E+00  0.58986188768E+00  0.90007711693E+02  0.89999972687E+02 0.  0.
        -12    1    1    2    0    0  0.41936062032E+00  0.93235192481E+00 -0.58986188768E+00  0.11802883072E+01  0.00000000000E+00 0.  1.
         11    1    3    3    0    0  0.26672393335E+02 -0.21654276700E+02  0.27970528435E+01  0.34469519441E+02  0.51100000000E-03 0. -1.
        -11    1    3    3    0    0  0.83799706398E+01 -0.66248709297E+01 -0.10500621330E+01  0.10733846165E+02  0.51100000000E-03 0.  1.
        -12    1    3    3    0    0 -0.35471724595E+02  0.27346795705E+02 -0.11571288228E+01  0.44804346086E+02  0.00000000000E+00 0.  1.
</event>
<event>
 7    1  0.3662489E-015  0.9000849E+02  0.7816164E-02  0.1186338E+00
        -11   -1    0    0    0    0  0.00000000000E+00  0.00000000000E+00  0.45593999997E+02  0.45594000000E+02  0.51100000000E-03 0. -1.
         11   -1    0    0    0    0 -0.00000000000E+00 -0.00000000000E+00 -0.45593999997E+02  0.45594000000E+02  0.51100000000E-03 0.  1.
    9900012    2    1    2    0    0  0.10693709224E+01 -0.26595284478E+00 -0.42066302936E+00  0.90008490581E+02  0.90000761853E+02 0.  0.
        -12    1    1    2    0    0 -0.10693709224E+01  0.26595284478E+00  0.42066302936E+00  0.11795094191E+01  0.00000000000E+00 0.  1.
         11    1    3    3    0    0  0.32626617063E+02  0.23805196627E+02  0.50032525449E+01  0.40696634551E+02  0.51100000000E-03 0. -1.
        -11    1    3    3    0    0 -0.85135883991E+01  0.65117298123E+01 -0.13547902969E+01  0.10803669265E+02  0.51100000000E-03 0.  1.
        -12    1    3    3    0    0 -0.23043657742E+02 -0.30582879284E+02 -0.40691252773E+01  0.38508186765E+02  0.00000000000E+00 0.  1.
</event>
<event>
 7    1  0.3662489E-015  0.9000749E+02  0.7816164E-02  0.1186340E+00
        -11   -1    0    0    0    0  0.00000000000E+00  0.00000000000E+00  0.45593999997E+02  0.45594000000E+02  0.51100000000E-03 0. -1.
         11   -1    0    0    0    0 -0.00000000000E+00 -0.00000000000E+00 -0.45593999997E+02  0.45594000000E+02  0.51100000000E-03 0.  1.
    9900012    2    1    2    0    0 -0.11034635634E+01  0.19505652309E+00  0.37138734081E+00  0.90007488484E+02  0.89999746531E+02 0.  0.
        -12    1    1    2    0    0  0.11034635634E+01 -0.19505652309E+00 -0.37138734081E+00  0.11805115162E+01  0.00000000000E+00 0.  1.
         11    1    3    3    0    0 -0.90513295216E+01 -0.34200061158E+01 -0.62778533095E+01  0.11534056111E+02  0.51100000000E-03 0. -1.
        -11    1    3    3    0    0  0.13055702802E+02  0.39305995219E+02 -0.17460752601E+01  0.41454329265E+02  0.51100000000E-03 0.  1.
         12    1    3    3    0    0 -0.51078368433E+01 -0.35690932580E+02  0.83953159104E+01  0.37019103107E+02  0.00000000000E+00 0. -1.
</event>
<event>
 7    1  0.3662489E-015  0.9000778E+02  0.7816164E-02  0.1186339E+00
        -11   -1    0    0    0    0  0.00000000000E+00  0.00000000000E+00  0.45593999997E+02  0.45594000000E+02  0.51100000000E-03 0. -1.
         11   -1    0    0    0    0 -0.00000000000E+00 -0.00000000000E+00 -0.45593999997E+02  0.45594000000E+02  0.51100000000E-03 0.  1.
    9900012    2    1    2    0    0  0.83694727749E+00  0.61412445474E+00  0.56150105591E+00  0.90007782636E+02  0.90000044566E+02 0.  0.
        -12    1    1    2    0    0 -0.83694727749E+00 -0.61412445474E+00 -0.56150105591E+00  0.11802173643E+01  0.00000000000E+00 0.  1.
         11    1    3    3    0    0  0.37627521661E+02  0.20698783464E+02 -0.70570151207E+01  0.43520931583E+02  0.51100000000E-03 0. -1.
        -11    1    3    3    0    0 -0.58467201886E+01 -0.16323015448E+01 -0.54540344347E+01  0.81605782377E+01  0.51100000000E-03 0.  1.
        -12    1    3    3    0    0 -0.30943854195E+02 -0.18452357464E+02  0.13072550611E+02  0.38326272815E+02  0.00000000000E+00 0.  1.
</event>
<event>
 7    1  0.3662489E-015  0.9000774E+02  0.7816164E-02  0.1186339E+00
        -11   -1    0    0    0    0  0.00000000000E+00  0.00000000000E+00  0.45593999997E+02  0.45594000000E+02  0.51100000000E-03 0. -1.
         11   -1    0    0    0    0 -0.00000000000E+00 -0.00000000000E+00 -0.45593999997E+02  0.45594000000E+02  0.51100000000E-03 0.  1.
    9900012    2    1    2    0    0 -0.71743038538E+00  0.32590134892E+00  0.87869125587E+00  0.90007738855E+02  0.90000000208E+02 0.  0.
        -12    1    1    2    0    0  0.71743038538E+00 -0.32590134892E+00 -0.87869125587E+00  0.11802611449E+01  0.00000000000E+00 0.  1.
         11    1    3    3    0    0  0.35207918346E+01  0.33242474606E+02  0.18352490754E+02  0.38134918516E+02  0.51100000000E-03 0. -1.
        -11    1    3    3    0    0  0.97780774475E+01  0.30347648916E+01 -0.31276758488E+01  0.10705276876E+02  0.51100000000E-03 0.  1.
        -12    1    3    3    0    0 -0.14016299667E+02 -0.35951338149E+02 -0.14346123649E+02  0.41167543463E+02  0.00000000000E+00 0.  1.
</event>
<event>
 7    1  0.3662489E-015  0.9000775E+02  0.7816164E-02  0.1186339E+00
        -11   -1    0    0    0    0  0.00000000000E+00  0.00000000000E+00  0.45593999997E+02  0.45594000000E+02  0.51100000000E-03 0.  1.
         11   -1    0    0    0    0 -0.00000000000E+00 -0.00000000000E+00 -0.45593999997E+02  0.45594000000E+02  0.51100000000E-03 0. -1.
    9900012    2    1    2    0    0  0.77521049415E+00  0.51007374783E+00  0.72929441058E+00  0.90007747114E+02  0.90000008576E+02 0.  0.
        -12    1    1    2    0    0 -0.77521049415E+00 -0.51007374783E+00 -0.72929441058E+00  0.11802528864E+01  0.00000000000E+00 0.  1.
         11    1    3    3    0    0  0.24437557548E+02 -0.32143473155E+02 -0.70053866530E+01  0.40981368057E+02  0.51100000000E-03 0. -1.
        -11    1    3    3    0    0  0.56736126610E+01  0.72580462040E+01 -0.96203988706E+00  0.92625394106E+01  0.51100000000E-03 0.  1.
        -12    1    3    3    0    0 -0.29335959714E+02  0.25395500699E+02  0.86967209507E+01  0.39763839646E+02  0.00000000000E+00 0.  1.
</event>
<event>
 7    1  0.3662489E-015  0.9000785E+02  0.7816164E-02  0.1186339E+00
        -11   -1    0    0    0    0  0.00000000000E+00  0.00000000000E+00  0.45593999997E+02  0.45594000000E+02  0.51100000000E-03 0.  1.
         11   -1    0    0    0    0 -0.00000000000E+00 -0.00000000000E+00 -0.45593999997E+02  0.45594000000E+02  0.51100000000E-03 0. -1.
    9900012    2    1    2    0    0  0.11155159997E+01 -0.31049892504E+00 -0.22797842303E+00  0.90007847599E+02  0.90000110387E+02 0.  0.
        -12    1    1    2    0    0 -0.11155159997E+01  0.31049892504E+00  0.22797842303E+00  0.11801524009E+01  0.00000000000E+00 0.  1.
         11    1    3    3    0    0  0.12887598864E+01  0.54011499138E+01  0.80497293439E+01  0.97791341747E+01  0.51100000000E-03 0. -1.
        -11    1    3    3    0    0  0.11797475499E+02  0.90748749917E+01  0.32216269521E+02  0.35488333384E+02  0.51100000000E-03 0.  1.
         12    1    3    3    0    0 -0.11970719385E+02 -0.14786523830E+02 -0.40493977288E+02  0.44740380041E+02  0.00000000000E+00 0. -1.
</event>
<event>
 7    1  0.3662489E-015  0.9000786E+02  0.7816164E-02  0.1186339E+00
        -11   -1    0    0    0    0  0.00000000000E+00  0.00000000000E+00  0.45593999997E+02  0.45594000000E+02  0.51100000000E-03 0.  1.
         11   -1    0    0    0    0 -0.00000000000E+00 -0.00000000000E+00 -0.45593999997E+02  0.45594000000E+02  0.51100000000E-03 0. -1.
    9900012    2    1    2    0    0  0.86653301004E+00 -0.45395114573E+00 -0.66012876537E+00  0.90007863954E+02  0.90000126958E+02 0.  0.
        -12    1    1    2    0    0 -0.86653301004E+00  0.45395114573E+00  0.66012876537E+00  0.11801360460E+01  0.00000000000E+00 0.  1.
         11    1    3    3    0    0  0.15386264279E+02  0.14939485582E+01 -0.30341061245E+02  0.34052151305E+02  0.51100000000E-03 0. -1.
        -11    1    3    3    0    0  0.39057742303E+01  0.19457062803E+01 -0.10614655010E+02  0.11476573814E+02  0.51100000000E-03 0.  1.
        -12    1    3    3    0    0 -0.18425505499E+02 -0.38936059843E+01  0.40295587489E+02  0.44479138836E+02  0.00000000000E+00 0.  1.
</event>
<event>
 7    1  0.3662489E-015  0.9000768E+02  0.7816164E-02  0.1186339E+00
        -11   -1    0    0    0    0  0.00000000000E+00  0.00000000000E+00  0.45593999997E+02  0.45594000000E+02  0.51100000000E-03 0.  1.
         11   -1    0    0    0    0 -0.00000000000E+00 -0.00000000000E+00 -0.45593999997E+02  0.45594000000E+02  0.51100000000E-03 0. -1.
    9900012    2    1    2    0    0 -0.80575480118E+00 -0.86190815223E+00 -0.32196312035E-01  0.90007676712E+02  0.89999937244E+02 0.  0.
        -12    1    1    2    0    0  0.80575480118E+00  0.86190815223E+00  0.32196312035E-01  0.11803232884E+01  0.00000000000E+00 0.  1.
         11    1    3    3    0    0  0.43659614699E+00 -0.31974989868E+02 -0.28490962360E+02  0.42829026719E+02  0.51100000000E-03 0. -1.
        -11    1    3    3    0    0 -0.76324029954E+01  0.21196768130E+01  0.54024717741E+01  0.95881857933E+01  0.51100000000E-03 0.  1.
        -12    1    3    3    0    0  0.63900520473E+01  0.28993404903E+02  0.23056294274E+02  0.37590464199E+02  0.00000000000E+00 0.  1.
</event>
<event>
 7    1  0.3662489E-015  0.9000777E+02  0.7816164E-02  0.1186339E+00
        -11   -1    0    0    0    0  0.00000000000E+00  0.00000000000E+00  0.45593999997E+02  0.45594000000E+02  0.51100000000E-03 0. -1.
         11   -1    0    0    0    0 -0.00000000000E+00 -0.00000000000E+00 -0.45593999997E+02  0.45594000000E+02  0.51100000000E-03 0.  1.
    9900012    2    1    2    0    0  0.10932457367E+01 -0.56042627814E-01  0.44115414485E+00  0.90007769516E+02  0.90000031273E+02 0.  0.
        -12    1    1    2    0    0 -0.10932457367E+01  0.56042627814E-01 -0.44115414485E+00  0.11802304845E+01  0.00000000000E+00 0.  1.
         11    1    3    3    0    0 -0.67620436502E+01  0.50568656457E+00  0.74426454665E+01  0.10068461900E+02  0.51100000000E-03 0. -1.
        -11    1    3    3    0    0  0.20900018771E+02 -0.36041882077E+02 -0.10887772597E+01  0.41677493740E+02  0.51100000000E-03 0.  1.
         12    1    3    3    0    0 -0.13044729384E+02  0.35480152885E+02 -0.59127140619E+01  0.38261813875E+02  0.00000000000E+00 0. -1.
</event>
<event>
 7    1  0.3662489E-015  0.9000784E+02  0.7816164E-02  0.1186339E+00
        -11   -1    0    0    0    0  0.00000000000E+00  0.00000000000E+00  0.45593999997E+02  0.45594000000E+02  0.51100000000E-03 0.  1.
         11   -1    0    0    0    0 -0.00000000000E+00 -0.00000000000E+00 -0.45593999997E+02  0.45594000000E+02  0.51100000000E-03 0. -1.
    9900012    2    1    2    0    0  0.62283461058E+00 -0.38359478113E+00 -0.92612244406E+00  0.90007842939E+02  0.90000105665E+02 0.  0.
        -12    1    1    2    0    0 -0.62283461058E+00  0.38359478113E+00  0.92612244406E+00  0.11801570614E+01  0.00000000000E+00 0.  1.
         11    1    3    3    0    0  0.35464827232E+02 -0.16935188446E+02  0.15205217352E+02  0.42139686914E+02  0.51100000000E-03 0. -1.
        -11    1    3    3    0    0 -0.33166092286E+01 -0.37397315313E+01 -0.81128307300E+01  0.95290876486E+01  0.51100000000E-03 0.  1.
        -12    1    3    3    0    0 -0.31525383393E+02  0.20291325196E+02 -0.80185090657E+01  0.38339068375E+02  0.00000000000E+00 0.  1.
</event>
<event>
 7    1  0.3662489E-015  0.9000771E+02  0.7816164E-02  0.1186339E+00
        -11   -1    0    0    0    0  0.00000000000E+00  0.00000000000E+00  0.45593999997E+02  0.45594000000E+02  0.51100000000E-03 0.  1.
         11   -1    0    0    0    0 -0.00000000000E+00 -0.00000000000E+00 -0.45593999997E+02  0.45594000000E+02  0.51100000000E-03 0. -1.
    9900012    2    1    2    0    0  0.97954408183E+00  0.56076499666E+00  0.34513383138E+00  0.90007711327E+02  0.89999972317E+02 0.  0.
        -12    1    1    2    0    0 -0.97954408183E+00 -0.56076499666E+00 -0.34513383138E+00  0.11802886729E+01  0.00000000000E+00 0.  1.
         11    1    3    3    0    0  0.63677304548E+01 -0.62023332657E+01 -0.66712880112E+01  0.11114090744E+02  0.51100000000E-03 0. -1.
        -11    1    3    3    0    0 -0.21681740630E+02 -0.19395486802E+02 -0.22071371065E+02  0.36516136241E+02  0.51100000000E-03 0.  1.
         12    1    3    3    0    0  0.16293554257E+02  0.26158585065E+02  0.29087792907E+02  0.42377484342E+02  0.00000000000E+00 0. -1.
</event>
<event>
 7    1  0.3662489E-015  0.9000643E+02  0.7816164E-02  0.1186342E+00
        -11   -1    0    0    0    0  0.00000000000E+00  0.00000000000E+00  0.45593999997E+02  0.45594000000E+02  0.51100000000E-03 0.  1.
         11   -1    0    0    0    0 -0.00000000000E+00 -0.00000000000E+00 -0.45593999997E+02  0.45594000000E+02  0.51100000000E-03 0. -1.
    9900012    2    1    2    0    0 -0.13007393831E+00 -0.45453440276E+00 -0.10828577242E+01  0.90006432565E+02  0.89998676665E+02 0.  0.
        -12    1    1    2    0    0  0.13007393831E+00  0.45453440276E+00  0.10828577242E+01  0.11815674351E+01  0.00000000000E+00 0.  1.
         11    1    3    3    0    0  0.66621096040E+01  0.31777423674E+01 -0.28060874863E+01  0.78965738249E+01  0.51100000000E-03 0. -1.
        -11    1    3    3    0    0  0.29127941768E+02  0.23160723979E+02 -0.85774225132E+00  0.37223538909E+02  0.51100000000E-03 0.  1.
         12    1    3    3    0    0 -0.35920125310E+02 -0.26793000749E+02  0.25809720135E+01  0.44886319831E+02  0.00000000000E+00 0. -1.
</event>
<event>
 7    1  0.3662489E-015  0.9000782E+02  0.7816164E-02  0.1186339E+00
        -11   -1    0    0    0    0  0.00000000000E+00  0.00000000000E+00  0.45593999997E+02  0.45594000000E+02  0.51100000000E-03 0.  1.
         11   -1    0    0    0    0 -0.00000000000E+00 -0.00000000000E+00 -0.45593999997E+02  0.45594000000E+02  0.51100000000E-03 0. -1.
    9900012    2    1    2    0    0  0.11730282169E+01 -0.96432442850E-01  0.86711230046E-01  0.90007824907E+02  0.90000087395E+02 0.  0.
        -12    1    1    2    0    0 -0.11730282169E+01  0.96432442850E-01 -0.86711230046E-01  0.11801750934E+01  0.00000000000E+00 0.  1.
         11    1    3    3    0    0  0.36965992060E+01 -0.88682566099E+01  0.37705648839E+01  0.10321239305E+02  0.51100000000E-03 0. -1.
        -11    1    3    3    0    0  0.51602479938E+01  0.17051298602E+01  0.37146943458E+02  0.37542389852E+02  0.51100000000E-03 0.  1.
         12    1    3    3    0    0 -0.76838189829E+01  0.70666943069E+01 -0.40830797112E+02  0.42144195750E+02  0.00000000000E+00 0. -1.
</event>
<event>
 7    1  0.3662489E-015  0.9000766E+02  0.7816164E-02  0.1186339E+00
        -11   -1    0    0    0    0  0.00000000000E+00  0.00000000000E+00  0.45593999997E+02  0.45594000000E+02  0.51100000000E-03 0.  1.
         11   -1    0    0    0    0 -0.00000000000E+00 -0.00000000000E+00 -0.45593999997E+02  0.45594000000E+02  0.51100000000E-03 0. -1.
    9900012    2    1    2    0    0 -0.18192877676E+00  0.38878931235E+00 -0.10995230058E+01  0.90007658503E+02  0.89999918795E+02 0.  0.
        -12    1    1    2    0    0  0.18192877676E+00 -0.38878931235E+00  0.10995230058E+01  0.11803414970E+01  0.00000000000E+00 0.  1.
         11    1    3    3    0    0  0.59030621560E+01  0.31759188655E+01  0.73129979612E+01  0.99203096171E+01  0.51100000000E-03 0. -1.
        -11    1    3    3    0    0  0.29890406732E+02  0.68476473999E+01  0.16941194527E+02  0.35033280774E+02  0.51100000000E-03 0.  1.
         12    1    3    3    0    0 -0.35975397665E+02 -0.96347769531E+01 -0.25353715494E+02  0.45054068112E+02  0.00000000000E+00 0. -1.
</event>
<event>
 7    1  0.3662489E-015  0.9000778E+02  0.7816164E-02  0.1186339E+00
        -11   -1    0    0    0    0  0.00000000000E+00  0.00000000000E+00  0.45593999997E+02  0.45594000000E+02  0.51100000000E-03 0. -1.
         11   -1    0    0    0    0 -0.00000000000E+00 -0.00000000000E+00 -0.45593999997E+02  0.45594000000E+02  0.51100000000E-03 0.  1.
    9900012    2    1    2    0    0  0.26765956499E+00  0.88503471387E+00  0.73348541578E+00  0.90007775893E+02  0.90000037735E+02 0.  0.
        -12    1    1    2    0    0 -0.26765956499E+00 -0.88503471387E+00 -0.73348541578E+00  0.11802241070E+01  0.00000000000E+00 0.  1.
         11    1    3    3    0    0  0.15403448350E+02  0.14243617058E+02  0.35561976114E+02  0.41289235805E+02  0.51100000000E-03 0. -1.
        -11    1    3    3    0    0 -0.92322947601E+01 -0.18263532960E+00  0.17457346421E+01  0.93976705573E+01  0.51100000000E-03 0.  1.
        -12    1    3    3    0    0 -0.59034940246E+01 -0.13175947015E+02 -0.36574225340E+02  0.39320869531E+02  0.00000000000E+00 0.  1.
</event>
<event>
 7    1  0.3662489E-015  0.9000772E+02  0.7816164E-02  0.1186339E+00
        -11   -1    0    0    0    0  0.00000000000E+00  0.00000000000E+00  0.45593999997E+02  0.45594000000E+02  0.51100000000E-03 0.  1.
         11   -1    0    0    0    0 -0.00000000000E+00 -0.00000000000E+00 -0.45593999997E+02  0.45594000000E+02  0.51100000000E-03 0. -1.
    9900012    2    1    2    0    0  0.28597415405E+00 -0.11248239224E+01 -0.21461553505E+00  0.90007716178E+02  0.89999977231E+02 0.  0.
        -12    1    1    2    0    0 -0.28597415405E+00  0.11248239224E+01  0.21461553505E+00  0.11802838223E+01  0.00000000000E+00 0.  1.
         11    1    3    3    0    0 -0.16666840157E+01 -0.35174481442E+01  0.92812806665E+01  0.10064414942E+02  0.51100000000E-03 0. -1.
        -11    1    3    3    0    0 -0.60135704170E+01  0.13917231270E+02  0.32397494283E+02  0.35769400211E+02  0.51100000000E-03 0.  1.
         12    1    3    3    0    0  0.79662285868E+01 -0.11524607048E+02 -0.41893390484E+02  0.44173901025E+02  0.00000000000E+00 0. -1.
</event>
<event>
 7    1  0.3662489E-015  0.9000769E+02  0.7816164E-02  0.1186339E+00
        -11   -1    0    0    0    0  0.00000000000E+00  0.00000000000E+00  0.45593999997E+02  0.45594000000E+02  0.51100000000E-03 0.  1.
         11   -1    0    0    0    0 -0.00000000000E+00 -0.00000000000E+00 -0.45593999997E+02  0.45594000000E+02  0.51100000000E-03 0. -1.
    9900012    2    1    2    0    0  0.10444058862E+01  0.33852353997E+00 -0.43329090501E+00  0.90007693747E+02  0.89999954505E+02 0.  0.
        -12    1    1    2    0    0 -0.10444058862E+01 -0.33852353997E+00  0.43329090501E+00  0.11803062529E+01  0.00000000000E+00 0.  1.
         11    1    3    3    0    0 -0.20162032406E+02 -0.31211051915E+02 -0.81299607919E+01  0.38035951088E+02  0.51100000000E-03 0. -1.
        -11    1    3    3    0    0  0.81018361919E+01 -0.66131976709E+01  0.48308409268E+01  0.11520032875E+02  0.51100000000E-03 0.  1.
        -12    1    3    3    0    0  0.13104602100E+02  0.38162773126E+02  0.28658289601E+01  0.40451709785E+02  0.00000000000E+00 0.  1.
</event>
<event>
 7    1  0.3662489E-015  0.9000776E+02  0.7816164E-02  0.1186339E+00
        -11   -1    0    0    0    0  0.00000000000E+00  0.00000000000E+00  0.45593999997E+02  0.45594000000E+02  0.51100000000E-03 0.  1.
         11   -1    0    0    0    0 -0.00000000000E+00 -0.00000000000E+00 -0.45593999997E+02  0.45594000000E+02  0.51100000000E-03 0. -1.
    9900012    2    1    2    0    0  0.13363900056E+00  0.40176896193E+00 -0.11016805933E+01  0.90007755190E+02  0.90000016759E+02 0.  0.
        -12    1    1    2    0    0 -0.13363900056E+00 -0.40176896193E+00  0.11016805933E+01  0.11802448097E+01  0.00000000000E+00 0.  1.
         11    1    3    3    0    0 -0.27407427992E+02 -0.16402863736E+02 -0.18656606491E+02  0.36990404349E+02  0.51100000000E-03 0. -1.
        -11    1    3    3    0    0 -0.87065001823E+00 -0.56166389980E+01 -0.71964348457E+01  0.91702420817E+01  0.51100000000E-03 0.  1.
        -12    1    3    3    0    0  0.28411717010E+02  0.22421271696E+02  0.24751360744E+02  0.43847108760E+02  0.00000000000E+00 0.  1.
</event>
<event>
 7    1  0.3662489E-015  0.9000773E+02  0.7816164E-02  0.1186339E+00
        -11   -1    0    0    0    0  0.00000000000E+00  0.00000000000E+00  0.45593999997E+02  0.45594000000E+02  0.51100000000E-03 0. -1.
         11   -1    0    0    0    0 -0.00000000000E+00 -0.00000000000E+00 -0.45593999997E+02  0.45594000000E+02  0.51100000000E-03 0.  1.
    9900012    2    1    2    0    0  0.79752886285E+00  0.10631883473E+00  0.86352226906E+00  0.90007734483E+02  0.89999995778E+02 0.  0.
        -12    1    1    2    0    0 -0.79752886285E+00 -0.10631883473E+00 -0.86352226906E+00  0.11802655171E+01  0.00000000000E+00 0.  1.
         11    1    3    3    0    0 -0.49986633265E+01 -0.11038468092E+02 -0.12662109085E+02  0.17526078273E+02  0.51100000000E-03 0. -1.
        -11    1    3    3    0    0 -0.94111958245E+01  0.28079667373E+02 -0.17197455111E+02  0.34246033189E+02  0.51100000000E-03 0.  1.
         12    1    3    3    0    0  0.15207388014E+02 -0.16934880446E+02  0.30723086465E+02  0.38235623022E+02  0.00000000000E+00 0. -1.
</event>
<event>
 7    1  0.3662489E-015  0.9000773E+02  0.7816164E-02  0.1186339E+00
        -11   -1    0    0    0    0  0.00000000000E+00  0.00000000000E+00  0.45593999997E+02  0.45594000000E+02  0.51100000000E-03 0.  1.
         11   -1    0    0    0    0 -0.00000000000E+00 -0.00000000000E+00 -0.45593999997E+02  0.45594000000E+02  0.51100000000E-03 0. -1.
    9900012    2    1    2    0    0  0.10553917492E+01  0.21049156646E+00  0.48463962380E+00  0.90007731383E+02  0.89999992637E+02 0.  0.
        -12    1    1    2    0    0 -0.10553917492E+01 -0.21049156646E+00 -0.48463962380E+00  0.11802686172E+01  0.00000000000E+00 0.  1.
         11    1    3    3    0    0  0.34192654713E+02 -0.25562445588E+02  0.10267754350E+02  0.43909031422E+02  0.51100000000E-03 0. -1.
        -11    1    3    3    0    0 -0.57634047780E+01 -0.19315387283E+01 -0.18304731023E+01  0.63480948743E+01  0.51100000000E-03 0.  1.
        -12    1    3    3    0    0 -0.27373858186E+02  0.27704475883E+02 -0.79526416234E+01  0.39750605086E+02  0.00000000000E+00 0.  1.
</event>
<event>
 7    1  0.3662489E-015  0.9000777E+02  0.7816164E-02  0.1186339E+00
        -11   -1    0    0    0    0  0.00000000000E+00  0.00000000000E+00  0.45593999997E+02  0.45594000000E+02  0.51100000000E-03 0.  1.
         11   -1    0    0    0    0 -0.00000000000E+00 -0.00000000000E+00 -0.45593999997E+02  0.45594000000E+02  0.51100000000E-03 0. -1.
    9900012    2    1    2    0    0  0.61700475015E+00  0.98270593534E+00 -0.21573847866E+00  0.90007767435E+02  0.90000029165E+02 0.  0.
        -12    1    1    2    0    0 -0.61700475015E+00 -0.98270593534E+00  0.21573847866E+00  0.11802325653E+01  0.00000000000E+00 0.  1.
         11    1    3    3    0    0 -0.12739279337E+02  0.33386229923E+01 -0.21337694230E+02  0.25074545596E+02  0.51100000000E-03 0. -1.
        -11    1    3    3    0    0 -0.13006232506E+02 -0.17021624908E+02 -0.81297372746E+01  0.22912669572E+02  0.51100000000E-03 0.  1.
        -12    1    3    3    0    0  0.26362516593E+02  0.14665707851E+02  0.29251693026E+02  0.42020552267E+02  0.00000000000E+00 0.  1.
</event>
<event>
 7    1  0.3662489E-015  0.9000776E+02  0.7816164E-02  0.1186339E+00
        -11   -1    0    0    0    0  0.00000000000E+00  0.00000000000E+00  0.45593999997E+02  0.45594000000E+02  0.51100000000E-03 0. -1.
         11   -1    0    0    0    0 -0.00000000000E+00 -0.00000000000E+00 -0.45593999997E+02  0.45594000000E+02  0.51100000000E-03 0.  1.
    9900012    2    1    2    0    0 -0.64303841330E+00  0.96680792727E+00  0.21154785689E+00  0.90007759150E+02  0.90000020770E+02 0.  0.
        -12    1    1    2    0    0  0.64303841330E+00 -0.96680792727E+00 -0.21154785689E+00  0.11802408504E+01  0.00000000000E+00 0.  1.
         11    1    3    3    0    0  0.25524050494E+02  0.18798110746E+02 -0.21761323584E+02  0.38449984728E+02  0.51100000000E-03 0. -1.
        -11    1    3    3    0    0  0.59780323919E+01 -0.45720903028E+01 -0.36502193733E+01  0.83645073226E+01  0.51100000000E-03 0.  1.
        -12    1    3    3    0    0 -0.32145121299E+02 -0.13259212515E+02  0.25623090814E+02  0.43193267099E+02  0.00000000000E+00 0.  1.
</event>
<event>
 7    1  0.3662489E-015  0.9000776E+02  0.7816164E-02  0.1186339E+00
        -11   -1    0    0    0    0  0.00000000000E+00  0.00000000000E+00  0.45593999997E+02  0.45594000000E+02  0.51100000000E-03 0.  1.
         11   -1    0    0    0    0 -0.00000000000E+00 -0.00000000000E+00 -0.45593999997E+02  0.45594000000E+02  0.51100000000E-03 0. -1.
    9900012    2    1    2    0    0 -0.47875922017E-01 -0.17972081314E+00 -0.11654891705E+01  0.90007764142E+02  0.90000025828E+02 0.  0.
        -12    1    1    2    0    0  0.47875922017E-01  0.17972081314E+00  0.11654891705E+01  0.11802358583E+01  0.00000000000E+00 0.  1.
         11    1    3    3    0    0  0.62670072265E+01 -0.58390622968E+01 -0.35701926388E+01  0.92798870587E+01  0.51100000000E-03 0. -1.
        -11    1    3    3    0    0  0.26102215263E+02  0.20267532955E+02  0.22411022768E+02  0.39929343539E+02  0.51100000000E-03 0.  1.
         12    1    3    3    0    0 -0.32417098411E+02 -0.14608191471E+02 -0.20006319299E+02  0.40798533544E+02  0.00000000000E+00 0. -1.
</event>
<event>
 7    1  0.3662489E-015  0.9000782E+02  0.7816164E-02  0.1186339E+00
        -11   -1    0    0    0    0  0.00000000000E+00  0.00000000000E+00  0.45593999997E+02  0.45594000000E+02  0.51100000000E-03 0.  1.
         11   -1    0    0    0    0 -0.00000000000E+00 -0.00000000000E+00 -0.45593999997E+02  0.45594000000E+02  0.51100000000E-03 0. -1.
    9900012    2    1    2    0    0 -0.26739223244E+00 -0.44883172877E+00 -0.10582385531E+01  0.90007823165E+02  0.90000085631E+02 0.  0.
        -12    1    1    2    0    0  0.26739223244E+00  0.44883172877E+00  0.10582385531E+01  0.11801768351E+01  0.00000000000E+00 0.  1.
         11    1    3    3    0    0 -0.45065844889E+01  0.55499965979E+01 -0.49632565539E+01  0.87031995193E+01  0.51100000000E-03 0. -1.
        -11    1    3    3    0    0  0.41385941992E+02 -0.11024255846E+02 -0.39313342846E+01  0.43009136251E+02  0.51100000000E-03 0.  1.
         12    1    3    3    0    0 -0.37146749735E+02  0.50254275198E+01  0.78363522853E+01  0.38295487395E+02  0.00000000000E+00 0. -1.
</event>
<event>
 7    1  0.3662489E-015  0.9000776E+02  0.7816164E-02  0.1186339E+00
        -11   -1    0    0    0    0  0.00000000000E+00  0.00000000000E+00  0.45593999997E+02  0.45594000000E+02  0.51100000000E-03 0.  1.
         11   -1    0    0    0    0 -0.00000000000E+00 -0.00000000000E+00 -0.45593999997E+02  0.45594000000E+02  0.51100000000E-03 0. -1.
    9900012    2    1    2    0    0 -0.65849145270E+00 -0.96090094404E+00 -0.18982202841E+00  0.90007756796E+02  0.90000018386E+02 0.  0.
        -12    1    1    2    0    0  0.65849145270E+00  0.96090094404E+00  0.18982202841E+00  0.11802432038E+01  0.00000000000E+00 0.  1.
         11    1    3    3    0    0 -0.98543413598E+01  0.12498056259E+01 -0.14809205528E+01  0.10043066448E+02  0.51100000000E-03 0. -1.
        -11    1    3    3    0    0 -0.22513984886E+01 -0.10234600346E+02  0.38666047230E+02  0.40060941678E+02  0.51100000000E-03 0.  1.
         12    1    3    3    0    0  0.11447248396E+02  0.80238937765E+01 -0.37374948706E+02  0.39903748670E+02  0.00000000000E+00 0. -1.
</event>
<event>
 7    1  0.3662489E-015  0.9000781E+02  0.7816164E-02  0.1186339E+00
        -11   -1    0    0    0    0  0.00000000000E+00  0.00000000000E+00  0.45593999997E+02  0.45594000000E+02  0.51100000000E-03 0. -1.
         11   -1    0    0    0    0 -0.00000000000E+00 -0.00000000000E+00 -0.45593999997E+02  0.45594000000E+02  0.51100000000E-03 0.  1.
    9900012    2    1    2    0    0 -0.28181772545E+00 -0.10805903712E+01  0.38176749042E+00  0.90007812219E+02  0.90000074541E+02 0.  0.
        -12    1    1    2    0    0  0.28181772545E+00  0.10805903712E+01 -0.38176749042E+00  0.11801877806E+01  0.00000000000E+00 0.  1.
         11    1    3    3    0    0 -0.20924694866E+02 -0.18243021102E+02  0.15399933214E+02  0.31746001597E+02  0.51100000000E-03 0. -1.
        -11    1    3    3    0    0 -0.15053080630E+02 -0.24000629928E+01 -0.70044840150E+01  0.16775527872E+02  0.51100000000E-03 0.  1.
        -12    1    3    3    0    0  0.35695957770E+02  0.19562493724E+02 -0.80136817086E+01  0.41486282749E+02  0.00000000000E+00 0.  1.
</event>
<event>
 7    1  0.3662489E-015  0.9000774E+02  0.7816164E-02  0.1186339E+00
        -11   -1    0    0    0    0  0.00000000000E+00  0.00000000000E+00  0.45593999997E+02  0.45594000000E+02  0.51100000000E-03 0.  1.
         11   -1    0    0    0    0 -0.00000000000E+00 -0.00000000000E+00 -0.45593999997E+02  0.45594000000E+02  0.51100000000E-03 0. -1.
    9900012    2    1    2    0    0 -0.75537403965E+00 -0.56464453370E+00  0.70964674046E+00  0.90007740755E+02  0.90000002133E+02 0.  0.
        -12    1    1    2    0    0  0.75537403965E+00  0.56464453370E+00 -0.70964674046E+00  0.11802592450E+01  0.00000000000E+00 0.  1.
         11    1    3    3    0    0 -0.96149319451E+01  0.90459828519E+01  0.81077311261E+00  0.13226264604E+02  0.51100000000E-03 0. -1.
        -11    1    3    3    0    0 -0.12471111907E+02 -0.36775834097E+02  0.11242180773E+02  0.40427431709E+02  0.51100000000E-03 0.  1.
         12    1    3    3    0    0  0.21330669813E+02  0.27165206712E+02 -0.11343307145E+02  0.36354044443E+02  0.00000000000E+00 0. -1.
</event>
<event>
 7    1  0.3662489E-015  0.9000791E+02  0.7816164E-02  0.1186339E+00
        -11   -1    0    0    0    0  0.00000000000E+00  0.00000000000E+00  0.45593999997E+02  0.45594000000E+02  0.51100000000E-03 0.  1.
         11   -1    0    0    0    0 -0.00000000000E+00 -0.00000000000E+00 -0.45593999997E+02  0.45594000000E+02  0.51100000000E-03 0. -1.
    9900012    2    1    2    0    0 -0.31235226053E-01 -0.11768438813E+01 -0.81641993106E-01  0.90007914166E+02  0.90000177833E+02 0.  0.
        -12    1    1    2    0    0  0.31235226053E-01  0.11768438813E+01  0.81641993106E-01  0.11800858339E+01  0.00000000000E+00 0.  1.
         11    1    3    3    0    0  0.46314644849E+01 -0.65154451555E+01 -0.26539473593E+01  0.84228810805E+01  0.51100000000E-03 0. -1.
        -11    1    3    3    0    0  0.10892836410E+02 -0.29622204591E+02  0.22192539137E+02  0.38582867745E+02  0.51100000000E-03 0.  1.
         12    1    3    3    0    0 -0.15555536121E+02  0.34960805865E+02 -0.19620233771E+02  0.43002165340E+02  0.00000000000E+00 0. -1.
</event>
<event>
 7    1  0.3662489E-015  0.9000775E+02  0.7816164E-02  0.1186339E+00
        -11   -1    0    0    0    0  0.00000000000E+00  0.00000000000E+00  0.45593999997E+02  0.45594000000E+02  0.51100000000E-03 0. -1.
         11   -1    0    0    0    0 -0.00000000000E+00 -0.00000000000E+00 -0.45593999997E+02  0.45594000000E+02  0.51100000000E-03 0.  1.
    9900012    2    1    2    0    0 -0.51152116329E+00 -0.21032108171E+00  0.10426454122E+01  0.90007746505E+02  0.90000007958E+02 0.  0.
        -12    1    1    2    0    0  0.51152116329E+00  0.21032108171E+00 -0.10426454122E+01  0.11802534955E+01  0.00000000000E+00 0.  1.
         11    1    3    3    0    0 -0.23942191858E+01  0.93745760656E+01  0.28780376773E+02  0.30363218692E+02  0.51100000000E-03 0. -1.
        -11    1    3    3    0    0 -0.23850766774E+01  0.67788504628E+01  0.13378485468E+02  0.15186351702E+02  0.51100000000E-03 0.  1.
        -12    1    3    3    0    0  0.42677746999E+01 -0.16363747610E+02 -0.41116216828E+02  0.44458176110E+02  0.00000000000E+00 0.  1.
</event>
<event>
 7    1  0.3662489E-015  0.9000770E+02  0.7816164E-02  0.1186339E+00
        -11   -1    0    0    0    0  0.00000000000E+00  0.00000000000E+00  0.45593999997E+02  0.45594000000E+02  0.51100000000E-03 0.  1.
         11   -1    0    0    0    0 -0.00000000000E+00 -0.00000000000E+00 -0.45593999997E+02  0.45594000000E+02  0.51100000000E-03 0. -1.
    9900012    2    1    2    0    0  0.73302937307E+00  0.57127423808E+00 -0.72760713109E+00  0.90007704082E+02  0.89999964976E+02 0.  0.
        -12    1    1    2    0    0 -0.73302937307E+00 -0.57127423808E+00  0.72760713109E+00  0.11802959180E+01  0.00000000000E+00 0.  1.
         11    1    3    3    0    0 -0.75404618352E+01 -0.14266543887E+01 -0.48780674372E+01  0.90933739401E+01  0.51100000000E-03 0. -1.
        -11    1    3    3    0    0  0.41723935636E+02  0.14306069896E+02 -0.41948206436E+01  0.44307414292E+02  0.51100000000E-03 0.  1.
         12    1    3    3    0    0 -0.33450444427E+02 -0.12308141269E+02  0.83452809497E+01  0.36606915850E+02  0.00000000000E+00 0. -1.
</event>
<event>
 7    1  0.3662489E-015  0.9000774E+02  0.7816164E-02  0.1186339E+00
        -11   -1    0    0    0    0  0.00000000000E+00  0.00000000000E+00  0.45593999997E+02  0.45594000000E+02  0.51100000000E-03 0.  1.
         11   -1    0    0    0    0 -0.00000000000E+00 -0.00000000000E+00 -0.45593999997E+02  0.45594000000E+02  0.51100000000E-03 0. -1.
    9900012    2    1    2    0    0  0.61997059334E+00  0.19490588601E-01 -0.10041262602E+01  0.90007740297E+02  0.90000001669E+02 0.  0.
        -12    1    1    2    0    0 -0.61997059334E+00 -0.19490588601E-01  0.10041262602E+01  0.11802597028E+01  0.00000000000E+00 0.  1.
         11    1    3    3    0    0 -0.17296351072E+02 -0.30504094126E+02 -0.13717188188E+02  0.37654014008E+02  0.51100000000E-03 0. -1.
        -11    1    3    3    0    0 -0.49982446864E+01 -0.55190107827E+01  0.49573472370E+01  0.89452345891E+01  0.51100000000E-03 0.  1.
        -12    1    3    3    0    0  0.22914566352E+02  0.36042595498E+02  0.77557146906E+01  0.43408491700E+02  0.00000000000E+00 0.  1.
</event>
<event>
 7    1  0.3662489E-015  0.9000757E+02  0.7816164E-02  0.1186339E+00
        -11   -1    0    0    0    0  0.00000000000E+00  0.00000000000E+00  0.45593999997E+02  0.45594000000E+02  0.51100000000E-03 0. -1.
         11   -1    0    0    0    0 -0.00000000000E+00 -0.00000000000E+00 -0.45593999997E+02  0.45594000000E+02  0.51100000000E-03 0.  1.
    9900012    2    1    2    0    0  0.10116962894E+01 -0.37163952400E+00 -0.48141998037E+00  0.90007571893E+02  0.89999831042E+02 0.  0.
        -12    1    1    2    0    0 -0.10116962894E+01  0.37163952400E+00  0.48141998037E+00  0.11804281068E+01  0.00000000000E+00 0.  1.
         11    1    3    3    0    0 -0.71305156006E+01  0.43169199995E+01 -0.58706494995E+01  0.10195321320E+02  0.51100000000E-03 0. -1.
        -11    1    3    3    0    0 -0.19151224251E+02  0.19079496169E+02 -0.21650864674E+02  0.34634614272E+02  0.51100000000E-03 0.  1.
         12    1    3    3    0    0  0.27293436141E+02 -0.23768055693E+02  0.27040094193E+02  0.45177636301E+02  0.00000000000E+00 0. -1.
</event>
<event>
 7    1  0.3662489E-015  0.9000776E+02  0.7816164E-02  0.1186339E+00
        -11   -1    0    0    0    0  0.00000000000E+00  0.00000000000E+00  0.45593999997E+02  0.45594000000E+02  0.51100000000E-03 0.  1.
         11   -1    0    0    0    0 -0.00000000000E+00 -0.00000000000E+00 -0.45593999997E+02  0.45594000000E+02  0.51100000000E-03 0. -1.
    9900012    2    1    2    0    0 -0.77273814654E+00  0.54098219451E+00 -0.70935015175E+00  0.90007761204E+02  0.90000022852E+02 0.  0.
        -12    1    1    2    0    0  0.77273814654E+00 -0.54098219451E+00  0.70935015175E+00  0.11802387960E+01  0.00000000000E+00 0.  1.
         11    1    3    3    0    0  0.10005752436E+02 -0.18153510010E+01 -0.31334261046E+01  0.10640908819E+02  0.51100000000E-03 0. -1.
        -11    1    3    3    0    0 -0.28045102687E+02 -0.26758509576E+02  0.17231300459E+02  0.42420081745E+02  0.51100000000E-03 0.  1.
         12    1    3    3    0    0  0.17266612105E+02  0.29114842771E+02 -0.14807224507E+02  0.36946770640E+02  0.00000000000E+00 0. -1.
</event>
<event>
 7    1  0.3662489E-015  0.9000789E+02  0.7816164E-02  0.1186339E+00
        -11   -1    0    0    0    0  0.00000000000E+00  0.00000000000E+00  0.45593999997E+02  0.45594000000E+02  0.51100000000E-03 0.  1.
         11   -1    0    0    0    0 -0.00000000000E+00 -0.00000000000E+00 -0.45593999997E+02  0.45594000000E+02  0.51100000000E-03 0. -1.
    9900012    2    1    2    0    0  0.23341044307E+00 -0.11565460452E+01  0.24155783844E-01  0.90007888695E+02  0.90000152026E+02 0.  0.
        -12    1    1    2    0    0 -0.23341044307E+00  0.11565460452E+01 -0.24155783844E-01  0.11801113048E+01  0.00000000000E+00 0.  1.
         11    1    3    3    0    0  0.53128689329E+01 -0.69265350672E+01 -0.52386298724E+01  0.10180702703E+02  0.51100000000E-03 0. -1.
        -11    1    3    3    0    0  0.21945128132E+02 -0.28220692907E+02  0.67335599533E+01  0.36377699031E+02  0.51100000000E-03 0.  1.
         12    1    3    3    0    0 -0.27024586622E+02  0.33990681929E+02 -0.14707742971E+01  0.43449486961E+02  0.00000000000E+00 0. -1.
</event>
<event>
 7    1  0.3662489E-015  0.9000771E+02  0.7816164E-02  0.1186339E+00
        -11   -1    0    0    0    0  0.00000000000E+00  0.00000000000E+00  0.45593999997E+02  0.45594000000E+02  0.51100000000E-03 0.  1.
         11   -1    0    0    0    0 -0.00000000000E+00 -0.00000000000E+00 -0.45593999997E+02  0.45594000000E+02  0.51100000000E-03 0. -1.
    9900012    2    1    2    0    0 -0.57840229934E+00 -0.10269782845E+01 -0.62039658502E-01  0.90007710825E+02  0.89999971808E+02 0.  0.
        -12    1    1    2    0    0  0.57840229934E+00  0.10269782845E+01  0.62039658502E-01  0.11802891747E+01  0.00000000000E+00 0.  1.
         11    1    3    3    0    0 -0.23453112098E+02  0.15046452689E+02 -0.22827857069E+02  0.36021594416E+02  0.51100000000E-03 0. -1.
        -11    1    3    3    0    0 -0.43116353844E+01  0.54832637211E+01 -0.57782268101E+01  0.90578300963E+01  0.51100000000E-03 0.  1.
        -12    1    3    3    0    0  0.27186345183E+02 -0.21556694695E+02  0.28544044221E+02  0.44928286313E+02  0.00000000000E+00 0.  1.
</event>
<event>
 7    1  0.3662489E-015  0.9000785E+02  0.7816164E-02  0.1186339E+00
        -11   -1    0    0    0    0  0.00000000000E+00  0.00000000000E+00  0.45593999997E+02  0.45594000000E+02  0.51100000000E-03 0. -1.
         11   -1    0    0    0    0 -0.00000000000E+00 -0.00000000000E+00 -0.45593999997E+02  0.45594000000E+02  0.51100000000E-03 0.  1.
    9900012    2    1    2    0    0 -0.32668805602E+00 -0.11260977831E+01 -0.13390515468E+00  0.90007850902E+02  0.90000113734E+02 0.  0.
        -12    1    1    2    0    0  0.32668805602E+00  0.11260977831E+01  0.13390515468E+00  0.11801490980E+01  0.00000000000E+00 0.  1.
         11    1    3    3    0    0 -0.44247788029E+01  0.32215296230E+01 -0.11501473656E+02  0.12737378737E+02  0.51100000000E-03 0. -1.
        -11    1    3    3    0    0  0.12980890179E+02  0.32692430186E+02  0.16469596589E+02  0.38840006609E+02  0.51100000000E-03 0.  1.
         12    1    3    3    0    0 -0.88827994323E+01 -0.37040057592E+02 -0.51020280874E+01  0.38430465556E+02  0.00000000000E+00 0. -1.
</event>
<event>
 7    1  0.3662489E-015  0.9000767E+02  0.7816164E-02  0.1186339E+00
        -11   -1    0    0    0    0  0.00000000000E+00  0.00000000000E+00  0.45593999997E+02  0.45594000000E+02  0.51100000000E-03 0.  1.
         11   -1    0    0    0    0 -0.00000000000E+00 -0.00000000000E+00 -0.45593999997E+02  0.45594000000E+02  0.51100000000E-03 0. -1.
    9900012    2    1    2    0    0 -0.87070341311E+00 -0.69280904620E-01 -0.79388078807E+00  0.90007673357E+02  0.89999933846E+02 0.  0.
        -12    1    1    2    0    0  0.87070341311E+00  0.69280904620E-01  0.79388078807E+00  0.11803266425E+01  0.00000000000E+00 0.  1.
         11    1    3    3    0    0  0.32701609848E+02 -0.18000947762E+02  0.13405224476E+02  0.39662695956E+02  0.51100000000E-03 0. -1.
        -11    1    3    3    0    0 -0.12622501612E+02 -0.26194167582E+01  0.64953686070E+01  0.14435328355E+02  0.51100000000E-03 0.  1.
        -12    1    3    3    0    0 -0.20949811649E+02  0.20551083616E+02 -0.20694473871E+02  0.35909649047E+02  0.00000000000E+00 0.  1.
</event>
<event>
 7    1  0.3662489E-015  0.9000775E+02  0.7816164E-02  0.1186339E+00
        -11   -1    0    0    0    0  0.00000000000E+00  0.00000000000E+00  0.45593999997E+02  0.45594000000E+02  0.51100000000E-03 0. -1.
         11   -1    0    0    0    0 -0.00000000000E+00 -0.00000000000E+00 -0.45593999997E+02  0.45594000000E+02  0.51100000000E-03 0.  1.
    9900012    2    1    2    0    0  0.49647617252E-01  0.78242357837E+00  0.88223378754E+00  0.90007750875E+02  0.90000012386E+02 0.  0.
        -12    1    1    2    0    0 -0.49647617252E-01 -0.78242357837E+00 -0.88223378754E+00  0.11802491253E+01  0.00000000000E+00 0.  1.
         11    1    3    3    0    0 -0.12294904440E+01 -0.32319712405E+02  0.21481297030E+02  0.38826815206E+02  0.51100000000E-03 0. -1.
        -11    1    3    3    0    0 -0.10717943540E+01  0.34137394356E+01  0.86977599969E+01  0.94049662038E+01  0.51100000000E-03 0.  1.
        -12    1    3    3    0    0  0.23509324153E+01  0.29688396548E+02 -0.29296823239E+02  0.41775969465E+02  0.00000000000E+00 0.  1.
</event>
<event>
 7    1  0.3662489E-015  0.9000767E+02  0.7816164E-02  0.1186339E+00
        -11   -1    0    0    0    0  0.00000000000E+00  0.00000000000E+00  0.45593999997E+02  0.45594000000E+02  0.51100000000E-03 0.  1.
         11   -1    0    0    0    0 -0.00000000000E+00 -0.00000000000E+00 -0.45593999997E+02  0.45594000000E+02  0.51100000000E-03 0. -1.
    9900012    2    1    2    0    0 -0.86819220640E+00  0.59577919881E+00 -0.53334799829E+00  0.90007673499E+02  0.89999933989E+02 0.  0.
        -12    1    1    2    0    0  0.86819220640E+00 -0.59577919881E+00  0.53334799829E+00  0.11803265007E+01  0.00000000000E+00 0.  1.
         11    1    3    3    0    0 -0.16590580386E+01 -0.98462116961E+01  0.61388413404E+01  0.11721165966E+02  0.51100000000E-03 0. -1.
        -11    1    3    3    0    0 -0.15938804670E+02 -0.16433799936E+02  0.24727438895E+02  0.33698093555E+02  0.51100000000E-03 0.  1.
         12    1    3    3    0    0  0.16729670502E+02  0.26875790831E+02 -0.31399628234E+02  0.44588413979E+02  0.00000000000E+00 0. -1.
</event>
<event>
 7    1  0.3662489E-015  0.9000774E+02  0.7816164E-02  0.1186339E+00
        -11   -1    0    0    0    0  0.00000000000E+00  0.00000000000E+00  0.45593999997E+02  0.45594000000E+02  0.51100000000E-03 0.  1.
         11   -1    0    0    0    0 -0.00000000000E+00 -0.00000000000E+00 -0.45593999997E+02  0.45594000000E+02  0.51100000000E-03 0. -1.
    9900012    2    1    2    0    0 -0.65576443322E+00  0.39899102680E+00 -0.89654008257E+00  0.90007743693E+02  0.90000005109E+02 0.  0.
        -12    1    1    2    0    0  0.65576443322E+00 -0.39899102680E+00  0.89654008257E+00  0.11802563073E+01  0.00000000000E+00 0.  1.
         11    1    3    3    0    0  0.10324140501E+02  0.11748027536E+02  0.45262583656E+00  0.15646370137E+02  0.51100000000E-03 0. -1.
        -11    1    3    3    0    0  0.33833977188E+01  0.27516010802E+02  0.12856938631E+02  0.30559435561E+02  0.51100000000E-03 0.  1.
         12    1    3    3    0    0 -0.14363302653E+02 -0.38865047311E+02 -0.14206104551E+02  0.43801937994E+02  0.00000000000E+00 0. -1.
</event>
<event>
 7    1  0.3662489E-015  0.9000776E+02  0.7816164E-02  0.1186339E+00
        -11   -1    0    0    0    0  0.00000000000E+00  0.00000000000E+00  0.45593999997E+02  0.45594000000E+02  0.51100000000E-03 0.  1.
         11   -1    0    0    0    0 -0.00000000000E+00 -0.00000000000E+00 -0.45593999997E+02  0.45594000000E+02  0.51100000000E-03 0. -1.
    9900012    2    1    2    0    0  0.79680344607E+00 -0.60632300257E-01  0.86855888585E+00  0.90007759963E+02  0.90000021594E+02 0.  0.
        -12    1    1    2    0    0 -0.79680344607E+00  0.60632300257E-01 -0.86855888585E+00  0.11802400373E+01  0.00000000000E+00 0.  1.
         11    1    3    3    0    0 -0.29426997850E+01  0.34149351220E+02 -0.23942327943E+02  0.41809959799E+02  0.51100000000E-03 0. -1.
        -11    1    3    3    0    0  0.19563168518E+01  0.25012915757E+01  0.62773799340E+01  0.70348514034E+01  0.51100000000E-03 0.  1.
        -12    1    3    3    0    0  0.17831863792E+01 -0.36711275096E+02  0.18533506895E+02  0.41162948761E+02  0.00000000000E+00 0.  1.
</event>
<event>
 7    1  0.3662489E-015  0.9000723E+02  0.7816164E-02  0.1186340E+00
        -11   -1    0    0    0    0  0.00000000000E+00  0.00000000000E+00  0.45593999997E+02  0.45594000000E+02  0.51100000000E-03 0.  1.
         11   -1    0    0    0    0 -0.00000000000E+00 -0.00000000000E+00 -0.45593999997E+02  0.45594000000E+02  0.51100000000E-03 0. -1.
    9900012    2    1    2    0    0 -0.20903012760E+00  0.42032611391E+00  0.10834450234E+01  0.90007228746E+02  0.89999483364E+02 0.  0.
        -12    1    1    2    0    0  0.20903012760E+00 -0.42032611391E+00 -0.10834450234E+01  0.11807712543E+01  0.00000000000E+00 0.  1.
         11    1    3    3    0    0 -0.22562731673E+01  0.41137515905E+01  0.55767058019E+01  0.72878919185E+01  0.51100000000E-03 0. -1.
        -11    1    3    3    0    0  0.23420600991E+02  0.26454801410E+02  0.17797059498E+02  0.39561551985E+02  0.51100000000E-03 0.  1.
         12    1    3    3    0    0 -0.21373357951E+02 -0.30148226886E+02 -0.22290320276E+02  0.43157784843E+02  0.00000000000E+00 0. -1.
</event>
<event>
 7    1  0.3662489E-015  0.9000768E+02  0.7816164E-02  0.1186339E+00
        -11   -1    0    0    0    0  0.00000000000E+00  0.00000000000E+00  0.45593999997E+02  0.45594000000E+02  0.51100000000E-03 0.  1.
         11   -1    0    0    0    0 -0.00000000000E+00 -0.00000000000E+00 -0.45593999997E+02  0.45594000000E+02  0.51100000000E-03 0. -1.
    9900012    2    1    2    0    0 -0.43340591675E+00  0.95257124032E+00 -0.54582099308E+00  0.90007680885E+02  0.89999941473E+02 0.  0.
        -12    1    1    2    0    0  0.43340591675E+00 -0.95257124032E+00  0.54582099308E+00  0.11803191149E+01  0.00000000000E+00 0.  1.
         11    1    3    3    0    0 -0.10128508682E+02  0.34210312714E+01  0.31208438984E+01  0.11136867153E+02  0.51100000000E-03 0. -1.
        -11    1    3    3    0    0 -0.12509183208E+02 -0.30816442580E+02  0.17001338247E+02  0.37352085621E+02  0.51100000000E-03 0.  1.
         12    1    3    3    0    0  0.22204285973E+02  0.28347982549E+02 -0.20668003138E+02  0.41518728111E+02  0.00000000000E+00 0. -1.
</event>
<event>
 7    1  0.3662489E-015  0.9000745E+02  0.7816164E-02  0.1186340E+00
        -11   -1    0    0    0    0  0.00000000000E+00  0.00000000000E+00  0.45593999997E+02  0.45594000000E+02  0.51100000000E-03 0.  1.
         11   -1    0    0    0    0 -0.00000000000E+00 -0.00000000000E+00 -0.45593999997E+02  0.45594000000E+02  0.51100000000E-03 0. -1.
    9900012    2    1    2    0    0 -0.64857438718E+00 -0.90299345610E+00  0.39704757214E+00  0.90007452376E+02  0.89999709947E+02 0.  0.
        -12    1    1    2    0    0  0.64857438718E+00  0.90299345610E+00 -0.39704757214E+00  0.11805476238E+01  0.00000000000E+00 0.  1.
         11    1    3    3    0    0 -0.71264743429E+01  0.32563329393E+01 -0.80325304994E+01  0.11221046620E+02  0.51100000000E-03 0. -1.
        -11    1    3    3    0    0 -0.15422120951E+02 -0.33748996198E+02 -0.88097808699E+01  0.38137236374E+02  0.51100000000E-03 0.  1.
         12    1    3    3    0    0  0.21900020906E+02  0.29589669803E+02  0.17239358941E+02  0.40649169382E+02  0.00000000000E+00 0. -1.
</event>
<event>
 7    1  0.3662489E-015  0.9000776E+02  0.7816164E-02  0.1186339E+00
        -11   -1    0    0    0    0  0.00000000000E+00  0.00000000000E+00  0.45593999997E+02  0.45594000000E+02  0.51100000000E-03 0. -1.
         11   -1    0    0    0    0 -0.00000000000E+00 -0.00000000000E+00 -0.45593999997E+02  0.45594000000E+02  0.51100000000E-03 0.  1.
    9900012    2    1    2    0    0 -0.92760073601E+00  0.72948368856E+00  0.19225026916E-01  0.90007763084E+02  0.90000024756E+02 0.  0.
        -12    1    1    2    0    0  0.92760073601E+00 -0.72948368856E+00 -0.19225026916E-01  0.11802369165E+01  0.00000000000E+00 0.  1.
         11    1    3    3    0    0  0.31727622093E+02  0.12859282942E+02  0.23105094438E+02  0.41301919456E+02  0.51100000000E-03 0. -1.
        -11    1    3    3    0    0 -0.20246226911E+01  0.53894065339E+01  0.11850971881E+01  0.58778614679E+01  0.51100000000E-03 0.  1.
        -12    1    3    3    0    0 -0.30630600138E+02 -0.17519205788E+02 -0.24270966599E+02  0.42827982160E+02  0.00000000000E+00 0.  1.
</event>
<event>
 7    1  0.3662489E-015  0.9000771E+02  0.7816164E-02  0.1186339E+00
        -11   -1    0    0    0    0  0.00000000000E+00  0.00000000000E+00  0.45593999997E+02  0.45594000000E+02  0.51100000000E-03 0.  1.
         11   -1    0    0    0    0 -0.00000000000E+00 -0.00000000000E+00 -0.45593999997E+02  0.45594000000E+02  0.51100000000E-03 0. -1.
    9900012    2    1    2    0    0 -0.62173556313E+00  0.88578942184E+00 -0.47107081536E+00  0.90007709475E+02  0.89999970440E+02 0.  0.
        -12    1    1    2    0    0  0.62173556313E+00 -0.88578942184E+00  0.47107081536E+00  0.11802905250E+01  0.00000000000E+00 0.  1.
         11    1    3    3    0    0  0.57248716263E+01 -0.38039366028E+01  0.59929152124E+01  0.91191623420E+01  0.51100000000E-03 0. -1.
        -11    1    3    3    0    0  0.33476919059E+02  0.16320428325E+02  0.56489339283E+01  0.37669230749E+02  0.51100000000E-03 0.  1.
         12    1    3    3    0    0 -0.39823526249E+02 -0.11630702300E+02 -0.12112919956E+02  0.43219316384E+02  0.00000000000E+00 0. -1.
</event>
<event>
 7    1  0.3662489E-015  0.9000782E+02  0.7816164E-02  0.1186339E+00
        -11   -1    0    0    0    0  0.00000000000E+00  0.00000000000E+00  0.45593999997E+02  0.45594000000E+02  0.51100000000E-03 0.  1.
         11   -1    0    0    0    0 -0.00000000000E+00 -0.00000000000E+00 -0.45593999997E+02  0.45594000000E+02  0.51100000000E-03 0. -1.
    9900012    2    1    2    0    0 -0.10397047408E+01 -0.33699096945E-01 -0.55740605911E+00  0.90007820737E+02  0.90000083171E+02 0.  0.
        -12    1    1    2    0    0  0.10397047408E+01  0.33699096945E-01  0.55740605911E+00  0.11801792627E+01  0.00000000000E+00 0.  1.
         11    1    3    3    0    0  0.14547978564E+02  0.34492958087E+02 -0.99956407710E+01  0.38746879520E+02  0.51100000000E-03 0. -1.
        -11    1    3    3    0    0 -0.24980482425E+01  0.34422346290E+01 -0.67344790474E+01  0.79650758041E+01  0.51100000000E-03 0.  1.
        -12    1    3    3    0    0 -0.13089635062E+02 -0.37968891813E+02  0.16172713759E+02  0.43295865413E+02  0.00000000000E+00 0.  1.
</event>
<event>
 7    1  0.3662489E-015  0.9000709E+02  0.7816164E-02  0.1186340E+00
        -11   -1    0    0    0    0  0.00000000000E+00  0.00000000000E+00  0.45593999997E+02  0.45594000000E+02  0.51100000000E-03 0.  1.
         11   -1    0    0    0    0 -0.00000000000E+00 -0.00000000000E+00 -0.45593999997E+02  0.45594000000E+02  0.51100000000E-03 0. -1.
    9900012    2    1    2    0    0 -0.71842740740E+00 -0.84978191178E+00 -0.39532935779E+00  0.90007088260E+02  0.89999341022E+02 0.  0.
        -12    1    1    2    0    0  0.71842740740E+00  0.84978191178E+00  0.39532935779E+00  0.11809117403E+01  0.00000000000E+00 0.  1.
         11    1    3    3    0    0 -0.17718851627E+02 -0.84282073821E+01 -0.32166219226E+02  0.37678349781E+02  0.51100000000E-03 0. -1.
        -11    1    3    3    0    0 -0.45553670387E+01 -0.38934970516E+01 -0.52587509884E+01  0.79727755749E+01  0.51100000000E-03 0.  1.
        -12    1    3    3    0    0  0.21555791259E+02  0.11471922522E+02  0.37029640857E+02  0.44355962904E+02  0.00000000000E+00 0.  1.
</event>
<event>
 7    1  0.3662489E-015  0.9000778E+02  0.7816164E-02  0.1186339E+00
        -11   -1    0    0    0    0  0.00000000000E+00  0.00000000000E+00  0.45593999997E+02  0.45594000000E+02  0.51100000000E-03 0.  1.
         11   -1    0    0    0    0 -0.00000000000E+00 -0.00000000000E+00 -0.45593999997E+02  0.45594000000E+02  0.51100000000E-03 0. -1.
    9900012    2    1    2    0    0 -0.45900898377E+00  0.14719980967E+00 -0.10772930534E+01  0.90007780803E+02  0.90000042709E+02 0.  0.
        -12    1    1    2    0    0  0.45900898377E+00 -0.14719980967E+00  0.10772930534E+01  0.11802191975E+01  0.00000000000E+00 0.  1.
         11    1    3    3    0    0  0.39694158450E+01 -0.60022705871E+01 -0.84314840390E+01  0.11084829169E+02  0.51100000000E-03 0. -1.
        -11    1    3    3    0    0  0.33607169782E+02  0.10303807694E+02  0.17602669913E+02  0.39312393746E+02  0.51100000000E-03 0.  1.
         12    1    3    3    0    0 -0.38035594611E+02 -0.41543372968E+01 -0.10248478928E+02  0.39610557887E+02  0.00000000000E+00 0. -1.
</event>
<event>
 7    1  0.3662489E-015  0.9000783E+02  0.7816164E-02  0.1186339E+00
        -11   -1    0    0    0    0  0.00000000000E+00  0.00000000000E+00  0.45593999997E+02  0.45594000000E+02  0.51100000000E-03 0.  1.
         11   -1    0    0    0    0 -0.00000000000E+00 -0.00000000000E+00 -0.45593999997E+02  0.45594000000E+02  0.51100000000E-03 0. -1.
    9900012    2    1    2    0    0 -0.44287632343E+00  0.61081787291E+00 -0.90750932192E+00  0.90007825826E+02  0.90000088327E+02 0.  0.
        -12    1    1    2    0    0  0.44287632343E+00 -0.61081787291E+00  0.90750932192E+00  0.11801741741E+01  0.00000000000E+00 0.  1.
         11    1    3    3    0    0  0.16810736766E+01  0.38427317777E+01 -0.46983586981E+01  0.62981879092E+01  0.51100000000E-03 0. -1.
        -11    1    3    3    0    0 -0.39713172911E+02 -0.16969134088E+02 -0.22015622299E+01  0.43242739169E+02  0.51100000000E-03 0.  1.
         12    1    3    3    0    0  0.37589222911E+02  0.13737220184E+02  0.59924116062E+01  0.40466898748E+02  0.00000000000E+00 0. -1.
</event>
<event>
 7    1  0.3662489E-015  0.9000774E+02  0.7816164E-02  0.1186339E+00
        -11   -1    0    0    0    0  0.00000000000E+00  0.00000000000E+00  0.45593999997E+02  0.45594000000E+02  0.51100000000E-03 0.  1.
         11   -1    0    0    0    0 -0.00000000000E+00 -0.00000000000E+00 -0.45593999997E+02  0.45594000000E+02  0.51100000000E-03 0. -1.
    9900012    2    1    2    0    0  0.35390517690E+00 -0.10327535327E+01 -0.44853547180E+00  0.90007740366E+02  0.90000001739E+02 0.  0.
        -12    1    1    2    0    0 -0.35390517690E+00  0.10327535327E+01  0.44853547180E+00  0.11802596337E+01  0.00000000000E+00 0.  1.
         11    1    3    3    0    0  0.21068342390E+02 -0.30873773717E+02 -0.57162407109E+01  0.37811907684E+02  0.51100000000E-03 0. -1.
        -11    1    3    3    0    0 -0.10382227926E+01 -0.82744276966E+01  0.40823790968E+01  0.92849275509E+01  0.51100000000E-03 0.  1.
        -12    1    3    3    0    0 -0.19676214421E+02  0.38115447881E+02  0.11853261423E+01  0.42910905131E+02  0.00000000000E+00 0.  1.
</event>
<event>
 7    1  0.3662489E-015  0.9000700E+02  0.7816164E-02  0.1186341E+00
        -11   -1    0    0    0    0  0.00000000000E+00  0.00000000000E+00  0.45593999997E+02  0.45594000000E+02  0.51100000000E-03 0. -1.
         11   -1    0    0    0    0 -0.00000000000E+00 -0.00000000000E+00 -0.45593999997E+02  0.45594000000E+02  0.51100000000E-03 0.  1.
    9900012    2    1    2    0    0 -0.15298693594E+00  0.62657532422E+00  0.98932242837E+00  0.90007000209E+02  0.89999251808E+02 0.  0.
        -12    1    1    2    0    0  0.15298693594E+00 -0.62657532422E+00 -0.98932242837E+00  0.11809997912E+01  0.00000000000E+00 0.  1.
         11    1    3    3    0    0  0.57215801465E+01 -0.47245803361E+01  0.50528509076E+01  0.89771622065E+01  0.51100000000E-03 0. -1.
        -11    1    3    3    0    0  0.10697183503E+01 -0.31061190761E+02 -0.23696694999E+02  0.39082927513E+02  0.51100000000E-03 0.  1.
         12    1    3    3    0    0 -0.69442854327E+01  0.36412346421E+02  0.19633166520E+02  0.41946910490E+02  0.00000000000E+00 0. -1.
</event>
<event>
 7    1  0.3662489E-015  0.9000778E+02  0.7816164E-02  0.1186339E+00
        -11   -1    0    0    0    0  0.00000000000E+00  0.00000000000E+00  0.45593999997E+02  0.45594000000E+02  0.51100000000E-03 0. -1.
         11   -1    0    0    0    0 -0.00000000000E+00 -0.00000000000E+00 -0.45593999997E+02  0.45594000000E+02  0.51100000000E-03 0.  1.
    9900012    2    1    2    0    0 -0.50255296501E+00 -0.10385454428E+01  0.24856813340E+00  0.90007778734E+02  0.90000040613E+02 0.  0.
        -12    1    1    2    0    0  0.50255296501E+00  0.10385454428E+01 -0.24856813340E+00  0.11802212659E+01  0.00000000000E+00 0.  1.
         11    1    3    3    0    0 -0.16888135379E+02 -0.19536364917E+01  0.34488817135E+02  0.38451324031E+02  0.51100000000E-03 0. -1.
        -11    1    3    3    0    0 -0.25615735448E+01  0.73188224774E+01  0.37575046957E+01  0.86165923242E+01  0.51100000000E-03 0.  1.
        -12    1    3    3    0    0  0.18947155959E+02 -0.64037314285E+01 -0.37997753697E+02  0.42939862379E+02  0.00000000000E+00 0.  1.
</event>
<event>
 7    1  0.3662489E-015  0.9000789E+02  0.7816164E-02  0.1186339E+00
        -11   -1    0    0    0    0  0.00000000000E+00  0.00000000000E+00  0.45593999997E+02  0.45594000000E+02  0.51100000000E-03 0. -1.
         11   -1    0    0    0    0 -0.00000000000E+00 -0.00000000000E+00 -0.45593999997E+02  0.45594000000E+02  0.51100000000E-03 0.  1.
    9900012    2    1    2    0    0  0.66237970650E+00  0.80223768609E+00  0.55706213281E+00  0.90007893903E+02  0.90000157302E+02 0.  0.
        -12    1    1    2    0    0 -0.66237970650E+00 -0.80223768609E+00 -0.55706213281E+00  0.11801060971E+01  0.00000000000E+00 0.  1.
         11    1    3    3    0    0 -0.76366298991E+01  0.24099973332E+00 -0.93533217058E+00  0.76974699492E+01  0.51100000000E-03 0. -1.
        -11    1    3    3    0    0 -0.31789772257E+02  0.20144719704E+02  0.20450117420E+01  0.37690601287E+02  0.51100000000E-03 0.  1.
         12    1    3    3    0    0  0.40088781863E+02 -0.19583481751E+02 -0.55261743865E+00  0.44619822666E+02  0.00000000000E+00 0. -1.
</event>
<event>
 7    1  0.3662489E-015  0.9000790E+02  0.7816164E-02  0.1186339E+00
        -11   -1    0    0    0    0  0.00000000000E+00  0.00000000000E+00  0.45593999997E+02  0.45594000000E+02  0.51100000000E-03 0.  1.
         11   -1    0    0    0    0 -0.00000000000E+00 -0.00000000000E+00 -0.45593999997E+02  0.45594000000E+02  0.51100000000E-03 0. -1.
    9900012    2    1    2    0    0 -0.11789952506E+01  0.50410255777E-01  0.78899405982E-02  0.90007901171E+02  0.90000164666E+02 0.  0.
        -12    1    1    2    0    0  0.11789952506E+01 -0.50410255777E-01 -0.78899405982E-02  0.11800988289E+01  0.00000000000E+00 0.  1.
         11    1    3    3    0    0  0.17509528786E+02 -0.25867719746E+01 -0.11999493115E+02  0.21383704610E+02  0.51100000000E-03 0. -1.
        -11    1    3    3    0    0 -0.25765888853E+02 -0.10672334060E+02 -0.19273552997E+02  0.33900583890E+02  0.51100000000E-03 0.  1.
         12    1    3    3    0    0  0.70773648158E+01  0.13309516290E+02  0.31280936053E+02  0.34723612671E+02  0.00000000000E+00 0. -1.
</event>
<event>
 7    1  0.3662489E-015  0.9000792E+02  0.7816164E-02  0.1186339E+00
        -11   -1    0    0    0    0  0.00000000000E+00  0.00000000000E+00  0.45593999997E+02  0.45594000000E+02  0.51100000000E-03 0. -1.
         11   -1    0    0    0    0 -0.00000000000E+00 -0.00000000000E+00 -0.45593999997E+02  0.45594000000E+02  0.51100000000E-03 0.  1.
    9900012    2    1    2    0    0  0.46215265327E+00  0.10793813748E+01 -0.11807174149E+00  0.90007919425E+02  0.90000183161E+02 0.  0.
        -12    1    1    2    0    0 -0.46215265327E+00 -0.10793813748E+01  0.11807174149E+00  0.11800805750E+01  0.00000000000E+00 0.  1.
         11    1    3    3    0    0  0.25692684496E+01  0.67462376902E+01  0.65256707845E+01  0.97312508336E+01  0.51100000000E-03 0. -1.
        -11    1    3    3    0    0  0.30870530485E+00  0.14040799988E+02  0.33041078376E+02  0.35901980778E+02  0.51100000000E-03 0.  1.
         12    1    3    3    0    0 -0.24158211011E+01 -0.19707656303E+02 -0.39684820902E+02  0.44374687814E+02  0.00000000000E+00 0. -1.
</event>
<event>
 7    1  0.3662489E-015  0.9000774E+02  0.7816164E-02  0.1186339E+00
        -11   -1    0    0    0    0  0.00000000000E+00  0.00000000000E+00  0.45593999997E+02  0.45594000000E+02  0.51100000000E-03 0.  1.
         11   -1    0    0    0    0 -0.00000000000E+00 -0.00000000000E+00 -0.45593999997E+02  0.45594000000E+02  0.51100000000E-03 0. -1.
    9900012    2    1    2    0    0 -0.13228161001E+00  0.24834140786E+00 -0.11462342547E+01  0.90007735265E+02  0.89999996570E+02 0.  0.
        -12    1    1    2    0    0  0.13228161001E+00 -0.24834140786E+00  0.11462342547E+01  0.11802647355E+01  0.00000000000E+00 0.  1.
         11    1    3    3    0    0  0.54364307091E+01 -0.63051187677E+01  0.57245880393E+01  0.10103475145E+02  0.51100000000E-03 0. -1.
        -11    1    3    3    0    0  0.74355045285E+01 -0.22646429025E+02  0.25156241792E+02  0.34655215719E+02  0.51100000000E-03 0.  1.
         12    1    3    3    0    0 -0.13004216848E+02  0.29199889201E+02 -0.32027064086E+02  0.45249044400E+02  0.00000000000E+00 0. -1.
</event>
<event>
 7    1  0.3662489E-015  0.9000751E+02  0.7816164E-02  0.1186340E+00
        -11   -1    0    0    0    0  0.00000000000E+00  0.00000000000E+00  0.45593999997E+02  0.45594000000E+02  0.51100000000E-03 0.  1.
         11   -1    0    0    0    0 -0.00000000000E+00 -0.00000000000E+00 -0.45593999997E+02  0.45594000000E+02  0.51100000000E-03 0. -1.
    9900012    2    1    2    0    0 -0.27963219783E+00  0.10533243191E+01  0.45374061209E+00  0.90007505684E+02  0.89999763959E+02 0.  0.
        -12    1    1    2    0    0  0.27963219783E+00 -0.10533243191E+01 -0.45374061209E+00  0.11804943161E+01  0.00000000000E+00 0.  1.
         11    1    3    3    0    0  0.26375204389E+02  0.25911664691E+02 -0.12685167156E+02  0.39089375022E+02  0.51100000000E-03 0. -1.
        -11    1    3    3    0    0 -0.39382661166E+01  0.49855703853E+01 -0.60632861691E+01  0.87823283645E+01  0.51100000000E-03 0.  1.
        -12    1    3    3    0    0 -0.22716570470E+02 -0.29843910757E+02  0.19202193937E+02  0.42135802297E+02  0.00000000000E+00 0.  1.
</event>
<event>
 7    1  0.3662489E-015  0.9000780E+02  0.7816164E-02  0.1186339E+00
        -11   -1    0    0    0    0  0.00000000000E+00  0.00000000000E+00  0.45593999997E+02  0.45594000000E+02  0.51100000000E-03 0. -1.
         11   -1    0    0    0    0 -0.00000000000E+00 -0.00000000000E+00 -0.45593999997E+02  0.45594000000E+02  0.51100000000E-03 0.  1.
    9900012    2    1    2    0    0 -0.60299608048E+00  0.13580186633E+00  0.10053992561E+01  0.90007799134E+02  0.90000061283E+02 0.  0.
        -12    1    1    2    0    0  0.60299608048E+00 -0.13580186633E+00 -0.10053992561E+01  0.11802008660E+01  0.00000000000E+00 0.  1.
         11    1    3    3    0    0 -0.83681609196E+00  0.34187000420E+02  0.33902789476E+01  0.34364883974E+02  0.51100000000E-03 0. -1.
        -11    1    3    3    0    0  0.17626713688E+02 -0.34764971275E+01  0.69273369992E+01  0.19255520400E+02  0.51100000000E-03 0.  1.
        -12    1    3    3    0    0 -0.17392893676E+02 -0.30574701427E+02 -0.93122166907E+01  0.36387394761E+02  0.00000000000E+00 0.  1.
</event>
<event>
 7    1  0.3662489E-015  0.9000757E+02  0.7816164E-02  0.1186339E+00
        -11   -1    0    0    0    0  0.00000000000E+00  0.00000000000E+00  0.45593999997E+02  0.45594000000E+02  0.51100000000E-03 0.  1.
         11   -1    0    0    0    0 -0.00000000000E+00 -0.00000000000E+00 -0.45593999997E+02  0.45594000000E+02  0.51100000000E-03 0. -1.
    9900012    2    1    2    0    0 -0.43921755751E+00 -0.93779720803E+00 -0.56659565974E+00  0.90007573675E+02  0.89999832848E+02 0.  0.
        -12    1    1    2    0    0  0.43921755751E+00  0.93779720803E+00  0.56659565974E+00  0.11804263246E+01  0.00000000000E+00 0.  1.
         11    1    3    3    0    0 -0.70152359816E+01 -0.44148938990E+01  0.20747003162E+01  0.85445424500E+01  0.51100000000E-03 0. -1.
        -11    1    3    3    0    0  0.15161760139E+02 -0.21707736956E+02 -0.32202425261E+02  0.41690538581E+02  0.51100000000E-03 0.  1.
         12    1    3    3    0    0 -0.85857417146E+01  0.25184833646E+02  0.29561129285E+02  0.39772492645E+02  0.00000000000E+00 0. -1.
</event>
<event>
 7    1  0.3662489E-015  0.9000772E+02  0.7816164E-02  0.1186339E+00
        -11   -1    0    0    0    0  0.00000000000E+00  0.00000000000E+00  0.45593999997E+02  0.45594000000E+02  0.51100000000E-03 0.  1.
         11   -1    0    0    0    0 -0.00000000000E+00 -0.00000000000E+00 -0.45593999997E+02  0.45594000000E+02  0.51100000000E-03 0. -1.
    9900012    2    1    2    0    0 -0.23718447591E+00  0.10781052375E+01 -0.41771489673E+00  0.90007723289E+02  0.89999984437E+02 0.  0.
        -12    1    1    2    0    0  0.23718447591E+00 -0.10781052375E+01  0.41771489673E+00  0.11802767107E+01  0.00000000000E+00 0.  1.
         11    1    3    3    0    0 -0.29595368347E+02 -0.12529122292E+01  0.50312455408E+01  0.30046115367E+02  0.51100000000E-03 0. -1.
        -11    1    3    3    0    0 -0.40987149699E+01 -0.18121774519E+02  0.52648726611E+01  0.19311060574E+02  0.51100000000E-03 0.  1.
         12    1    3    3    0    0  0.33456898841E+02  0.20452791985E+02 -0.10713833099E+02  0.40650547349E+02  0.00000000000E+00 0. -1.
</event>
<event>
 7    1  0.3662489E-015  0.9000777E+02  0.7816164E-02  0.1186339E+00
        -11   -1    0    0    0    0  0.00000000000E+00  0.00000000000E+00  0.45593999997E+02  0.45594000000E+02  0.51100000000E-03 0.  1.
         11   -1    0    0    0    0 -0.00000000000E+00 -0.00000000000E+00 -0.45593999997E+02  0.45594000000E+02  0.51100000000E-03 0. -1.
    9900012    2    1    2    0    0 -0.79810959151E+00 -0.84931214465E+00 -0.18608851732E+00  0.90007771643E+02  0.90000033428E+02 0.  0.
        -12    1    1    2    0    0  0.79810959151E+00  0.84931214465E+00  0.18608851732E+00  0.11802283573E+01  0.00000000000E+00 0.  1.
         11    1    3    3    0    0  0.11547007055E+02  0.41787891755E+01 -0.33984695251E+02  0.36135234363E+02  0.51100000000E-03 0. -1.
        -11    1    3    3    0    0  0.54792473476E+00 -0.59455093378E+01 -0.80788086898E+01  0.10045718138E+02  0.51100000000E-03 0.  1.
        -12    1    3    3    0    0 -0.12893041381E+02  0.91740801763E+00  0.41877415423E+02  0.43826819142E+02  0.00000000000E+00 0.  1.
</event>
<event>
 7    1  0.3662489E-015  0.9000773E+02  0.7816164E-02  0.1186339E+00
        -11   -1    0    0    0    0  0.00000000000E+00  0.00000000000E+00  0.45593999997E+02  0.45594000000E+02  0.51100000000E-03 0. -1.
         11   -1    0    0    0    0 -0.00000000000E+00 -0.00000000000E+00 -0.45593999997E+02  0.45594000000E+02  0.51100000000E-03 0.  1.
    9900012    2    1    2    0    0 -0.84608885508E+00  0.22533753870E+00 -0.79144790414E+00  0.90007731750E+02  0.89999993009E+02 0.  0.
        -12    1    1    2    0    0  0.84608885508E+00 -0.22533753870E+00  0.79144790414E+00  0.11802682500E+01  0.00000000000E+00 0.  1.
         11    1    3    3    0    0  0.83657190088E+01  0.47640071728E+01  0.15801847324E+01  0.97559214289E+01  0.51100000000E-03 0. -1.
        -11    1    3    3    0    0  0.88421869564E+01 -0.39034869530E+02 -0.82793059741E+01  0.40871166084E+02  0.51100000000E-03 0.  1.
         12    1    3    3    0    0 -0.18053994820E+02  0.34496199896E+02  0.59076733376E+01  0.39380644237E+02  0.00000000000E+00 0. -1.
</event>
<event>
 7    1  0.3662489E-015  0.9000756E+02  0.7816164E-02  0.1186339E+00
        -11   -1    0    0    0    0  0.00000000000E+00  0.00000000000E+00  0.45593999997E+02  0.45594000000E+02  0.51100000000E-03 0.  1.
         11   -1    0    0    0    0 -0.00000000000E+00 -0.00000000000E+00 -0.45593999997E+02  0.45594000000E+02  0.51100000000E-03 0. -1.
    9900012    2    1    2    0    0  0.78514788469E+00  0.55313331024E+00 -0.68631465861E+00  0.90007558781E+02  0.89999817757E+02 0.  0.
        -12    1    1    2    0    0 -0.78514788469E+00 -0.55313331024E+00  0.68631465861E+00  0.11804412185E+01  0.00000000000E+00 0.  1.
         11    1    3    3    0    0 -0.72726534797E+01  0.72000781122E+01 -0.10139463417E+01  0.10284002183E+02  0.51100000000E-03 0. -1.
        -11    1    3    3    0    0 -0.15698501734E+02  0.24285485861E+02 -0.20558748495E+02  0.35480838774E+02  0.51100000000E-03 0.  1.
         12    1    3    3    0    0  0.23756303098E+02 -0.30932430663E+02  0.20886380178E+02  0.44242717825E+02  0.00000000000E+00 0. -1.
</event>
<event>
 7    1  0.3662489E-015  0.9000771E+02  0.7816164E-02  0.1186339E+00
        -11   -1    0    0    0    0  0.00000000000E+00  0.00000000000E+00  0.45593999997E+02  0.45594000000E+02  0.51100000000E-03 0. -1.
         11   -1    0    0    0    0 -0.00000000000E+00 -0.00000000000E+00 -0.45593999997E+02  0.45594000000E+02  0.51100000000E-03 0.  1.
    9900012    2    1    2    0    0  0.17534012639E+00 -0.62163432419E+00  0.98787729195E+00  0.90007714044E+02  0.89999975070E+02 0.  0.
        -12    1    1    2    0    0 -0.17534012639E+00  0.62163432419E+00 -0.98787729195E+00  0.11802859556E+01  0.00000000000E+00 0.  1.
         11    1    3    3    0    0 -0.16094871044E+02  0.31796780269E+02  0.16894857724E+02  0.39440034574E+02  0.51100000000E-03 0. -1.
        -11    1    3    3    0    0  0.48430728918E+01  0.30501885018E+00  0.73640090627E+01  0.88191281469E+01  0.51100000000E-03 0.  1.
        -12    1    3    3    0    0  0.11427138279E+02 -0.32723433443E+02 -0.23270989495E+02  0.41748551324E+02  0.00000000000E+00 0.  1.
</event>
<event>
 7    1  0.3662489E-015  0.9000786E+02  0.7816164E-02  0.1186339E+00
        -11   -1    0    0    0    0  0.00000000000E+00  0.00000000000E+00  0.45593999997E+02  0.45594000000E+02  0.51100000000E-03 0.  1.
         11   -1    0    0    0    0 -0.00000000000E+00 -0.00000000000E+00 -0.45593999997E+02  0.45594000000E+02  0.51100000000E-03 0. -1.
    9900012    2    1    2    0    0 -0.25418042753E+00  0.91491964226E+00 -0.70075280990E+00  0.90007855881E+02  0.90000118778E+02 0.  0.
        -12    1    1    2    0    0  0.25418042753E+00 -0.91491964226E+00  0.70075280990E+00  0.11801441192E+01  0.00000000000E+00 0.  1.
         11    1    3    3    0    0 -0.10088204234E+01  0.10378637896E+02 -0.40853075025E+00  0.10435551775E+02  0.51100000000E-03 0. -1.
        -11    1    3    3    0    0  0.17599382723E+02  0.29260860212E+02  0.10973616440E+02  0.35865812002E+02  0.51100000000E-03 0.  1.
         12    1    3    3    0    0 -0.16844742727E+02 -0.38724578466E+02 -0.11265838500E+02  0.43706492103E+02  0.00000000000E+00 0. -1.
</event>
<event>
 7    1  0.3662489E-015  0.9000762E+02  0.7816164E-02  0.1186339E+00
        -11   -1    0    0    0    0  0.00000000000E+00  0.00000000000E+00  0.45593999997E+02  0.45594000000E+02  0.51100000000E-03 0.  1.
         11   -1    0    0    0    0 -0.00000000000E+00 -0.00000000000E+00 -0.45593999997E+02  0.45594000000E+02  0.51100000000E-03 0. -1.
    9900012    2    1    2    0    0 -0.91957707118E+00  0.73715652973E+00 -0.65408128870E-01  0.90007618722E+02  0.89999878489E+02 0.  0.
        -12    1    1    2    0    0  0.91957707118E+00 -0.73715652973E+00  0.65408128870E-01  0.11803812784E+01  0.00000000000E+00 0.  1.
         11    1    3    3    0    0  0.39584855148E+02  0.30650912473E+01 -0.15835958203E+02  0.42744977646E+02  0.51100000000E-03 0. -1.
        -11    1    3    3    0    0 -0.78519123925E+01  0.51720498087E+01 -0.15792488458E+01  0.95339737057E+01  0.51100000000E-03 0.  1.
        -12    1    3    3    0    0 -0.32652519827E+02 -0.74999845262E+01  0.17349798920E+02  0.37728667370E+02  0.00000000000E+00 0.  1.
</event>
<event>
 7    1  0.3662489E-015  0.9000778E+02  0.7816164E-02  0.1186339E+00
        -11   -1    0    0    0    0  0.00000000000E+00  0.00000000000E+00  0.45593999997E+02  0.45594000000E+02  0.51100000000E-03 0. -1.
         11   -1    0    0    0    0 -0.00000000000E+00 -0.00000000000E+00 -0.45593999997E+02  0.45594000000E+02  0.51100000000E-03 0.  1.
    9900012    2    1    2    0    0  0.88599110736E+00  0.59588060553E+00 -0.50286246852E+00  0.90007777733E+02  0.90000039599E+02 0.  0.
        -12    1    1    2    0    0 -0.88599110736E+00 -0.59588060553E+00  0.50286246852E+00  0.11802222675E+01  0.00000000000E+00 0.  1.
         11    1    3    3    0    0  0.12263684230E+01  0.45889012450E+01 -0.96972328527E+01  0.10798070170E+02  0.51100000000E-03 0. -1.
        -11    1    3    3    0    0 -0.11777295320E+01 -0.93341161439E+00 -0.34934583091E+02  0.34966890055E+02  0.51100000000E-03 0.  1.
         12    1    3    3    0    0  0.83735221640E+00 -0.30596090250E+01  0.44128953476E+02  0.44242817507E+02  0.00000000000E+00 0. -1.
</event>
<event>
 7    1  0.3662489E-015  0.9000777E+02  0.7816164E-02  0.1186339E+00
        -11   -1    0    0    0    0  0.00000000000E+00  0.00000000000E+00  0.45593999997E+02  0.45594000000E+02  0.51100000000E-03 0. -1.
         11   -1    0    0    0    0 -0.00000000000E+00 -0.00000000000E+00 -0.45593999997E+02  0.45594000000E+02  0.51100000000E-03 0.  1.
    9900012    2    1    2    0    0 -0.84479637454E+00  0.58684171450E+00  0.57868940757E+00  0.90007768860E+02  0.90000030609E+02 0.  0.
        -12    1    1    2    0    0  0.84479637454E+00 -0.58684171450E+00 -0.57868940757E+00  0.11802311395E+01  0.00000000000E+00 0.  1.
         11    1    3    3    0    0 -0.10142936793E+02  0.50837028149E+01  0.25438732527E+02  0.27854125618E+02  0.51100000000E-03 0. -1.
        -11    1    3    3    0    0  0.10786272160E+02 -0.12183350178E+01  0.16983179751E+02  0.20155803185E+02  0.51100000000E-03 0.  1.
         12    1    3    3    0    0 -0.14881317411E+01 -0.32785260827E+01 -0.41843222870E+02  0.41997840058E+02  0.00000000000E+00 0. -1.
</event>
<event>
 7    1  0.3662489E-015  0.9000772E+02  0.7816164E-02  0.1186339E+00
        -11   -1    0    0    0    0  0.00000000000E+00  0.00000000000E+00  0.45593999997E+02  0.45594000000E+02  0.51100000000E-03 0.  1.
         11   -1    0    0    0    0 -0.00000000000E+00 -0.00000000000E+00 -0.45593999997E+02  0.45594000000E+02  0.51100000000E-03 0. -1.
    9900012    2    1    2    0    0  0.21633615248E+00  0.11545574810E+01  0.11513465230E+00  0.90007720247E+02  0.89999981354E+02 0.  0.
        -12    1    1    2    0    0 -0.21633615248E+00 -0.11545574810E+01 -0.11513465230E+00  0.11802797532E+01  0.00000000000E+00 0.  1.
         11    1    3    3    0    0  0.34586646998E+02  0.94943247723E+00 -0.15340726362E+02  0.37848057522E+02  0.51100000000E-03 0. -1.
        -11    1    3    3    0    0  0.73670976006E+01  0.24843511996E+01  0.59696138745E+00  0.77975952125E+01  0.51100000000E-03 0.  1.
        -12    1    3    3    0    0 -0.41737408446E+02 -0.22792261959E+01  0.14858899626E+02  0.44362067512E+02  0.00000000000E+00 0.  1.
</event>
<event>
 7    1  0.3662489E-015  0.9000774E+02  0.7816164E-02  0.1186339E+00
        -11   -1    0    0    0    0  0.00000000000E+00  0.00000000000E+00  0.45593999997E+02  0.45594000000E+02  0.51100000000E-03 0.  1.
         11   -1    0    0    0    0 -0.00000000000E+00 -0.00000000000E+00 -0.45593999997E+02  0.45594000000E+02  0.51100000000E-03 0. -1.
    9900012    2    1    2    0    0  0.10205311301E+01 -0.38549171197E+00 -0.45046350682E+00  0.90007743664E+02  0.90000005080E+02 0.  0.
        -12    1    1    2    0    0 -0.10205311301E+01  0.38549171197E+00  0.45046350682E+00  0.11802563359E+01  0.00000000000E+00 0.  1.
         11    1    3    3    0    0  0.28442801907E+01 -0.34273217572E+01 -0.82784696952E+01  0.94005066345E+01  0.51100000000E-03 0. -1.
        -11    1    3    3    0    0 -0.11493228326E+02 -0.32480017389E+02 -0.14687400142E+02  0.37453511853E+02  0.51100000000E-03 0.  1.
         12    1    3    3    0    0  0.96694792649E+01  0.35521847434E+02  0.22515406330E+02  0.43153725177E+02  0.00000000000E+00 0. -1.
</event>
<event>
 7    1  0.3662489E-015  0.9000770E+02  0.7816164E-02  0.1186339E+00
        -11   -1    0    0    0    0  0.00000000000E+00  0.00000000000E+00  0.45593999997E+02  0.45594000000E+02  0.51100000000E-03 0.  1.
         11   -1    0    0    0    0 -0.00000000000E+00 -0.00000000000E+00 -0.45593999997E+02  0.45594000000E+02  0.51100000000E-03 0. -1.
    9900012    2    1    2    0    0 -0.20237518044E-01  0.77217402501E+00 -0.89243842862E+00  0.90007699771E+02  0.89999960608E+02 0.  0.
        -12    1    1    2    0    0  0.20237518044E-01 -0.77217402501E+00  0.89243842862E+00  0.11803002291E+01  0.00000000000E+00 0.  1.
         11    1    3    3    0    0  0.22968444426E+02  0.30424461652E+02  0.79419701191E+01  0.38939339951E+02  0.51100000000E-03 0. -1.
        -11    1    3    3    0    0 -0.59599043174E+01  0.66549751083E+01  0.27132546586E+01  0.93365359887E+01  0.51100000000E-03 0.  1.
        -12    1    3    3    0    0 -0.17028777627E+02 -0.36307262735E+02 -0.11547663206E+02  0.41731823831E+02  0.00000000000E+00 0.  1.
</event>
<event>
 7    1  0.3662489E-015  0.9000775E+02  0.7816164E-02  0.1186339E+00
        -11   -1    0    0    0    0  0.00000000000E+00  0.00000000000E+00  0.45593999997E+02  0.45594000000E+02  0.51100000000E-03 0. -1.
         11   -1    0    0    0    0 -0.00000000000E+00 -0.00000000000E+00 -0.45593999997E+02  0.45594000000E+02  0.51100000000E-03 0.  1.
    9900012    2    1    2    0    0 -0.77361183276E+00  0.21412276379E+00  0.86525103232E+00  0.90007752918E+02  0.90000014456E+02 0.  0.
        -12    1    1    2    0    0  0.77361183276E+00 -0.21412276379E+00 -0.86525103232E+00  0.11802470821E+01  0.00000000000E+00 0.  1.
         11    1    3    3    0    0  0.49379831022E+01  0.21044388311E+01 -0.65238802259E+01  0.84482751716E+01  0.51100000000E-03 0. -1.
        -11    1    3    3    0    0  0.11630402091E+02  0.38823833156E+01 -0.34092118840E+02  0.36229983719E+02  0.51100000000E-03 0.  1.
         12    1    3    3    0    0 -0.17341997026E+02 -0.57726993830E+01  0.41481250099E+02  0.45329494027E+02  0.00000000000E+00 0. -1.
</event>
<event>
 7    1  0.3662489E-015  0.9000765E+02  0.7816164E-02  0.1186339E+00
        -11   -1    0    0    0    0  0.00000000000E+00  0.00000000000E+00  0.45593999997E+02  0.45594000000E+02  0.51100000000E-03 0.  1.
         11   -1    0    0    0    0 -0.00000000000E+00 -0.00000000000E+00 -0.45593999997E+02  0.45594000000E+02  0.51100000000E-03 0. -1.
    9900012    2    1    2    0    0  0.26283361112E+00  0.41173723707E+00 -0.10745293296E+01  0.90007651602E+02  0.89999911803E+02 0.  0.
        -12    1    1    2    0    0 -0.26283361112E+00 -0.41173723707E+00  0.10745293296E+01  0.11803483976E+01  0.00000000000E+00 0.  1.
         11    1    3    3    0    0 -0.18516863738E+02 -0.29280296532E+02 -0.33713249245E+01  0.34807697995E+02  0.51100000000E-03 0. -1.
        -11    1    3    3    0    0 -0.33446221122E+01 -0.93775207899E+01 -0.17886521105E+01  0.10115516293E+02  0.51100000000E-03 0.  1.
        -12    1    3    3    0    0  0.22124319461E+02  0.39069554559E+02  0.40854477054E+01  0.45084437315E+02  0.00000000000E+00 0.  1.
</event>
<event>
 7    1  0.3662489E-015  0.9000771E+02  0.7816164E-02  0.1186339E+00
        -11   -1    0    0    0    0  0.00000000000E+00  0.00000000000E+00  0.45593999997E+02  0.45594000000E+02  0.51100000000E-03 0. -1.
         11   -1    0    0    0    0 -0.00000000000E+00 -0.00000000000E+00 -0.45593999997E+02  0.45594000000E+02  0.51100000000E-03 0.  1.
    9900012    2    1    2    0    0  0.82859755540E+00  0.27821772615E+00  0.79316527387E+00  0.90007707594E+02  0.89999968534E+02 0.  0.
        -12    1    1    2    0    0 -0.82859755540E+00 -0.27821772615E+00 -0.79316527387E+00  0.11802924060E+01  0.00000000000E+00 0.  1.
         11    1    3    3    0    0  0.14462484928E+02  0.29446495034E+02 -0.18589311925E+01  0.32859019546E+02  0.51100000000E-03 0. -1.
        -11    1    3    3    0    0  0.97929933057E+01 -0.62119253839E+01  0.17621025495E+02  0.21094816297E+02  0.51100000000E-03 0.  1.
        -12    1    3    3    0    0 -0.23426880678E+02 -0.22956351924E+02 -0.14968929029E+02  0.36053871751E+02  0.00000000000E+00 0.  1.
</event>
<event>
 7    1  0.3662489E-015  0.9000775E+02  0.7816164E-02  0.1186339E+00
        -11   -1    0    0    0    0  0.00000000000E+00  0.00000000000E+00  0.45593999997E+02  0.45594000000E+02  0.51100000000E-03 0.  1.
         11   -1    0    0    0    0 -0.00000000000E+00 -0.00000000000E+00 -0.45593999997E+02  0.45594000000E+02  0.51100000000E-03 0. -1.
    9900012    2    1    2    0    0  0.69478582191E+00 -0.31092472132E+00 -0.90199189142E+00  0.90007749648E+02  0.90000011144E+02 0.  0.
        -12    1    1    2    0    0 -0.69478582191E+00  0.31092472132E+00  0.90199189142E+00  0.11802503518E+01  0.00000000000E+00 0.  1.
         11    1    3    3    0    0 -0.54097815121E+01 -0.31370467076E+01 -0.69433419985E+01  0.93443456926E+01  0.51100000000E-03 0. -1.
        -11    1    3    3    0    0 -0.31656722190E+02  0.15530430259E+02  0.17279911457E+02  0.39267514106E+02  0.51100000000E-03 0.  1.
         12    1    3    3    0    0  0.37761289524E+02 -0.12704308273E+02 -0.11238561350E+02  0.41395889849E+02  0.00000000000E+00 0. -1.
</event>
<event>
 7    1  0.3662489E-015  0.9000773E+02  0.7816164E-02  0.1186339E+00
        -11   -1    0    0    0    0  0.00000000000E+00  0.00000000000E+00  0.45593999997E+02  0.45594000000E+02  0.51100000000E-03 0. -1.
         11   -1    0    0    0    0 -0.00000000000E+00 -0.00000000000E+00 -0.45593999997E+02  0.45594000000E+02  0.51100000000E-03 0.  1.
    9900012    2    1    2    0    0  0.10290227961E+01  0.45448162086E+00  0.35721524073E+00  0.90007727071E+02  0.89999988268E+02 0.  0.
        -12    1    1    2    0    0 -0.10290227961E+01 -0.45448162086E+00 -0.35721524073E+00  0.11802729289E+01  0.00000000000E+00 0.  1.
         11    1    3    3    0    0  0.11786225428E+02  0.33805295020E+02  0.10200622800E+01  0.35815549815E+02  0.51100000000E-03 0. -1.
        -11    1    3    3    0    0  0.10049645159E+01  0.95119938828E+01  0.15502179546E+01  0.96897449540E+01  0.51100000000E-03 0.  1.
        -12    1    3    3    0    0 -0.11762167148E+02 -0.42862807282E+02 -0.22130649938E+01  0.44502432302E+02  0.00000000000E+00 0.  1.
</event>
<event>
 7    1  0.3662489E-015  0.9000775E+02  0.7816164E-02  0.1186339E+00
        -11   -1    0    0    0    0  0.00000000000E+00  0.00000000000E+00  0.45593999997E+02  0.45594000000E+02  0.51100000000E-03 0. -1.
         11   -1    0    0    0    0 -0.00000000000E+00 -0.00000000000E+00 -0.45593999997E+02  0.45594000000E+02  0.51100000000E-03 0.  1.
    9900012    2    1    2    0    0  0.11115692956E+01 -0.34917295590E+00  0.18837531632E+00  0.90007748623E+02  0.90000010105E+02 0.  0.
        -12    1    1    2    0    0 -0.11115692956E+01  0.34917295590E+00 -0.18837531632E+00  0.11802513765E+01  0.00000000000E+00 0.  1.
         11    1    3    3    0    0 -0.81166313829E+01  0.11532082976E+02  0.65238881299E+00  0.14117161691E+02  0.51100000000E-03 0. -1.
        -11    1    3    3    0    0 -0.26353498104E+02  0.14977443938E+02  0.58297249370E+01  0.30867723958E+02  0.51100000000E-03 0.  1.
         12    1    3    3    0    0  0.35581698783E+02 -0.26858699870E+02 -0.62937384337E+01  0.45022862975E+02  0.00000000000E+00 0. -1.
</event>
<event>
 7    1  0.3984555E-015  0.9000769E+02  0.7816164E-02  0.1186339E+00
        -11   -1    0    0    0    0  0.00000000000E+00  0.00000000000E+00  0.45593999997E+02  0.45594000000E+02  0.51100000000E-03 0. -1.
         11   -1    0    0    0    0 -0.00000000000E+00 -0.00000000000E+00 -0.45593999997E+02  0.45594000000E+02  0.51100000000E-03 0.  1.
    9900012    2    1    2    0    0 -0.61111371517E+00  0.48872788383E+00  0.88364395817E+00  0.90007685821E+02  0.89999946473E+02 0.  0.
        -12    1    1    2    0    0  0.61111371517E+00 -0.48872788383E+00 -0.88364395817E+00  0.11803141794E+01  0.00000000000E+00 0.  1.
         11    1    3    3    0    0  0.23639324553E+01  0.30654647339E+01 -0.80387648327E+01  0.89222749893E+01  0.51100000000E-03 0. -1.
        -11    1    3    3    0    0  0.11225090057E+02 -0.15215298040E+02 -0.31316632897E+02  0.36581955080E+02  0.51100000000E-03 0.  1.
         12    1    3    3    0    0 -0.14200136228E+02  0.12638561190E+02  0.40239041688E+02  0.44503455751E+02  0.00000000000E+00 0. -1.
</event>
<event>
 7    1  0.4796347E-015  0.9000753E+02  0.7816164E-02  0.1186339E+00
        -11   -1    0    0    0    0  0.00000000000E+00  0.00000000000E+00  0.45593999997E+02  0.45594000000E+02  0.51100000000E-03 0. -1.
         11   -1    0    0    0    0 -0.00000000000E+00 -0.00000000000E+00 -0.45593999997E+02  0.45594000000E+02  0.51100000000E-03 0.  1.
    9900012    2    1    2    0    0  0.37775498594E-01  0.40408401000E+00  0.11085143489E+01  0.90007527664E+02  0.89999786228E+02 0.  0.
        -12    1    1    2    0    0 -0.37775498594E-01 -0.40408401000E+00 -0.11085143489E+01  0.11804723364E+01  0.00000000000E+00 0.  1.
         11    1    3    3    0    0  0.62551121634E+01  0.83727634275E+01 -0.15218084434E+01  0.10561510157E+02  0.51100000000E-03 0. -1.
        -11    1    3    3    0    0 -0.26074472148E+02 -0.84246647817E+01 -0.30385435499E+02  0.40916106428E+02  0.51100000000E-03 0.  1.
         12    1    3    3    0    0  0.19857135483E+02  0.45598536425E+00  0.33015758291E+02  0.38529911079E+02  0.00000000000E+00 0. -1.
</event>
<event>
 7    1  0.3662489E-015  0.9000796E+02  0.7816164E-02  0.1186339E+00
        -11   -1    0    0    0    0  0.00000000000E+00  0.00000000000E+00  0.45593999997E+02  0.45594000000E+02  0.51100000000E-03 0.  1.
         11   -1    0    0    0    0 -0.00000000000E+00 -0.00000000000E+00 -0.45593999997E+02  0.45594000000E+02  0.51100000000E-03 0. -1.
    9900012    2    1    2    0    0  0.10311898664E+01  0.56589525235E+00 -0.94326277356E-01  0.90007962957E+02  0.90000227267E+02 0.  0.
        -12    1    1    2    0    0 -0.10311898664E+01 -0.56589525235E+00  0.94326277356E-01  0.11800370434E+01  0.00000000000E+00 0.  1.
         11    1    3    3    0    0  0.13426220796E+02  0.23578061615E+02 -0.28081616776E+02  0.39048247021E+02  0.51100000000E-03 0. -1.
        -11    1    3    3    0    0 -0.22352187402E+01  0.83687673881E+01  0.18083170959E+01  0.88488689330E+01  0.51100000000E-03 0.  1.
        -12    1    3    3    0    0 -0.10159812190E+02 -0.31380933751E+02  0.26178973403E+02  0.42110847002E+02  0.00000000000E+00 0.  1.
</event>
<event>
 8    1  0.3662489E-015  0.9000777E+02  0.7816164E-02  0.1186339E+00
        -11   -1    0    0    0    0  0.00000000000E+00  0.00000000000E+00  0.45593999997E+02  0.45594000000E+02  0.51100000000E-03 0.  1.
         11   -1    0    0    0    0 -0.00000000000E+00 -0.00000000000E+00 -0.45593999997E+02  0.45594000000E+02  0.51100000000E-03 0. -1.
    9900012    2    1    2    0    0 -0.80736186401E+00 -0.84353010914E+00  0.17195295330E+00  0.90007769496E+02  0.90000031253E+02 0.  0.
         23    2    3    3    0    0  0.50495490767E+01 -0.18939010989E+02  0.17590100303E+02  0.64217428452E+02  0.58568612799E+02 0.  0.
        -12    1    1    2    0    0  0.80736186401E+00  0.84353010914E+00 -0.17195295330E+00  0.11802305040E+01  0.00000000000E+00 0.  1.
         11    1    4    4    0    0  0.16276584053E+02 -0.19942966148E+02 -0.14958327339E+02  0.29772481325E+02  0.51100000000E-03 0. -1.
        -11    1    4    4    0    0 -0.11227034977E+02  0.10039551589E+01  0.32548427642E+02  0.34444947127E+02  0.51100000000E-03 0.  1.
         12    1    3    3    0    0 -0.58569109407E+01  0.18095480880E+02 -0.17418147350E+02  0.25790341044E+02  0.00000000000E+00 0. -1.
</event>
<event>
 7    1  0.3662489E-015  0.9000764E+02  0.7816164E-02  0.1186339E+00
        -11   -1    0    0    0    0  0.00000000000E+00  0.00000000000E+00  0.45593999997E+02  0.45594000000E+02  0.51100000000E-03 0.  1.
         11   -1    0    0    0    0 -0.00000000000E+00 -0.00000000000E+00 -0.45593999997E+02  0.45594000000E+02  0.51100000000E-03 0. -1.
    9900012    2    1    2    0    0 -0.66053681373E+00 -0.60097189761E+00 -0.77185827040E+00  0.90007643573E+02  0.89999903669E+02 0.  0.
        -12    1    1    2    0    0  0.66053681373E+00  0.60097189761E+00  0.77185827040E+00  0.11803564265E+01  0.00000000000E+00 0.  1.
         11    1    3    3    0    0  0.37250673996E+02 -0.72590836609E+01  0.73059740923E+01  0.38648211685E+02  0.51100000000E-03 0. -1.
        -11    1    3    3    0    0 -0.44591649163E+01  0.88347480196E+01  0.93172190220E+01  0.13592185067E+02  0.51100000000E-03 0.  1.
        -12    1    3    3    0    0 -0.33452045893E+02 -0.21766362563E+01 -0.17395051385E+02  0.37767246822E+02  0.00000000000E+00 0.  1.
</event>
<event>
 7    1  0.3662489E-015  0.9000775E+02  0.7816164E-02  0.1186339E+00
        -11   -1    0    0    0    0  0.00000000000E+00  0.00000000000E+00  0.45593999997E+02  0.45594000000E+02  0.51100000000E-03 0.  1.
         11   -1    0    0    0    0 -0.00000000000E+00 -0.00000000000E+00 -0.45593999997E+02  0.45594000000E+02  0.51100000000E-03 0. -1.
    9900012    2    1    2    0    0  0.64130980111E+00 -0.18070779504E+00 -0.97419757720E+00  0.90007748125E+02  0.90000009601E+02 0.  0.
        -12    1    1    2    0    0 -0.64130980111E+00  0.18070779504E+00  0.97419757720E+00  0.11802518746E+01  0.00000000000E+00 0.  1.
         11    1    3    3    0    0 -0.30845156632E+01 -0.37790511605E+02 -0.30828426894E+00  0.37917437198E+02  0.51100000000E-03 0. -1.
        -11    1    3    3    0    0  0.43712679027E+01 -0.64100709161E+01 -0.21152800988E+01  0.80418531686E+01  0.51100000000E-03 0.  1.
        -12    1    3    3    0    0 -0.64544243839E+00  0.44019874726E+02  0.14493667906E+01  0.44048457759E+02  0.00000000000E+00 0.  1.
</event>
<event>
 7    1  0.3662489E-015  0.9000786E+02  0.7816164E-02  0.1186339E+00
        -11   -1    0    0    0    0  0.00000000000E+00  0.00000000000E+00  0.45593999997E+02  0.45594000000E+02  0.51100000000E-03 0. -1.
         11   -1    0    0    0    0 -0.00000000000E+00 -0.00000000000E+00 -0.45593999997E+02  0.45594000000E+02  0.51100000000E-03 0.  1.
    9900012    2    1    2    0    0  0.29715175278E-01  0.10803326966E+00  0.11748123401E+01  0.90007856698E+02  0.90000119606E+02 0.  0.
        -12    1    1    2    0    0 -0.29715175278E-01 -0.10803326966E+00 -0.11748123401E+01  0.11801433021E+01  0.00000000000E+00 0.  1.
         11    1    3    3    0    0  0.36555271545E+02  0.99823075368E+01 -0.74028556604E+01  0.38610058453E+02  0.51100000000E-03 0. -1.
        -11    1    3    3    0    0 -0.90335957017E+00  0.92847437303E+01  0.55093109308E+01  0.10833975810E+02  0.51100000000E-03 0.  1.
        -12    1    3    3    0    0 -0.35622196800E+02 -0.19159017997E+02  0.30683570697E+01  0.40563822436E+02  0.00000000000E+00 0.  1.
</event>
<event>
 7    1  0.3662489E-015  0.9000774E+02  0.7816164E-02  0.1186339E+00
        -11   -1    0    0    0    0  0.00000000000E+00  0.00000000000E+00  0.45593999997E+02  0.45594000000E+02  0.51100000000E-03 0.  1.
         11   -1    0    0    0    0 -0.00000000000E+00 -0.00000000000E+00 -0.45593999997E+02  0.45594000000E+02  0.51100000000E-03 0. -1.
    9900012    2    1    2    0    0  0.73526715586E+00 -0.54084010648E+00  0.74825666699E+00  0.90007739922E+02  0.90000001289E+02 0.  0.
        -12    1    1    2    0    0 -0.73526715586E+00  0.54084010648E+00 -0.74825666699E+00  0.11802600777E+01  0.00000000000E+00 0.  1.
         11    1    3    3    0    0  0.52108344056E+01  0.12852424759E+00  0.85460877509E+01  0.10010241245E+02  0.51100000000E-03 0. -1.
        -11    1    3    3    0    0 -0.23562611783E+02  0.33082196037E+02 -0.97695884582E+00  0.40627365378E+02  0.51100000000E-03 0.  1.
         12    1    3    3    0    0  0.19087044534E+02 -0.33751560391E+02 -0.68208722381E+01  0.39370133299E+02  0.00000000000E+00 0. -1.
</event>
<event>
 7    1  0.3662489E-015  0.9000813E+02  0.7816164E-02  0.1186338E+00
        -11   -1    0    0    0    0  0.00000000000E+00  0.00000000000E+00  0.45593999997E+02  0.45594000000E+02  0.51100000000E-03 0. -1.
         11   -1    0    0    0    0 -0.00000000000E+00 -0.00000000000E+00 -0.45593999997E+02  0.45594000000E+02  0.51100000000E-03 0.  1.
    9900012    2    1    2    0    0  0.59249162742E+00 -0.78542331659E+00 -0.65127865601E+00  0.90008127124E+02  0.90000393602E+02 0.  0.
        -12    1    1    2    0    0 -0.59249162742E+00  0.78542331659E+00  0.65127865601E+00  0.11798728756E+01  0.00000000000E+00 0.  1.
         11    1    3    3    0    0 -0.40892592556E+01  0.32318341518E+02  0.23156769017E+02  0.39967902012E+02  0.51100000000E-03 0. -1.
        -11    1    3    3    0    0 -0.27944698646E+01 -0.67209555721E+01  0.60760951110E+01  0.94815208529E+01  0.51100000000E-03 0.  1.
        -12    1    3    3    0    0  0.74762207476E+01 -0.26382809262E+02 -0.29884142784E+02  0.40558704259E+02  0.00000000000E+00 0.  1.
</event>
<event>
 7    1  0.3662489E-015  0.9000817E+02  0.7816164E-02  0.1186338E+00
        -11   -1    0    0    0    0  0.00000000000E+00  0.00000000000E+00  0.45593999997E+02  0.45594000000E+02  0.51100000000E-03 0.  1.
         11   -1    0    0    0    0 -0.00000000000E+00 -0.00000000000E+00 -0.45593999997E+02  0.45594000000E+02  0.51100000000E-03 0. -1.
    9900012    2    1    2    0    0 -0.75424000165E+00 -0.66903885548E+00  0.61277941810E+00  0.90008173917E+02  0.90000441012E+02 0.  0.
        -12    1    1    2    0    0  0.75424000165E+00  0.66903885548E+00 -0.61277941810E+00  0.11798260827E+01  0.00000000000E+00 0.  1.
         11    1    3    3    0    0  0.56665304092E+01  0.56717662508E+01 -0.44674179285E+01  0.91780347837E+01  0.51100000000E-03 0. -1.
        -11    1    3    3    0    0  0.14272577799E+02 -0.30278367321E+02  0.26437551870E+02  0.42654778792E+02  0.51100000000E-03 0.  1.
         12    1    3    3    0    0 -0.20693348210E+02  0.23937562215E+02 -0.21357354524E+02  0.38175360341E+02  0.00000000000E+00 0. -1.
</event>
<event>
 7    1  0.3662489E-015  0.9000748E+02  0.7816164E-02  0.1186340E+00
        -11   -1    0    0    0    0  0.00000000000E+00  0.00000000000E+00  0.45593999997E+02  0.45594000000E+02  0.51100000000E-03 0.  1.
         11   -1    0    0    0    0 -0.00000000000E+00 -0.00000000000E+00 -0.45593999997E+02  0.45594000000E+02  0.51100000000E-03 0. -1.
    9900012    2    1    2    0    0 -0.56380812196E+00 -0.10248472433E+01  0.15945268315E+00  0.90007484592E+02  0.89999742588E+02 0.  0.
        -12    1    1    2    0    0  0.56380812196E+00  0.10248472433E+01 -0.15945268315E+00  0.11805154081E+01  0.00000000000E+00 0.  1.
         11    1    3    3    0    0  0.16428139564E+02 -0.29655126612E+02 -0.20532276233E+02  0.39634387487E+02  0.51100000000E-03 0. -1.
        -11    1    3    3    0    0 -0.59098450337E+01 -0.54749189520E+01 -0.15096459032E+01  0.81963428959E+01  0.51100000000E-03 0.  1.
        -12    1    3    3    0    0 -0.11082102652E+02  0.34105198321E+02  0.22201374820E+02  0.42176754209E+02  0.00000000000E+00 0.  1.
</event>
<event>
 7    1  0.3662489E-015  0.9000775E+02  0.7816164E-02  0.1186339E+00
        -11   -1    0    0    0    0  0.00000000000E+00  0.00000000000E+00  0.45593999997E+02  0.45594000000E+02  0.51100000000E-03 0.  1.
         11   -1    0    0    0    0 -0.00000000000E+00 -0.00000000000E+00 -0.45593999997E+02  0.45594000000E+02  0.51100000000E-03 0. -1.
    9900012    2    1    2    0    0  0.11627412503E+01  0.20213394341E+00 -0.13205077430E-01  0.90007745909E+02  0.90000007355E+02 0.  0.
        -12    1    1    2    0    0 -0.11627412503E+01 -0.20213394341E+00  0.13205077430E-01  0.11802540914E+01  0.00000000000E+00 0.  1.
         11    1    3    3    0    0  0.32975280824E+02  0.55228558525E+01  0.19828940509E+02  0.38872329029E+02  0.51100000000E-03 0. -1.
        -11    1    3    3    0    0  0.10728603467E+01 -0.85894205733E+01  0.48129899092E+01  0.99042439003E+01  0.51100000000E-03 0.  1.
        -12    1    3    3    0    0 -0.32885399921E+02  0.32686986643E+01 -0.24655135496E+02  0.41231172979E+02  0.00000000000E+00 0.  1.
</event>
<event>
 7    1  0.3662489E-015  0.9000766E+02  0.7816164E-02  0.1186339E+00
        -11   -1    0    0    0    0  0.00000000000E+00  0.00000000000E+00  0.45593999997E+02  0.45594000000E+02  0.51100000000E-03 0. -1.
         11   -1    0    0    0    0 -0.00000000000E+00 -0.00000000000E+00 -0.45593999997E+02  0.45594000000E+02  0.51100000000E-03 0.  1.
    9900012    2    1    2    0    0 -0.76385771479E+00 -0.84298778092E+00 -0.31478507978E+00  0.90007662483E+02  0.89999922828E+02 0.  0.
        -12    1    1    2    0    0  0.76385771479E+00  0.84298778092E+00  0.31478507978E+00  0.11803375168E+01  0.00000000000E+00 0.  1.
         11    1    3    3    0    0  0.24348348668E+02 -0.14699794793E+02  0.24194061140E+02  0.37340040768E+02  0.51100000000E-03 0. -1.
        -11    1    3    3    0    0  0.27296433052E+01  0.35162486438E+01  0.76758585372E+01  0.88732046997E+01  0.51100000000E-03 0.  1.
        -12    1    3    3    0    0 -0.27841849688E+02  0.10340558368E+02 -0.32184704757E+02  0.43794417016E+02  0.00000000000E+00 0.  1.
</event>
<event>
 7    1  0.3662489E-015  0.9000773E+02  0.7816164E-02  0.1186339E+00
        -11   -1    0    0    0    0  0.00000000000E+00  0.00000000000E+00  0.45593999997E+02  0.45594000000E+02  0.51100000000E-03 0. -1.
         11   -1    0    0    0    0 -0.00000000000E+00 -0.00000000000E+00 -0.45593999997E+02  0.45594000000E+02  0.51100000000E-03 0.  1.
    9900012    2    1    2    0    0 -0.41306908614E+00 -0.54503062350E+00  0.96195109431E+00  0.90007731235E+02  0.89999992487E+02 0.  0.
        -12    1    1    2    0    0  0.41306908614E+00  0.54503062350E+00 -0.96195109431E+00  0.11802687653E+01  0.00000000000E+00 0.  1.
         11    1    3    3    0    0  0.24370906964E+02  0.21882111426E+01 -0.24644355108E+02  0.34728570561E+02  0.51100000000E-03 0. -1.
        -11    1    3    3    0    0  0.54877445560E+01 -0.39046934221E+01 -0.77176363772E+01  0.10243235941E+02  0.51100000000E-03 0.  1.
        -12    1    3    3    0    0 -0.30271720607E+02  0.11714516561E+01  0.33323942579E+02  0.45035924732E+02  0.00000000000E+00 0.  1.
</event>
<event>
 7    1  0.3662489E-015  0.9000759E+02  0.7816164E-02  0.1186339E+00
        -11   -1    0    0    0    0  0.00000000000E+00  0.00000000000E+00  0.45593999997E+02  0.45594000000E+02  0.51100000000E-03 0. -1.
         11   -1    0    0    0    0 -0.00000000000E+00 -0.00000000000E+00 -0.45593999997E+02  0.45594000000E+02  0.51100000000E-03 0.  1.
    9900012    2    1    2    0    0 -0.18589526261E+00 -0.11199746864E+01  0.32322542703E+00  0.90007586927E+02  0.89999846274E+02 0.  0.
        -12    1    1    2    0    0  0.18589526261E+00  0.11199746864E+01 -0.32322542703E+00  0.11804130733E+01  0.00000000000E+00 0.  1.
         11    1    3    3    0    0 -0.14336880535E+01  0.42303975421E+01 -0.12435415532E+02  0.13213299532E+02  0.51100000000E-03 0. -1.
        -11    1    3    3    0    0  0.29806781951E+02 -0.69408566147E+01 -0.17419654969E+02  0.35214544159E+02  0.51100000000E-03 0.  1.
         12    1    3    3    0    0 -0.28558989160E+02  0.15904843862E+01  0.30178295928E+02  0.41579743236E+02  0.00000000000E+00 0. -1.
</event>
<event>
 7    1  0.3662489E-015  0.9000781E+02  0.7816164E-02  0.1186339E+00
        -11   -1    0    0    0    0  0.00000000000E+00  0.00000000000E+00  0.45593999997E+02  0.45594000000E+02  0.51100000000E-03 0.  1.
         11   -1    0    0    0    0 -0.00000000000E+00 -0.00000000000E+00 -0.45593999997E+02  0.45594000000E+02  0.51100000000E-03 0. -1.
    9900012    2    1    2    0    0  0.10531439104E+01  0.14615974192E+00 -0.51221995220E+00  0.90007811860E+02  0.90000074177E+02 0.  0.
        -12    1    1    2    0    0 -0.10531439104E+01 -0.14615974192E+00  0.51221995220E+00  0.11801881399E+01  0.00000000000E+00 0.  1.
         11    1    3    3    0    0  0.32903395929E+02  0.17524598907E+02 -0.17432144086E+02  0.41153671503E+02  0.51100000000E-03 0. -1.
        -11    1    3    3    0    0  0.42357789448E+01 -0.69356403449E+01  0.44889987296E+01  0.92841822536E+01  0.51100000000E-03 0.  1.
        -12    1    3    3    0    0 -0.36086030963E+02 -0.10442798820E+02  0.12430925404E+02  0.39569958103E+02  0.00000000000E+00 0.  1.
</event>
<event>
 7    1  0.3662489E-015  0.9000773E+02  0.7816164E-02  0.1186339E+00
        -11   -1    0    0    0    0  0.00000000000E+00  0.00000000000E+00  0.45593999997E+02  0.45594000000E+02  0.51100000000E-03 0.  1.
         11   -1    0    0    0    0 -0.00000000000E+00 -0.00000000000E+00 -0.45593999997E+02  0.45594000000E+02  0.51100000000E-03 0. -1.
    9900012    2    1    2    0    0  0.70153215342E+00  0.94695179383E+00 -0.64675171326E-01  0.90007725481E+02  0.89999986657E+02 0.  0.
        -12    1    1    2    0    0 -0.70153215342E+00 -0.94695179383E+00  0.64675171327E-01  0.11802745189E+01  0.00000000000E+00 0.  1.
         11    1    3    3    0    0  0.11047244922E+01  0.27894825363E+01  0.15236437839E+02  0.15529026605E+02  0.51100000000E-03 0. -1.
        -11    1    3    3    0    0  0.17026458649E+01 -0.32911579525E+02  0.99087892877E+01  0.34413008807E+02  0.51100000000E-03 0.  1.
         12    1    3    3    0    0 -0.21058382037E+01  0.31069048783E+02 -0.25209902298E+02  0.40065690069E+02  0.00000000000E+00 0. -1.
</event>
<event>
 8    1  0.3662489E-015  0.9000769E+02  0.7816164E-02  0.1186339E+00
        -11   -1    0    0    0    0  0.00000000000E+00  0.00000000000E+00  0.45593999997E+02  0.45594000000E+02  0.51100000000E-03 0. -1.
         11   -1    0    0    0    0 -0.00000000000E+00 -0.00000000000E+00 -0.45593999997E+02  0.45594000000E+02  0.51100000000E-03 0.  1.
    9900012    2    1    2    0    0  0.99822320284E+00  0.21666406850E+00  0.59137770858E+00  0.90007694753E+02  0.89999955524E+02 0.  0.
         23    2    3    3    0    0  0.21735596954E+02  0.10104630848E+02 -0.13963172380E+02  0.62811270624E+02  0.56353755820E+02 0.  0.
        -12    1    1    2    0    0 -0.99822320284E+00 -0.21666406850E+00 -0.59137770858E+00  0.11803052467E+01  0.00000000000E+00 0.  1.
         11    1    4    4    0    0  0.60397122936E+01 -0.44962112627E+01  0.20715648734E+02  0.22041600283E+02  0.51100000000E-03 0. -1.
        -11    1    4    4    0    0  0.15695884661E+02  0.14600842110E+02 -0.34678821114E+02  0.40769670341E+02  0.51100000000E-03 0.  1.
         12    1    3    3    0    0 -0.20737373752E+02 -0.98879667790E+01  0.14554550088E+02  0.27196424129E+02  0.00000000000E+00 0. -1.
</event>
<event>
 7    1  0.3662489E-015  0.9000775E+02  0.7816164E-02  0.1186339E+00
        -11   -1    0    0    0    0  0.00000000000E+00  0.00000000000E+00  0.45593999997E+02  0.45594000000E+02  0.51100000000E-03 0. -1.
         11   -1    0    0    0    0 -0.00000000000E+00 -0.00000000000E+00 -0.45593999997E+02  0.45594000000E+02  0.51100000000E-03 0.  1.
    9900012    2    1    2    0    0  0.34108871750E-02 -0.68007530673E-01  0.11782799620E+01  0.90007754124E+02  0.90000015679E+02 0.  0.
        -12    1    1    2    0    0 -0.34108871750E-02  0.68007530673E-01 -0.11782799620E+01  0.11802458757E+01  0.00000000000E+00 0.  1.
         11    1    3    3    0    0  0.33106005894E+02 -0.30882804328E+01 -0.10404243038E+02  0.34839537536E+02  0.51100000000E-03 0. -1.
        -11    1    3    3    0    0  0.10168555118E+02  0.14081746273E+01 -0.28731343234E+00  0.10269616266E+02  0.51100000000E-03 0.  1.
        -12    1    3    3    0    0 -0.43271150125E+02  0.16120982748E+01  0.11869836432E+02  0.44898600322E+02  0.00000000000E+00 0.  1.
</event>
<event>
 7    1  0.3662489E-015  0.9000766E+02  0.7816164E-02  0.1186339E+00
        -11   -1    0    0    0    0  0.00000000000E+00  0.00000000000E+00  0.45593999997E+02  0.45594000000E+02  0.51100000000E-03 0.  1.
         11   -1    0    0    0    0 -0.00000000000E+00 -0.00000000000E+00 -0.45593999997E+02  0.45594000000E+02  0.51100000000E-03 0. -1.
    9900012    2    1    2    0    0 -0.92442572453E+00  0.25322878693E+00  0.68884177874E+00  0.90007664990E+02  0.89999925368E+02 0.  0.
        -12    1    1    2    0    0  0.92442572453E+00 -0.25322878693E+00 -0.68884177874E+00  0.11803350096E+01  0.00000000000E+00 0.  1.
         11    1    3    3    0    0  0.13729989596E+01 -0.60232685477E+01  0.26540984608E+02  0.27250481728E+02  0.51100000000E-03 0. -1.
        -11    1    3    3    0    0  0.19059757221E+02 -0.11819663425E+02  0.29176372769E+01  0.22616175546E+02  0.51100000000E-03 0.  1.
         12    1    3    3    0    0 -0.21357181905E+02  0.18096160760E+02 -0.28769780107E+02  0.40141007717E+02  0.00000000000E+00 0. -1.
</event>
<event>
 7    1  0.3662489E-015  0.9000773E+02  0.7816164E-02  0.1186339E+00
        -11   -1    0    0    0    0  0.00000000000E+00  0.00000000000E+00  0.45593999997E+02  0.45594000000E+02  0.51100000000E-03 0. -1.
         11   -1    0    0    0    0 -0.00000000000E+00 -0.00000000000E+00 -0.45593999997E+02  0.45594000000E+02  0.51100000000E-03 0.  1.
    9900012    2    1    2    0    0  0.10909986599E+01 -0.15154543586E+00  0.42401289882E+00  0.90007732643E+02  0.89999993914E+02 0.  0.
        -12    1    1    2    0    0 -0.10909986599E+01  0.15154543586E+00 -0.42401289882E+00  0.11802673567E+01  0.00000000000E+00 0.  1.
         11    1    3    3    0    0 -0.20496483994E+02 -0.21692128630E+02 -0.18907849294E+02  0.35329323030E+02  0.51100000000E-03 0. -1.
        -11    1    3    3    0    0  0.10080294485E+02  0.13225141187E+02 -0.11848340874E+02  0.20418126213E+02  0.51100000000E-03 0.  1.
        -12    1    3    3    0    0  0.11507188169E+02  0.83154420068E+01  0.31180203067E+02  0.34260283400E+02  0.00000000000E+00 0.  1.
</event>
<event>
 7    1  0.3662489E-015  0.9000763E+02  0.7816164E-02  0.1186339E+00
        -11   -1    0    0    0    0  0.00000000000E+00  0.00000000000E+00  0.45593999997E+02  0.45594000000E+02  0.51100000000E-03 0. -1.
         11   -1    0    0    0    0 -0.00000000000E+00 -0.00000000000E+00 -0.45593999997E+02  0.45594000000E+02  0.51100000000E-03 0.  1.
    9900012    2    1    2    0    0  0.35546224150E+00  0.37035406457E+00  0.10629033647E+01  0.90007627558E+02  0.89999887442E+02 0.  0.
        -12    1    1    2    0    0 -0.35546224150E+00 -0.37035406457E+00 -0.10629033647E+01  0.11803724416E+01  0.00000000000E+00 0.  1.
         11    1    3    3    0    0  0.26272498175E+02  0.27965269781E+02  0.94876812187E+00  0.38382295860E+02  0.51100000000E-03 0. -1.
        -11    1    3    3    0    0 -0.41341101655E+01  0.68295807905E+01  0.66207401141E+01  0.10371511006E+02  0.51100000000E-03 0.  1.
        -12    1    3    3    0    0 -0.21782925768E+02 -0.34424496507E+02 -0.65066048713E+01  0.41253820692E+02  0.00000000000E+00 0.  1.
</event>
<event>
 7    1  0.3662489E-015  0.9000774E+02  0.7816164E-02  0.1186339E+00
        -11   -1    0    0    0    0  0.00000000000E+00  0.00000000000E+00  0.45593999997E+02  0.45594000000E+02  0.51100000000E-03 0.  1.
         11   -1    0    0    0    0 -0.00000000000E+00 -0.00000000000E+00 -0.45593999997E+02  0.45594000000E+02  0.51100000000E-03 0. -1.
    9900012    2    1    2    0    0 -0.25719100078E+00 -0.52001614289E+00 -0.10278381814E+01  0.90007739297E+02  0.90000000656E+02 0.  0.
        -12    1    1    2    0    0  0.25719100078E+00  0.52001614289E+00  0.10278381814E+01  0.11802607029E+01  0.00000000000E+00 0.  1.
         11    1    3    3    0    0  0.33002798769E+01 -0.95352771557E+01  0.41158319465E+01  0.10897404763E+02  0.51100000000E-03 0. -1.
        -11    1    3    3    0    0  0.27416151170E+02  0.16745999809E+02  0.20545586471E+02  0.38133908510E+02  0.51100000000E-03 0.  1.
         12    1    3    3    0    0 -0.30973622047E+02 -0.77307387961E+01 -0.25689256599E+02  0.40976426024E+02  0.00000000000E+00 0. -1.
</event>
<event>
 7    1  0.3662489E-015  0.9000772E+02  0.7816164E-02  0.1186339E+00
        -11   -1    0    0    0    0  0.00000000000E+00  0.00000000000E+00  0.45593999997E+02  0.45594000000E+02  0.51100000000E-03 0.  1.
         11   -1    0    0    0    0 -0.00000000000E+00 -0.00000000000E+00 -0.45593999997E+02  0.45594000000E+02  0.51100000000E-03 0. -1.
    9900012    2    1    2    0    0 -0.60974478029E+00  0.21693434402E+00 -0.98702373165E+00  0.90007718231E+02  0.89999979312E+02 0.  0.
        -12    1    1    2    0    0  0.60974478029E+00 -0.21693434402E+00  0.98702373165E+00  0.11802817687E+01  0.00000000000E+00 0.  1.
         11    1    3    3    0    0 -0.22962328486E+02 -0.20202220561E+02 -0.19343882891E+02  0.36188175564E+02  0.51100000000E-03 0. -1.
        -11    1    3    3    0    0 -0.50949435451E+01 -0.77245137647E+01 -0.21214731930E+01  0.94935352424E+01  0.51100000000E-03 0.  1.
        -12    1    3    3    0    0  0.27447527251E+02  0.28143668669E+02  0.20478332352E+02  0.44326007425E+02  0.00000000000E+00 0.  1.
</event>
<event>
 7    1  0.3662489E-015  0.9000770E+02  0.7816164E-02  0.1186339E+00
        -11   -1    0    0    0    0  0.00000000000E+00  0.00000000000E+00  0.45593999997E+02  0.45594000000E+02  0.51100000000E-03 0. -1.
         11   -1    0    0    0    0 -0.00000000000E+00 -0.00000000000E+00 -0.45593999997E+02  0.45594000000E+02  0.51100000000E-03 0.  1.
    9900012    2    1    2    0    0  0.43817382360E-01  0.78643712092E+00  0.87904148075E+00  0.90007696127E+02  0.89999956916E+02 0.  0.
        -12    1    1    2    0    0 -0.43817382360E-01 -0.78643712092E+00 -0.87904148075E+00  0.11803038732E+01  0.00000000000E+00 0.  1.
         11    1    3    3    0    0 -0.17947790808E+02 -0.20869049965E+02  0.24424936151E+02  0.36799700374E+02  0.51100000000E-03 0. -1.
        -11    1    3    3    0    0 -0.47591788551E+01 -0.25503455921E+01  0.64766742414E+01  0.84321619710E+01  0.51100000000E-03 0.  1.
        -12    1    3    3    0    0  0.22750787046E+02  0.24205832678E+02 -0.30022568912E+02  0.44775833782E+02  0.00000000000E+00 0.  1.
</event>
<event>
 7    1  0.3662489E-015  0.9000897E+02  0.7816164E-02  0.1186337E+00
        -11   -1    0    0    0    0  0.00000000000E+00  0.00000000000E+00  0.45593999997E+02  0.45594000000E+02  0.51100000000E-03 0.  1.
         11   -1    0    0    0    0 -0.00000000000E+00 -0.00000000000E+00 -0.45593999997E+02  0.45594000000E+02  0.51100000000E-03 0. -1.
    9900012    2    1    2    0    0 -0.82999826777E+00 -0.74549999591E+00 -0.38136859568E+00  0.90008971004E+02  0.90001248612E+02 0.  0.
        -12    1    1    2    0    0  0.82999826777E+00  0.74549999591E+00  0.38136859568E+00  0.11790289963E+01  0.00000000000E+00 0.  1.
         11    1    3    3    0    0  0.70827980403E+01  0.53481248660E+01  0.71142302749E+00  0.89036279486E+01  0.51100000000E-03 0. -1.
        -11    1    3    3    0    0  0.11450222247E+02  0.34362634462E+02  0.54413879787E+00  0.36224222890E+02  0.51100000000E-03 0.  1.
         12    1    3    3    0    0 -0.19363018555E+02 -0.40456259324E+02 -0.16369304210E+01  0.44881120165E+02  0.00000000000E+00 0. -1.
</event>
<event>
 7    1  0.3662489E-015  0.9000785E+02  0.7816164E-02  0.1186339E+00
        -11   -1    0    0    0    0  0.00000000000E+00  0.00000000000E+00  0.45593999997E+02  0.45594000000E+02  0.51100000000E-03 0.  1.
         11   -1    0    0    0    0 -0.00000000000E+00 -0.00000000000E+00 -0.45593999997E+02  0.45594000000E+02  0.51100000000E-03 0. -1.
    9900012    2    1    2    0    0  0.24073692123E+00 -0.95069216771E+00 -0.65649036961E+00  0.90007851929E+02  0.90000114775E+02 0.  0.
        -12    1    1    2    0    0 -0.24073692123E+00  0.95069216771E+00  0.65649036961E+00  0.11801480705E+01  0.00000000000E+00 0.  1.
         11    1    3    3    0    0  0.82734260868E+00  0.33997004521E+02 -0.18519716431E+02  0.38722870621E+02  0.51100000000E-03 0. -1.
        -11    1    3    3    0    0  0.70274161815E+01  0.33807831197E+01 -0.10543653859E+01  0.78693048815E+01  0.51100000000E-03 0.  1.
        -12    1    3    3    0    0 -0.76140218690E+01 -0.38328479809E+02  0.18917591447E+02  0.43415676427E+02  0.00000000000E+00 0.  1.
</event>
<event>
 7    1  0.3662489E-015  0.9000773E+02  0.7816164E-02  0.1186339E+00
        -11   -1    0    0    0    0  0.00000000000E+00  0.00000000000E+00  0.45593999997E+02  0.45594000000E+02  0.51100000000E-03 0.  1.
         11   -1    0    0    0    0 -0.00000000000E+00 -0.00000000000E+00 -0.45593999997E+02  0.45594000000E+02  0.51100000000E-03 0. -1.
    9900012    2    1    2    0    0 -0.45076939462E+00 -0.38798186958E+00 -0.10194719545E+01  0.90007726284E+02  0.89999987471E+02 0.  0.
        -12    1    1    2    0    0  0.45076939462E+00  0.38798186958E+00  0.10194719545E+01  0.11802737158E+01  0.00000000000E+00 0.  1.
         11    1    3    3    0    0 -0.18774253904E+01 -0.23559513423E+02 -0.31783126218E+02  0.39607354257E+02  0.51100000000E-03 0. -1.
        -11    1    3    3    0    0  0.91172388344E+01 -0.34411622363E+01  0.10897442728E+01  0.98057730109E+01  0.51100000000E-03 0.  1.
        -12    1    3    3    0    0 -0.76905828386E+01  0.26612693790E+02  0.29673909990E+02  0.40594599016E+02  0.00000000000E+00 0.  1.
</event>
<event>
 7    1  0.3662489E-015  0.9000771E+02  0.7816164E-02  0.1186339E+00
        -11   -1    0    0    0    0  0.00000000000E+00  0.00000000000E+00  0.45593999997E+02  0.45594000000E+02  0.51100000000E-03 0. -1.
         11   -1    0    0    0    0 -0.00000000000E+00 -0.00000000000E+00 -0.45593999997E+02  0.45594000000E+02  0.51100000000E-03 0.  1.
    9900012    2    1    2    0    0  0.61519171143E+00 -0.81402028237E+00  0.59329863788E+00  0.90007706335E+02  0.89999967259E+02 0.  0.
        -12    1    1    2    0    0 -0.61519171143E+00  0.81402028237E+00 -0.59329863788E+00  0.11802936650E+01  0.00000000000E+00 0.  1.
         11    1    3    3    0    0 -0.51671861867E+01  0.13885806701E+02 -0.15928975113E+02  0.21754256807E+02  0.51100000000E-03 0. -1.
        -11    1    3    3    0    0 -0.21945288295E+02 -0.13086364222E+02 -0.12186447656E+02  0.28308269351E+02  0.51100000000E-03 0.  1.
         12    1    3    3    0    0  0.27727666193E+02 -0.16134627615E+01  0.28708721406E+02  0.39945180177E+02  0.00000000000E+00 0. -1.
</event>
<event>
 7    1  0.3662489E-015  0.9000777E+02  0.7816164E-02  0.1186339E+00
        -11   -1    0    0    0    0  0.00000000000E+00  0.00000000000E+00  0.45593999997E+02  0.45594000000E+02  0.51100000000E-03 0. -1.
         11   -1    0    0    0    0 -0.00000000000E+00 -0.00000000000E+00 -0.45593999997E+02  0.45594000000E+02  0.51100000000E-03 0.  1.
    9900012    2    1    2    0    0 -0.62899505240E+00 -0.94821005650E+00 -0.31337538625E+00  0.90007770692E+02  0.90000032465E+02 0.  0.
        -12    1    1    2    0    0  0.62899505240E+00  0.94821005650E+00  0.31337538625E+00  0.11802293082E+01  0.00000000000E+00 0.  1.
         11    1    3    3    0    0 -0.30010471744E+00  0.89826706048E+01  0.18827906714E+00  0.89896542372E+01  0.51100000000E-03 0. -1.
        -11    1    3    3    0    0  0.10470951568E+02 -0.23776795595E+02 -0.34241646423E+02  0.42982172880E+02  0.51100000000E-03 0.  1.
         12    1    3    3    0    0 -0.10799841903E+02  0.13845914934E+02  0.33739991969E+02  0.38035943574E+02  0.00000000000E+00 0. -1.
</event>
<event>
 7    1  0.3662489E-015  0.9000768E+02  0.7816164E-02  0.1186339E+00
        -11   -1    0    0    0    0  0.00000000000E+00  0.00000000000E+00  0.45593999997E+02  0.45594000000E+02  0.51100000000E-03 0. -1.
         11   -1    0    0    0    0 -0.00000000000E+00 -0.00000000000E+00 -0.45593999997E+02  0.45594000000E+02  0.51100000000E-03 0.  1.
    9900012    2    1    2    0    0 -0.13452173696E+00  0.11622082850E+01 -0.15599522366E+00  0.90007678558E+02  0.89999939115E+02 0.  0.
        -12    1    1    2    0    0  0.13452173696E+00 -0.11622082850E+01  0.15599522366E+00  0.11803214415E+01  0.00000000000E+00 0.  1.
         11    1    3    3    0    0  0.15357460013E+01  0.74341296820E+01 -0.17926193487E+01  0.77998900184E+01  0.51100000000E-03 0. -1.
        -11    1    3    3    0    0  0.18686677856E+02  0.25736845296E+02 -0.20925278379E+02  0.38071569584E+02  0.51100000000E-03 0.  1.
         12    1    3    3    0    0 -0.20356945594E+02 -0.32008766693E+02  0.22561902504E+02  0.44136218956E+02  0.00000000000E+00 0. -1.
</event>
<event>
 7    1  0.3662489E-015  0.9000778E+02  0.7816164E-02  0.1186339E+00
        -11   -1    0    0    0    0  0.00000000000E+00  0.00000000000E+00  0.45593999997E+02  0.45594000000E+02  0.51100000000E-03 0.  1.
         11   -1    0    0    0    0 -0.00000000000E+00 -0.00000000000E+00 -0.45593999997E+02  0.45594000000E+02  0.51100000000E-03 0. -1.
    9900012    2    1    2    0    0  0.11300442026E+01 -0.22381424486E+00 -0.25655650164E+00  0.90007782243E+02  0.90000044168E+02 0.  0.
        -12    1    1    2    0    0 -0.11300442026E+01  0.22381424486E+00  0.25655650164E+00  0.11802177573E+01  0.00000000000E+00 0.  1.
         11    1    3    3    0    0 -0.25572897950E+02 -0.13046285372E+02 -0.20890130949E+02  0.35504594673E+02  0.51100000000E-03 0. -1.
        -11    1    3    3    0    0 -0.18810904223E+01  0.13171540036E+00 -0.10325781581E+02  0.10496552560E+02  0.51100000000E-03 0.  1.
        -12    1    3    3    0    0  0.28584032575E+02  0.12690755727E+02  0.30959356028E+02  0.44006635010E+02  0.00000000000E+00 0.  1.
</event>
<event>
 7    1  0.3662489E-015  0.9000777E+02  0.7816164E-02  0.1186339E+00
        -11   -1    0    0    0    0  0.00000000000E+00  0.00000000000E+00  0.45593999997E+02  0.45594000000E+02  0.51100000000E-03 0.  1.
         11   -1    0    0    0    0 -0.00000000000E+00 -0.00000000000E+00 -0.45593999997E+02  0.45594000000E+02  0.51100000000E-03 0. -1.
    9900012    2    1    2    0    0 -0.11407899269E+01  0.29952213719E+00 -0.42720963655E-01  0.90007771103E+02  0.90000032882E+02 0.  0.
        -12    1    1    2    0    0  0.11407899269E+01 -0.29952213719E+00  0.42720963655E-01  0.11802288968E+01  0.00000000000E+00 0.  1.
         11    1    3    3    0    0 -0.20530844620E+02 -0.31858139394E+02 -0.18939456361E+02  0.42369324209E+02  0.51100000000E-03 0. -1.
        -11    1    3    3    0    0  0.81363990218E+01  0.31830210242E+01 -0.34105574535E+01  0.93789399341E+01  0.51100000000E-03 0.  1.
        -12    1    3    3    0    0  0.11253655671E+02  0.28974640507E+02  0.22307292851E+02  0.38259506960E+02  0.00000000000E+00 0.  1.
</event>
<event>
 7    1  0.3662489E-015  0.9000767E+02  0.7816164E-02  0.1186339E+00
        -11   -1    0    0    0    0  0.00000000000E+00  0.00000000000E+00  0.45593999997E+02  0.45594000000E+02  0.51100000000E-03 0.  1.
         11   -1    0    0    0    0 -0.00000000000E+00 -0.00000000000E+00 -0.45593999997E+02  0.45594000000E+02  0.51100000000E-03 0. -1.
    9900012    2    1    2    0    0 -0.11436048785E+01 -0.28655302296E+00  0.56824744848E-01  0.90007672162E+02  0.89999932635E+02 0.  0.
        -12    1    1    2    0    0  0.11436048785E+01  0.28655302296E+00 -0.56824744848E-01  0.11803278378E+01  0.00000000000E+00 0.  1.
         11    1    3    3    0    0  0.66257784118E+01  0.21448616659E+00  0.61979689385E+01  0.90753381811E+01  0.51100000000E-03 0. -1.
        -11    1    3    3    0    0 -0.14999104899E+02  0.28115242755E+02  0.23120710909E+02  0.39370132031E+02  0.51100000000E-03 0.  1.
         12    1    3    3    0    0  0.72297216083E+01 -0.28616281945E+02 -0.29261855103E+02  0.41562201950E+02  0.00000000000E+00 0. -1.
</event>
<event>
 7    1  0.3662489E-015  0.9000776E+02  0.7816164E-02  0.1186339E+00
        -11   -1    0    0    0    0  0.00000000000E+00  0.00000000000E+00  0.45593999997E+02  0.45594000000E+02  0.51100000000E-03 0.  1.
         11   -1    0    0    0    0 -0.00000000000E+00 -0.00000000000E+00 -0.45593999997E+02  0.45594000000E+02  0.51100000000E-03 0. -1.
    9900012    2    1    2    0    0 -0.96503157939E+00  0.67093047910E+00  0.10739890573E+00  0.90007759269E+02  0.90000020892E+02 0.  0.
        -12    1    1    2    0    0  0.96503157939E+00 -0.67093047910E+00 -0.10739890573E+00  0.11802407305E+01  0.00000000000E+00 0.  1.
         11    1    3    3    0    0 -0.23027106167E+02  0.33005426990E+02  0.64479618965E+01  0.40757601035E+02  0.51100000000E-03 0. -1.
        -11    1    3    3    0    0 -0.67648968838E+01 -0.60546439445E+01 -0.46627857489E+01  0.10206082223E+02  0.51100000000E-03 0.  1.
        -12    1    3    3    0    0  0.28826971471E+02 -0.26279852566E+02 -0.16777772419E+01  0.39044076012E+02  0.00000000000E+00 0.  1.
</event>
<event>
 7    1  0.3662489E-015  0.9000743E+02  0.7816164E-02  0.1186340E+00
        -11   -1    0    0    0    0  0.00000000000E+00  0.00000000000E+00  0.45593999997E+02  0.45594000000E+02  0.51100000000E-03 0.  1.
         11   -1    0    0    0    0 -0.00000000000E+00 -0.00000000000E+00 -0.45593999997E+02  0.45594000000E+02  0.51100000000E-03 0. -1.
    9900012    2    1    2    0    0  0.38401863049E+00  0.27489174327E-01 -0.11160327770E+01  0.90007425935E+02  0.89999683157E+02 0.  0.
        -12    1    1    2    0    0 -0.38401863049E+00 -0.27489174327E-01  0.11160327770E+01  0.11805740649E+01  0.00000000000E+00 0.  1.
         11    1    3    3    0    0 -0.28664701942E+02 -0.40124000122E+00 -0.24572200611E+02  0.37757372447E+02  0.51100000000E-03 0. -1.
        -11    1    3    3    0    0 -0.52847264557E+00 -0.11199703600E+02 -0.21751442205E+01  0.11421203821E+02  0.51100000000E-03 0.  1.
        -12    1    3    3    0    0  0.29577193218E+02  0.11628432776E+02  0.25631312055E+02  0.40828849667E+02  0.00000000000E+00 0.  1.
</event>
<event>
 7    1  0.3662489E-015  0.9000771E+02  0.7816164E-02  0.1186339E+00
        -11   -1    0    0    0    0  0.00000000000E+00  0.00000000000E+00  0.45593999997E+02  0.45594000000E+02  0.51100000000E-03 0.  1.
         11   -1    0    0    0    0 -0.00000000000E+00 -0.00000000000E+00 -0.45593999997E+02  0.45594000000E+02  0.51100000000E-03 0. -1.
    9900012    2    1    2    0    0 -0.10381455446E+01  0.16972359290E+00 -0.53529576804E+00  0.90007706041E+02  0.89999966961E+02 0.  0.
        -12    1    1    2    0    0  0.10381455446E+01 -0.16972359290E+00  0.53529576804E+00  0.11802939587E+01  0.00000000000E+00 0.  1.
         11    1    3    3    0    0  0.11399563606E+02  0.32933539675E+02 -0.15048592293E+02  0.37960877443E+02  0.51100000000E-03 0. -1.
        -11    1    3    3    0    0  0.11697636732E+01  0.73749191799E+01  0.84498220116E+00  0.75147704651E+01  0.51100000000E-03 0.  1.
        -12    1    3    3    0    0 -0.13607472824E+02 -0.40138735262E+02  0.13668314324E+02  0.44532058133E+02  0.00000000000E+00 0.  1.
</event>
<event>
 7    1  0.3662489E-015  0.9000776E+02  0.7816164E-02  0.1186339E+00
        -11   -1    0    0    0    0  0.00000000000E+00  0.00000000000E+00  0.45593999997E+02  0.45594000000E+02  0.51100000000E-03 0. -1.
         11   -1    0    0    0    0 -0.00000000000E+00 -0.00000000000E+00 -0.45593999997E+02  0.45594000000E+02  0.51100000000E-03 0.  1.
    9900012    2    1    2    0    0 -0.89847236687E+00 -0.35886366766E+00 -0.67596468005E+00  0.90007761052E+02  0.90000022698E+02 0.  0.
        -12    1    1    2    0    0  0.89847236687E+00  0.35886366766E+00  0.67596468005E+00  0.11802389481E+01  0.00000000000E+00 0.  1.
         11    1    3    3    0    0  0.22211426505E+01 -0.21589861985E+01  0.87585955841E+01  0.92901933751E+01  0.51100000000E-03 0. -1.
        -11    1    3    3    0    0 -0.34768861640E+02 -0.15833541841E+02 -0.19804687898E+02  0.43032551051E+02  0.51100000000E-03 0.  1.
         12    1    3    3    0    0  0.31649246622E+02  0.17633664372E+02  0.10370127634E+02  0.37685016626E+02  0.00000000000E+00 0. -1.
</event>
<event>
 7    1  0.3662489E-015  0.9000782E+02  0.7816164E-02  0.1186339E+00
        -11   -1    0    0    0    0  0.00000000000E+00  0.00000000000E+00  0.45593999997E+02  0.45594000000E+02  0.51100000000E-03 0.  1.
         11   -1    0    0    0    0 -0.00000000000E+00 -0.00000000000E+00 -0.45593999997E+02  0.45594000000E+02  0.51100000000E-03 0. -1.
    9900012    2    1    2    0    0 -0.43866258810E+00 -0.68203033077E+00 -0.85745342479E+00  0.90007823482E+02  0.90000085952E+02 0.  0.
        -12    1    1    2    0    0  0.43866258810E+00  0.68203033077E+00  0.85745342479E+00  0.11801765181E+01  0.00000000000E+00 0.  1.
         11    1    3    3    0    0  0.10962096477E+02  0.42274415314E+01  0.27136957447E+00  0.11752125884E+02  0.51100000000E-03 0. -1.
        -11    1    3    3    0    0  0.32344476205E+02  0.64563920818E+01 -0.20792335733E+01  0.33048046118E+02  0.51100000000E-03 0.  1.
         12    1    3    3    0    0 -0.43745235271E+02 -0.11365863944E+02  0.95041057400E+00  0.45207651480E+02  0.00000000000E+00 0. -1.
</event>
<event>
 7    1  0.3662489E-015  0.9000756E+02  0.7816164E-02  0.1186339E+00
        -11   -1    0    0    0    0  0.00000000000E+00  0.00000000000E+00  0.45593999997E+02  0.45594000000E+02  0.51100000000E-03 0.  1.
         11   -1    0    0    0    0 -0.00000000000E+00 -0.00000000000E+00 -0.45593999997E+02  0.45594000000E+02  0.51100000000E-03 0. -1.
    9900012    2    1    2    0    0  0.31448449699E+00  0.79482191761E+00 -0.81412955978E+00  0.90007555457E+02  0.89999814389E+02 0.  0.
        -12    1    1    2    0    0 -0.31448449699E+00 -0.79482191761E+00  0.81412955978E+00  0.11804445432E+01  0.00000000000E+00 0.  1.
         11    1    3    3    0    0  0.47749740403E+01  0.71748543677E+01  0.14778576901E+01  0.87443110590E+01  0.51100000000E-03 0. -1.
        -11    1    3    3    0    0  0.16083654371E+02  0.32816484882E+02 -0.51982220167E+01  0.36913779681E+02  0.51100000000E-03 0.  1.
         12    1    3    3    0    0 -0.20544143915E+02 -0.39196517332E+02  0.29062347668E+01  0.44349464717E+02  0.00000000000E+00 0. -1.
</event>
<event>
 7    1  0.3662489E-015  0.9000774E+02  0.7816164E-02  0.1186339E+00
        -11   -1    0    0    0    0  0.00000000000E+00  0.00000000000E+00  0.45593999997E+02  0.45594000000E+02  0.51100000000E-03 0.  1.
         11   -1    0    0    0    0 -0.00000000000E+00 -0.00000000000E+00 -0.45593999997E+02  0.45594000000E+02  0.51100000000E-03 0. -1.
    9900012    2    1    2    0    0 -0.69925020508E+00  0.94905598935E+00 -0.57964951407E-01  0.90007738141E+02  0.89999999484E+02 0.  0.
        -12    1    1    2    0    0  0.69925020508E+00 -0.94905598935E+00  0.57964951407E-01  0.11802618590E+01  0.00000000000E+00 0.  1.
         11    1    3    3    0    0  0.85846857235E+01  0.72615754789E+00 -0.40264660908E+02  0.41176049496E+02  0.51100000000E-03 0. -1.
        -11    1    3    3    0    0 -0.69705814343E+01  0.27184635154E+01 -0.94337979568E+00  0.75411547602E+01  0.51100000000E-03 0.  1.
        -12    1    3    3    0    0 -0.23133544943E+01 -0.24955650739E+01  0.41150075753E+02  0.41290533885E+02  0.00000000000E+00 0.  1.
</event>
<event>
 7    1  0.3662489E-015  0.9000768E+02  0.7816164E-02  0.1186339E+00
        -11   -1    0    0    0    0  0.00000000000E+00  0.00000000000E+00  0.45593999997E+02  0.45594000000E+02  0.51100000000E-03 0. -1.
         11   -1    0    0    0    0 -0.00000000000E+00 -0.00000000000E+00 -0.45593999997E+02  0.45594000000E+02  0.51100000000E-03 0.  1.
    9900012    2    1    2    0    0 -0.73273235000E+00  0.46251820621E+00  0.80146491864E+00  0.90007675552E+02  0.89999936069E+02 0.  0.
        -12    1    1    2    0    0  0.73273235000E+00 -0.46251820621E+00 -0.80146491864E+00  0.11803244485E+01  0.00000000000E+00 0.  1.
         11    1    3    3    0    0 -0.72120693340E+01 -0.18517537970E+01 -0.57192019390E+01  0.93889406902E+01  0.51100000000E-03 0. -1.
        -11    1    3    3    0    0  0.43707807891E+01  0.63900385304E+01 -0.36521294473E+02  0.37332844352E+02  0.51100000000E-03 0.  1.
         12    1    3    3    0    0  0.21085561949E+01 -0.40757665272E+01  0.43041961331E+02  0.43285890510E+02  0.00000000000E+00 0. -1.
</event>
<event>
 7    1  0.3662489E-015  0.9000787E+02  0.7816164E-02  0.1186339E+00
        -11   -1    0    0    0    0  0.00000000000E+00  0.00000000000E+00  0.45593999997E+02  0.45594000000E+02  0.51100000000E-03 0. -1.
         11   -1    0    0    0    0 -0.00000000000E+00 -0.00000000000E+00 -0.45593999997E+02  0.45594000000E+02  0.51100000000E-03 0.  1.
    9900012    2    1    2    0    0 -0.11680123482E+01  0.12880794317E+00  0.10887555681E+00  0.90007873643E+02  0.90000136775E+02 0.  0.
        -12    1    1    2    0    0  0.11680123482E+01 -0.12880794317E+00 -0.10887555681E+00  0.11801263571E+01  0.00000000000E+00 0.  1.
         11    1    3    3    0    0  0.23886376525E+02  0.11795989509E+02  0.29218631692E+02  0.39540267958E+02  0.51100000000E-03 0. -1.
        -11    1    3    3    0    0  0.62116365243E+01 -0.67916059460E+01 -0.95670569954E+01  0.13275500723E+02  0.51100000000E-03 0.  1.
        -12    1    3    3    0    0 -0.31266025398E+02 -0.48755756196E+01 -0.19542699140E+02  0.37192104961E+02  0.00000000000E+00 0.  1.
</event>
<event>
 7    1  0.3662489E-015  0.9000787E+02  0.7816164E-02  0.1186339E+00
        -11   -1    0    0    0    0  0.00000000000E+00  0.00000000000E+00  0.45593999997E+02  0.45594000000E+02  0.51100000000E-03 0.  1.
         11   -1    0    0    0    0 -0.00000000000E+00 -0.00000000000E+00 -0.45593999997E+02  0.45594000000E+02  0.51100000000E-03 0. -1.
    9900012    2    1    2    0    0  0.92300226655E+00  0.73368443149E+00 -0.49924148113E-01  0.90007865071E+02  0.90000128090E+02 0.  0.
        -12    1    1    2    0    0 -0.92300226655E+00 -0.73368443149E+00  0.49924148113E-01  0.11801349286E+01  0.00000000000E+00 0.  1.
         11    1    3    3    0    0  0.71266441885E+00 -0.37899743304E+02  0.73593006897E+01  0.38614216812E+02  0.51100000000E-03 0. -1.
        -11    1    3    3    0    0 -0.93512774308E+01 -0.15426415291E+01 -0.26014049728E+00  0.94812344035E+01  0.51100000000E-03 0.  1.
        -12    1    3    3    0    0  0.95616152784E+01  0.40176069265E+02 -0.71490843406E+01  0.41912413856E+02  0.00000000000E+00 0.  1.
</event>
<event>
 7    1  0.3662489E-015  0.9000771E+02  0.7816164E-02  0.1186339E+00
        -11   -1    0    0    0    0  0.00000000000E+00  0.00000000000E+00  0.45593999997E+02  0.45594000000E+02  0.51100000000E-03 0. -1.
         11   -1    0    0    0    0 -0.00000000000E+00 -0.00000000000E+00 -0.45593999997E+02  0.45594000000E+02  0.51100000000E-03 0.  1.
    9900012    2    1    2    0    0 -0.61628511564E+00 -0.55974275902E+00  0.83663567956E+00  0.90007712509E+02  0.89999973515E+02 0.  0.
        -12    1    1    2    0    0  0.61628511564E+00  0.55974275902E+00 -0.83663567956E+00  0.11802874905E+01  0.00000000000E+00 0.  1.
         11    1    3    3    0    0 -0.62829736252E+01  0.73651974774E+01 -0.40608520352E+01  0.10498209894E+02  0.51100000000E-03 0. -1.
        -11    1    3    3    0    0 -0.39549945842E+01  0.35019037616E+02  0.42411698654E+01  0.35495950470E+02  0.51100000000E-03 0.  1.
         12    1    3    3    0    0  0.96216830937E+01 -0.42943977852E+02  0.65631784944E+00  0.44013552145E+02  0.00000000000E+00 0. -1.
</event>
<event>
 7    1  0.3662489E-015  0.9000763E+02  0.7816164E-02  0.1186339E+00
        -11   -1    0    0    0    0  0.00000000000E+00  0.00000000000E+00  0.45593999997E+02  0.45594000000E+02  0.51100000000E-03 0.  1.
         11   -1    0    0    0    0 -0.00000000000E+00 -0.00000000000E+00 -0.45593999997E+02  0.45594000000E+02  0.51100000000E-03 0. -1.
    9900012    2    1    2    0    0  0.18366520989E+00 -0.48463658652E+00 -0.10605014881E+01  0.90007631864E+02  0.89999891805E+02 0.  0.
        -12    1    1    2    0    0 -0.18366520989E+00  0.48463658652E+00  0.10605014881E+01  0.11803681360E+01  0.00000000000E+00 0.  1.
         11    1    3    3    0    0  0.52873415863E+01 -0.61418971887E+01 -0.44191440526E+01  0.92308025949E+01  0.51100000000E-03 0. -1.
        -11    1    3    3    0    0  0.16128163157E+01 -0.36649119407E+02  0.84321694894E+01  0.37641208965E+02  0.51100000000E-03 0.  1.
         12    1    3    3    0    0 -0.67164926921E+01  0.42306380009E+02 -0.50735269249E+01  0.43135620304E+02  0.00000000000E+00 0. -1.
</event>
<event>
 7    1  0.3662489E-015  0.9000777E+02  0.7816164E-02  0.1186339E+00
        -11   -1    0    0    0    0  0.00000000000E+00  0.00000000000E+00  0.45593999997E+02  0.45594000000E+02  0.51100000000E-03 0.  1.
         11   -1    0    0    0    0 -0.00000000000E+00 -0.00000000000E+00 -0.45593999997E+02  0.45594000000E+02  0.51100000000E-03 0. -1.
    9900012    2    1    2    0    0  0.10871210573E+01 -0.45941198009E+00 -0.78520720906E-02  0.90007765610E+02  0.90000027316E+02 0.  0.
        -12    1    1    2    0    0 -0.10871210573E+01  0.45941198009E+00  0.78520720906E-02  0.11802343902E+01  0.00000000000E+00 0.  1.
         11    1    3    3    0    0 -0.19416625796E+01 -0.98332305405E+01  0.33838344886E+01  0.10578885222E+02  0.51100000000E-03 0. -1.
        -11    1    3    3    0    0 -0.14945198992E+02 -0.14085172408E+02  0.29029643154E+02  0.35559404334E+02  0.51100000000E-03 0.  1.
         12    1    3    3    0    0  0.17973982629E+02  0.23458990969E+02 -0.32421329714E+02  0.43869476054E+02  0.00000000000E+00 0. -1.
</event>
<event>
 7    1  0.3662489E-015  0.9000776E+02  0.7816164E-02  0.1186339E+00
        -11   -1    0    0    0    0  0.00000000000E+00  0.00000000000E+00  0.45593999997E+02  0.45594000000E+02  0.51100000000E-03 0.  1.
         11   -1    0    0    0    0 -0.00000000000E+00 -0.00000000000E+00 -0.45593999997E+02  0.45594000000E+02  0.51100000000E-03 0. -1.
    9900012    2    1    2    0    0 -0.50156554270E+00 -0.81238710408E+00 -0.69384955443E+00  0.90007759345E+02  0.90000020968E+02 0.  0.
        -12    1    1    2    0    0  0.50156554270E+00  0.81238710408E+00  0.69384955443E+00  0.11802406554E+01  0.00000000000E+00 0.  1.
         11    1    3    3    0    0 -0.29378813834E+01 -0.21838490228E+02 -0.29193368951E+02  0.36575997504E+02  0.51100000000E-03 0. -1.
        -11    1    3    3    0    0 -0.76435376030E+01 -0.56754985454E+01 -0.38698888309E+01  0.10276720812E+02  0.51100000000E-03 0.  1.
        -12    1    3    3    0    0  0.10079853444E+02  0.26701601670E+02  0.32369408227E+02  0.43155041028E+02  0.00000000000E+00 0.  1.
</event>
<event>
 7    1  0.3662489E-015  0.9000778E+02  0.7816164E-02  0.1186339E+00
        -11   -1    0    0    0    0  0.00000000000E+00  0.00000000000E+00  0.45593999997E+02  0.45594000000E+02  0.51100000000E-03 0.  1.
         11   -1    0    0    0    0 -0.00000000000E+00 -0.00000000000E+00 -0.45593999997E+02  0.45594000000E+02  0.51100000000E-03 0. -1.
    9900012    2    1    2    0    0  0.11303911558E+01 -0.16213320266E-01  0.33891245924E+00  0.90007784472E+02  0.90000046427E+02 0.  0.
        -12    1    1    2    0    0 -0.11303911558E+01  0.16213320266E-01 -0.33891245924E+00  0.11802155278E+01  0.00000000000E+00 0.  1.
         11    1    3    3    0    0  0.21685816696E+02  0.21240577655E+02  0.25783774783E+02  0.39827626432E+02  0.51100000000E-03 0. -1.
        -11    1    3    3    0    0  0.38444752422E+01  0.38695788331E+01  0.18675669257E+01  0.57655387188E+01  0.51100000000E-03 0.  1.
        -12    1    3    3    0    0 -0.24399900783E+02 -0.25126369808E+02 -0.27312429250E+02  0.44414619321E+02  0.00000000000E+00 0.  1.
</event>
<event>
 7    1  0.3662489E-015  0.9000772E+02  0.7816164E-02  0.1186339E+00
        -11   -1    0    0    0    0  0.00000000000E+00  0.00000000000E+00  0.45593999997E+02  0.45594000000E+02  0.51100000000E-03 0.  1.
         11   -1    0    0    0    0 -0.00000000000E+00 -0.00000000000E+00 -0.45593999997E+02  0.45594000000E+02  0.51100000000E-03 0. -1.
    9900012    2    1    2    0    0 -0.56251382843E+00  0.60836849028E+00  0.84055381544E+00  0.90007718363E+02  0.89999979445E+02 0.  0.
        -12    1    1    2    0    0  0.56251382843E+00 -0.60836849028E+00 -0.84055381544E+00  0.11802816375E+01  0.00000000000E+00 0.  1.
         11    1    3    3    0    0  0.18018194428E+01 -0.35262420159E+02  0.16976164545E+02  0.39177480671E+02  0.51100000000E-03 0. -1.
        -11    1    3    3    0    0  0.88544175510E+01 -0.25431756585E+00  0.16829863109E+01  0.90165309724E+01  0.51100000000E-03 0.  1.
        -12    1    3    3    0    0 -0.11218750822E+02  0.36125106215E+02 -0.17818597041E+02  0.41813706719E+02  0.00000000000E+00 0.  1.
</event>
<event>
 7    1  0.3662489E-015  0.9000774E+02  0.7816164E-02  0.1186339E+00
        -11   -1    0    0    0    0  0.00000000000E+00  0.00000000000E+00  0.45593999997E+02  0.45594000000E+02  0.51100000000E-03 0.  1.
         11   -1    0    0    0    0 -0.00000000000E+00 -0.00000000000E+00 -0.45593999997E+02  0.45594000000E+02  0.51100000000E-03 0. -1.
    9900012    2    1    2    0    0  0.81702457990E+00 -0.36840454999E+00 -0.76796440712E+00  0.90007737145E+02  0.89999998475E+02 0.  0.
        -12    1    1    2    0    0 -0.81702457990E+00  0.36840454999E+00  0.76796440712E+00  0.11802628551E+01  0.00000000000E+00 0.  1.
         11    1    3    3    0    0  0.21292742956E+02  0.16097363879E+02 -0.27063357748E+02  0.38012252752E+02  0.51100000000E-03 0. -1.
        -11    1    3    3    0    0 -0.97611515477E+01 -0.19039658875E+02 -0.21369547902E+01  0.21502447899E+02  0.51100000000E-03 0.  1.
        -12    1    3    3    0    0 -0.10714566829E+02  0.25738904456E+01  0.28432348131E+02  0.30493036493E+02  0.00000000000E+00 0.  1.
</event>
<event>
 7    1  0.3662489E-015  0.9000780E+02  0.7816164E-02  0.1186339E+00
        -11   -1    0    0    0    0  0.00000000000E+00  0.00000000000E+00  0.45593999997E+02  0.45594000000E+02  0.51100000000E-03 0.  1.
         11   -1    0    0    0    0 -0.00000000000E+00 -0.00000000000E+00 -0.45593999997E+02  0.45594000000E+02  0.51100000000E-03 0. -1.
    9900012    2    1    2    0    0 -0.58651695814E+00  0.47089265133E+00 -0.90947138798E+00  0.90007796527E+02  0.90000058642E+02 0.  0.
        -12    1    1    2    0    0  0.58651695814E+00 -0.47089265133E+00  0.90947138798E+00  0.11802034726E+01  0.00000000000E+00 0.  1.
         11    1    3    3    0    0  0.90076915383E+01 -0.27588729931E+02 -0.22872260774E+02  0.36951547183E+02  0.51100000000E-03 0. -1.
        -11    1    3    3    0    0 -0.34163554933E+00 -0.69247658385E+01 -0.44646547891E+01  0.82463470345E+01  0.51100000000E-03 0.  1.
        -12    1    3    3    0    0 -0.92525729471E+01  0.34984388421E+02  0.26427444175E+02  0.44809902309E+02  0.00000000000E+00 0.  1.
</event>
<event>
 7    1  0.3662489E-015  0.9000784E+02  0.7816164E-02  0.1186339E+00
        -11   -1    0    0    0    0  0.00000000000E+00  0.00000000000E+00  0.45593999997E+02  0.45594000000E+02  0.51100000000E-03 0. -1.
         11   -1    0    0    0    0 -0.00000000000E+00 -0.00000000000E+00 -0.45593999997E+02  0.45594000000E+02  0.51100000000E-03 0.  1.
    9900012    2    1    2    0    0  0.10312363835E+01 -0.39955568713E+00  0.41191785763E+00  0.90007843423E+02  0.90000106156E+02 0.  0.
        -12    1    1    2    0    0 -0.10312363835E+01  0.39955568713E+00 -0.41191785763E+00  0.11801565774E+01  0.00000000000E+00 0.  1.
         11    1    3    3    0    0 -0.13578404227E+02 -0.56328078668E+01  0.14331030711E+02  0.20529978746E+02  0.51100000000E-03 0. -1.
        -11    1    3    3    0    0 -0.96213732614E+01  0.24543165808E+02 -0.25234027002E+02  0.36492381812E+02  0.51100000000E-03 0.  1.
        -12    1    3    3    0    0  0.24231013872E+02 -0.19309913629E+02  0.11314914149E+02  0.32985482864E+02  0.00000000000E+00 0.  1.
</event>
<event>
 7    1  0.3662489E-015  0.9000779E+02  0.7816164E-02  0.1186339E+00
        -11   -1    0    0    0    0  0.00000000000E+00  0.00000000000E+00  0.45593999997E+02  0.45594000000E+02  0.51100000000E-03 0.  1.
         11   -1    0    0    0    0 -0.00000000000E+00 -0.00000000000E+00 -0.45593999997E+02  0.45594000000E+02  0.51100000000E-03 0. -1.
    9900012    2    1    2    0    0 -0.50203313705E+00 -0.65559496520E+00 -0.84324554927E+00  0.90007786000E+02  0.90000047975E+02 0.  0.
        -12    1    1    2    0    0  0.50203313705E+00  0.65559496520E+00  0.84324554927E+00  0.11802139998E+01  0.00000000000E+00 0.  1.
         11    1    3    3    0    0 -0.91963132255E+00 -0.25576071713E+02  0.29401592743E+02  0.38979928452E+02  0.51100000000E-03 0. -1.
        -11    1    3    3    0    0  0.25862795490E+01  0.61148279199E+01  0.67518803037E+01  0.94693109724E+01  0.51100000000E-03 0.  1.
        -12    1    3    3    0    0 -0.21686813635E+01  0.18805648827E+02 -0.36996718596E+02  0.41558546576E+02  0.00000000000E+00 0.  1.
</event>
<event>
 7    1  0.3662489E-015  0.9000807E+02  0.7816164E-02  0.1186338E+00
        -11   -1    0    0    0    0  0.00000000000E+00  0.00000000000E+00  0.45593999997E+02  0.45594000000E+02  0.51100000000E-03 0. -1.
         11   -1    0    0    0    0 -0.00000000000E+00 -0.00000000000E+00 -0.45593999997E+02  0.45594000000E+02  0.51100000000E-03 0.  1.
    9900012    2    1    2    0    0  0.33790890298E+00 -0.10348954970E+01  0.45502887416E+00  0.90008066785E+02  0.90000332466E+02 0.  0.
        -12    1    1    2    0    0 -0.33790890298E+00  0.10348954970E+01 -0.45502887416E+00  0.11799332154E+01  0.00000000000E+00 0.  1.
         11    1    3    3    0    0  0.19324827797E+01 -0.21136513854E+01  0.73857538315E+01  0.79215763452E+01  0.51100000000E-03 0. -1.
        -11    1    3    3    0    0  0.39489986594E+02  0.46908068115E+01 -0.90670535626E+01  0.40788162134E+02  0.51100000000E-03 0.  1.
         12    1    3    3    0    0 -0.41084560470E+02 -0.36120509231E+01  0.21363286052E+01  0.41298328305E+02  0.00000000000E+00 0. -1.
</event>
<event>
 7    1  0.3662489E-015  0.9000773E+02  0.7816164E-02  0.1186339E+00
        -11   -1    0    0    0    0  0.00000000000E+00  0.00000000000E+00  0.45593999997E+02  0.45594000000E+02  0.51100000000E-03 0. -1.
         11   -1    0    0    0    0 -0.00000000000E+00 -0.00000000000E+00 -0.45593999997E+02  0.45594000000E+02  0.51100000000E-03 0.  1.
    9900012    2    1    2    0    0  0.95831202830E+00 -0.68368294089E+00  0.85132348494E-01  0.90007732308E+02  0.89999993575E+02 0.  0.
        -12    1    1    2    0    0 -0.95831202830E+00  0.68368294089E+00 -0.85132348494E-01  0.11802676917E+01  0.00000000000E+00 0.  1.
         11    1    3    3    0    0  0.14073476283E+01 -0.69753239780E+00  0.94419808617E+01  0.95717386951E+01  0.51100000000E-03 0. -1.
        -11    1    3    3    0    0 -0.43446046023E+01 -0.29359190867E+02 -0.31625487507E+02  0.43370602230E+02  0.51100000000E-03 0.  1.
         12    1    3    3    0    0  0.38955690023E+01  0.29373040324E+02  0.22268638994E+02  0.37065391383E+02  0.00000000000E+00 0. -1.
</event>
<event>
 7    1  0.3662489E-015  0.9000780E+02  0.7816164E-02  0.1186339E+00
        -11   -1    0    0    0    0  0.00000000000E+00  0.00000000000E+00  0.45593999997E+02  0.45594000000E+02  0.51100000000E-03 0.  1.
         11   -1    0    0    0    0 -0.00000000000E+00 -0.00000000000E+00 -0.45593999997E+02  0.45594000000E+02  0.51100000000E-03 0. -1.
    9900012    2    1    2    0    0  0.72309518899E+00  0.87609415064E+00 -0.32009652364E+00  0.90007801119E+02  0.90000063294E+02 0.  0.
        -12    1    1    2    0    0 -0.72309518899E+00 -0.87609415064E+00  0.32009652364E+00  0.11801988805E+01  0.00000000000E+00 0.  1.
         11    1    3    3    0    0  0.57277296152E+01  0.12466852363E+01  0.72678422527E+01  0.93371645533E+01  0.51100000000E-03 0. -1.
        -11    1    3    3    0    0  0.23108131063E+02  0.14059361626E+02  0.23874836730E+02  0.36078514378E+02  0.51100000000E-03 0.  1.
         12    1    3    3    0    0 -0.28112765489E+02 -0.14429952712E+02 -0.31462775506E+02  0.44592122189E+02  0.00000000000E+00 0. -1.
</event>
<event>
 7    1  0.3662489E-015  0.9000782E+02  0.7816164E-02  0.1186339E+00
        -11   -1    0    0    0    0  0.00000000000E+00  0.00000000000E+00  0.45593999997E+02  0.45594000000E+02  0.51100000000E-03 0.  1.
         11   -1    0    0    0    0 -0.00000000000E+00 -0.00000000000E+00 -0.45593999997E+02  0.45594000000E+02  0.51100000000E-03 0. -1.
    9900012    2    1    2    0    0  0.35962765557E+00 -0.31787678579E+00 -0.10781723612E+01  0.90007816395E+02  0.90000078771E+02 0.  0.
        -12    1    1    2    0    0 -0.35962765557E+00  0.31787678579E+00  0.10781723612E+01  0.11801836052E+01  0.00000000000E+00 0.  1.
         11    1    3    3    0    0  0.26274185323E+02  0.13364615171E+02 -0.26095762163E+02  0.39369208224E+02  0.51100000000E-03 0. -1.
        -11    1    3    3    0    0  0.73017551884E+01 -0.48271418409E+01  0.12409213743E+01  0.88406342137E+01  0.51100000000E-03 0.  1.
        -12    1    3    3    0    0 -0.33216312856E+02 -0.88553501158E+01  0.23776668428E+02  0.41797973957E+02  0.00000000000E+00 0.  1.
</event>
<event>
 7    1  0.3662489E-015  0.9000770E+02  0.7816164E-02  0.1186339E+00
        -11   -1    0    0    0    0  0.00000000000E+00  0.00000000000E+00  0.45593999997E+02  0.45594000000E+02  0.51100000000E-03 0.  1.
         11   -1    0    0    0    0 -0.00000000000E+00 -0.00000000000E+00 -0.45593999997E+02  0.45594000000E+02  0.51100000000E-03 0. -1.
    9900012    2    1    2    0    0 -0.80409676737E+00 -0.67055653911E+00 -0.54486742757E+00  0.90007704191E+02  0.89999965086E+02 0.  0.
        -12    1    1    2    0    0  0.80409676737E+00  0.67055653911E+00  0.54486742757E+00  0.11802958091E+01  0.00000000000E+00 0.  1.
         11    1    3    3    0    0  0.40711888199E+01  0.17992775974E+01  0.81047100051E+01  0.92465292303E+01  0.51100000000E-03 0. -1.
        -11    1    3    3    0    0 -0.23038697593E+02 -0.26784502425E+01  0.30079851558E+02  0.37983590569E+02  0.51100000000E-03 0.  1.
         12    1    3    3    0    0  0.18163412006E+02  0.20861610603E+00 -0.38729428991E+02  0.42777584391E+02  0.00000000000E+00 0. -1.
</event>
<event>
 7    1  0.3662489E-015  0.9000791E+02  0.7816164E-02  0.1186339E+00
        -11   -1    0    0    0    0  0.00000000000E+00  0.00000000000E+00  0.45593999997E+02  0.45594000000E+02  0.51100000000E-03 0.  1.
         11   -1    0    0    0    0 -0.00000000000E+00 -0.00000000000E+00 -0.45593999997E+02  0.45594000000E+02  0.51100000000E-03 0. -1.
    9900012    2    1    2    0    0 -0.60184118919E+00  0.10144371465E+01  0.36216757686E-01  0.90007912209E+02  0.90000175850E+02 0.  0.
        -12    1    1    2    0    0  0.60184118919E+00 -0.10144371465E+01 -0.36216757686E-01  0.11800877911E+01  0.00000000000E+00 0.  1.
         11    1    3    3    0    0  0.14492946739E+00 -0.10229551567E+02  0.56097766860E+01  0.11667661485E+02  0.51100000000E-03 0. -1.
        -11    1    3    3    0    0 -0.63286552313E+01 -0.19188259156E+02  0.26797558862E+02  0.33561143123E+02  0.51100000000E-03 0.  1.
         12    1    3    3    0    0  0.55818845747E+01  0.30432247870E+02 -0.32371118790E+02  0.44779107601E+02  0.00000000000E+00 0. -1.
</event>
<event>
 7    1  0.3662489E-015  0.9000766E+02  0.7816164E-02  0.1186339E+00
        -11   -1    0    0    0    0  0.00000000000E+00  0.00000000000E+00  0.45593999997E+02  0.45594000000E+02  0.51100000000E-03 0.  1.
         11   -1    0    0    0    0 -0.00000000000E+00 -0.00000000000E+00 -0.45593999997E+02  0.45594000000E+02  0.51100000000E-03 0. -1.
    9900012    2    1    2    0    0  0.64732736170E+00 -0.21098825652E+00  0.96418175345E+00  0.90007663094E+02  0.89999923447E+02 0.  0.
        -12    1    1    2    0    0 -0.64732736170E+00  0.21098825652E+00 -0.96418175345E+00  0.11803369058E+01  0.00000000000E+00 0.  1.
         11    1    3    3    0    0  0.51903644819E+01  0.68891336726E+01 -0.33253708383E+01  0.92443570727E+01  0.51100000000E-03 0. -1.
        -11    1    3    3    0    0  0.17625047238E+02 -0.14321157597E+01  0.36904645881E+02  0.40922440464E+02  0.51100000000E-03 0.  1.
         12    1    3    3    0    0 -0.22168084358E+02 -0.56680061695E+01 -0.32615093290E+02  0.39840865557E+02  0.00000000000E+00 0. -1.
</event>
<event>
 7    1  0.3662489E-015  0.9000771E+02  0.7816164E-02  0.1186339E+00
        -11   -1    0    0    0    0  0.00000000000E+00  0.00000000000E+00  0.45593999997E+02  0.45594000000E+02  0.51100000000E-03 0. -1.
         11   -1    0    0    0    0 -0.00000000000E+00 -0.00000000000E+00 -0.45593999997E+02  0.45594000000E+02  0.51100000000E-03 0.  1.
    9900012    2    1    2    0    0  0.12050524262E+00 -0.53240050716E+00  0.10464804324E+01  0.90007706346E+02  0.89999967270E+02 0.  0.
        -12    1    1    2    0    0 -0.12050524262E+00  0.53240050716E+00 -0.10464804324E+01  0.11802936537E+01  0.00000000000E+00 0.  1.
         11    1    3    3    0    0  0.89026334050E+01  0.91965245797E+01 -0.13138918117E+02  0.18342958198E+02  0.51100000000E-03 0. -1.
        -11    1    3    3    0    0 -0.11728668533E+02  0.12393924359E+02 -0.22793368231E+02  0.28472946145E+02  0.51100000000E-03 0.  1.
         12    1    3    3    0    0  0.29465403710E+01 -0.22122849446E+02  0.36978766780E+02  0.43191802004E+02  0.00000000000E+00 0. -1.
</event>
<event>
 7    1  0.3662489E-015  0.9000749E+02  0.7816164E-02  0.1186340E+00
        -11   -1    0    0    0    0  0.00000000000E+00  0.00000000000E+00  0.45593999997E+02  0.45594000000E+02  0.51100000000E-03 0. -1.
         11   -1    0    0    0    0 -0.00000000000E+00 -0.00000000000E+00 -0.45593999997E+02  0.45594000000E+02  0.51100000000E-03 0.  1.
    9900012    2    1    2    0    0 -0.10886096383E+01  0.37127733485E+00  0.26585598887E+00  0.90007492816E+02  0.89999750921E+02 0.  0.
        -12    1    1    2    0    0  0.10886096383E+01 -0.37127733485E+00 -0.26585598887E+00  0.11805071837E+01  0.00000000000E+00 0.  1.
         11    1    3    3    0    0  0.58617478205E+01 -0.27078823062E+02 -0.17966663612E+02  0.33021564886E+02  0.51100000000E-03 0. -1.
        -11    1    3    3    0    0 -0.90537973518E+01 -0.11693337632E+02  0.47831346908E+01  0.15542965264E+02  0.51100000000E-03 0.  1.
        -12    1    3    3    0    0  0.21034398930E+01  0.39143438029E+02  0.13449384910E+02  0.41442962666E+02  0.00000000000E+00 0.  1.
</event>
<event>
 7    1  0.3662489E-015  0.9000773E+02  0.7816164E-02  0.1186339E+00
        -11   -1    0    0    0    0  0.00000000000E+00  0.00000000000E+00  0.45593999997E+02  0.45594000000E+02  0.51100000000E-03 0.  1.
         11   -1    0    0    0    0 -0.00000000000E+00 -0.00000000000E+00 -0.45593999997E+02  0.45594000000E+02  0.51100000000E-03 0. -1.
    9900012    2    1    2    0    0 -0.49093770673E+00  0.93251384684E+00 -0.53144695368E+00  0.90007729789E+02  0.89999991022E+02 0.  0.
        -12    1    1    2    0    0  0.49093770673E+00 -0.93251384684E+00  0.53144695368E+00  0.11802702110E+01  0.00000000000E+00 0.  1.
         11    1    3    3    0    0  0.30087808967E+02  0.28895129625E+00  0.30183812885E+02  0.42619506119E+02  0.51100000000E-03 0. -1.
        -11    1    3    3    0    0 -0.65736003135E+01 -0.37835812303E+01  0.68558417003E+00  0.76156243292E+01  0.51100000000E-03 0.  1.
        -12    1    3    3    0    0 -0.24005146360E+02  0.44271437809E+01 -0.31400844009E+02  0.39772599341E+02  0.00000000000E+00 0.  1.
</event>
<event>
 7    1  0.3662489E-015  0.9000773E+02  0.7816164E-02  0.1186339E+00
        -11   -1    0    0    0    0  0.00000000000E+00  0.00000000000E+00  0.45593999997E+02  0.45594000000E+02  0.51100000000E-03 0.  1.
         11   -1    0    0    0    0 -0.00000000000E+00 -0.00000000000E+00 -0.45593999997E+02  0.45594000000E+02  0.51100000000E-03 0. -1.
    9900012    2    1    2    0    0  0.31714731549E+00 -0.11351504545E+01 -0.62442216983E-01  0.90007725454E+02  0.89999986630E+02 0.  0.
        -12    1    1    2    0    0 -0.31714731549E+00  0.11351504545E+01  0.62442216983E-01  0.11802745463E+01  0.00000000000E+00 0.  1.
         11    1    3    3    0    0 -0.27268139215E+01 -0.26168634150E+01  0.89315919656E+01  0.96982897253E+01  0.51100000000E-03 0. -1.
        -11    1    3    3    0    0  0.12794358069E+02  0.17273959408E+02  0.30126612799E+02  0.37009432190E+02  0.51100000000E-03 0.  1.
         12    1    3    3    0    0 -0.97503968317E+01 -0.15792246447E+02 -0.39120646981E+02  0.43300003539E+02  0.00000000000E+00 0. -1.
</event>
<event>
 7    1  0.3662489E-015  0.9000771E+02  0.7816164E-02  0.1186339E+00
        -11   -1    0    0    0    0  0.00000000000E+00  0.00000000000E+00  0.45593999997E+02  0.45594000000E+02  0.51100000000E-03 0. -1.
         11   -1    0    0    0    0 -0.00000000000E+00 -0.00000000000E+00 -0.45593999997E+02  0.45594000000E+02  0.51100000000E-03 0.  1.
    9900012    2    1    2    0    0 -0.33687471127E+00 -0.42934094482E+00  0.10465523058E+01  0.90007707686E+02  0.89999968627E+02 0.  0.
        -12    1    1    2    0    0  0.33687471127E+00  0.42934094482E+00 -0.10465523058E+01  0.11802923141E+01  0.00000000000E+00 0.  1.
         11    1    3    3    0    0 -0.67874902437E-01 -0.18726590574E+02  0.25076211716E+02  0.31297063693E+02  0.51100000000E-03 0. -1.
        -11    1    3    3    0    0 -0.10459839238E+02 -0.53495066539E+01  0.10418474082E+02  0.15702549499E+02  0.51100000000E-03 0.  1.
        -12    1    3    3    0    0  0.10190839429E+02  0.23646756283E+02 -0.34448133491E+02  0.43008094494E+02  0.00000000000E+00 0.  1.
</event>
<event>
 7    1  0.3662489E-015  0.9000777E+02  0.7816164E-02  0.1186339E+00
        -11   -1    0    0    0    0  0.00000000000E+00  0.00000000000E+00  0.45593999997E+02  0.45594000000E+02  0.51100000000E-03 0. -1.
         11   -1    0    0    0    0 -0.00000000000E+00 -0.00000000000E+00 -0.45593999997E+02  0.45594000000E+02  0.51100000000E-03 0.  1.
    9900012    2    1    2    0    0 -0.10073360656E+01  0.56952927630E+00  0.23206591984E+00  0.90007769456E+02  0.90000031213E+02 0.  0.
        -12    1    1    2    0    0  0.10073360656E+01 -0.56952927630E+00 -0.23206591984E+00  0.11802305439E+01  0.00000000000E+00 0.  1.
         11    1    3    3    0    0 -0.40248583463E+01 -0.64135131278E+01 -0.57745853553E+01  0.95225244361E+01  0.51100000000E-03 0. -1.
        -11    1    3    3    0    0 -0.23056247866E+02 -0.81527720120E+01 -0.26561397805E+02  0.36104931945E+02  0.51100000000E-03 0.  1.
         12    1    3    3    0    0  0.26073770147E+02  0.15135814416E+02  0.32568049080E+02  0.44380313075E+02  0.00000000000E+00 0. -1.
</event>
<event>
 7    1  0.3662489E-015  0.9000779E+02  0.7816164E-02  0.1186339E+00
        -11   -1    0    0    0    0  0.00000000000E+00  0.00000000000E+00  0.45593999997E+02  0.45594000000E+02  0.51100000000E-03 0. -1.
         11   -1    0    0    0    0 -0.00000000000E+00 -0.00000000000E+00 -0.45593999997E+02  0.45594000000E+02  0.51100000000E-03 0.  1.
    9900012    2    1    2    0    0  0.11149818471E+01  0.36684250800E+00  0.12299007219E+00  0.90007794720E+02  0.90000056810E+02 0.  0.
        -12    1    1    2    0    0 -0.11149818471E+01 -0.36684250800E+00 -0.12299007219E+00  0.11802052800E+01  0.00000000000E+00 0.  1.
         11    1    3    3    0    0 -0.14086857314E+02  0.66899745075E+01  0.31304698904E+02  0.34973982925E+02  0.51100000000E-03 0. -1.
        -11    1    3    3    0    0 -0.41092832303E+01  0.92921967705E+01  0.48612606662E+01  0.11263346972E+02  0.51100000000E-03 0.  1.
        -12    1    3    3    0    0  0.19311122391E+02 -0.15615328770E+02 -0.36042969498E+02  0.43770464823E+02  0.00000000000E+00 0.  1.
</event>
<event>
 7    1  0.3662489E-015  0.9000772E+02  0.7816164E-02  0.1186339E+00
        -11   -1    0    0    0    0  0.00000000000E+00  0.00000000000E+00  0.45593999997E+02  0.45594000000E+02  0.51100000000E-03 0.  1.
         11   -1    0    0    0    0 -0.00000000000E+00 -0.00000000000E+00 -0.45593999997E+02  0.45594000000E+02  0.51100000000E-03 0. -1.
    9900012    2    1    2    0    0  0.77852306370E+00 -0.71685528555E+00 -0.52257357533E+00  0.90007719185E+02  0.89999980278E+02 0.  0.
        -12    1    1    2    0    0 -0.77852306370E+00  0.71685528555E+00  0.52257357533E+00  0.11802808152E+01  0.00000000000E+00 0.  1.
         11    1    3    3    0    0  0.11301296679E+02  0.26414201728E+01  0.88380518255E+01  0.14587925400E+02  0.51100000000E-03 0. -1.
        -11    1    3    3    0    0  0.14293328614E+02  0.13246526734E+02  0.23824105099E+02  0.30779176360E+02  0.51100000000E-03 0.  1.
         12    1    3    3    0    0 -0.24816102229E+02 -0.16604802192E+02 -0.33184730500E+02  0.44640617424E+02  0.00000000000E+00 0. -1.
</event>
<event>
 7    1  0.3662489E-015  0.9000781E+02  0.7816164E-02  0.1186339E+00
        -11   -1    0    0    0    0  0.00000000000E+00  0.00000000000E+00  0.45593999997E+02  0.45594000000E+02  0.51100000000E-03 0.  1.
         11   -1    0    0    0    0 -0.00000000000E+00 -0.00000000000E+00 -0.45593999997E+02  0.45594000000E+02  0.51100000000E-03 0. -1.
    9900012    2    1    2    0    0  0.42498581934E+00 -0.10855142164E+01 -0.18408731259E+00  0.90007812642E+02  0.90000074969E+02 0.  0.
        -12    1    1    2    0    0 -0.42498581934E+00  0.10855142164E+01  0.18408731259E+00  0.11801873577E+01  0.00000000000E+00 0.  1.
         11    1    3    3    0    0 -0.81412167646E+01  0.47665464394E+01 -0.22439017223E+02  0.24341505080E+02  0.51100000000E-03 0. -1.
        -11    1    3    3    0    0 -0.53908579878E+01  0.18907969591E+01 -0.19840487557E+02  0.20646583489E+02  0.51100000000E-03 0.  1.
        -12    1    3    3    0    0  0.13957060572E+02 -0.77428576149E+01  0.42095417468E+02  0.45019724073E+02  0.00000000000E+00 0.  1.
</event>
<event>
 7    1  0.3662489E-015  0.9000686E+02  0.7816164E-02  0.1186341E+00
        -11   -1    0    0    0    0  0.00000000000E+00  0.00000000000E+00  0.45593999997E+02  0.45594000000E+02  0.51100000000E-03 0.  1.
         11   -1    0    0    0    0 -0.00000000000E+00 -0.00000000000E+00 -0.45593999997E+02  0.45594000000E+02  0.51100000000E-03 0. -1.
    9900012    2    1    2    0    0  0.44383438084E+00  0.12369075978E-01 -0.10945111020E+01  0.90006857966E+02  0.89999107687E+02 0.  0.
        -12    1    1    2    0    0 -0.44383438084E+00 -0.12369075978E-01  0.10945111020E+01  0.11811420338E+01  0.00000000000E+00 0.  1.
         11    1    3    3    0    0 -0.58622368204E+01 -0.53133679015E+01  0.64462625620E+01  0.10205488733E+02  0.51100000000E-03 0. -1.
        -11    1    3    3    0    0 -0.28017792080E+02  0.30391564863E+01  0.20965402293E+02  0.35125222258E+02  0.51100000000E-03 0.  1.
         12    1    3    3    0    0  0.34323863281E+02  0.22865804912E+01 -0.28506175956E+02  0.44676146975E+02  0.00000000000E+00 0. -1.
</event>
<event>
 7    1  0.3662489E-015  0.9000781E+02  0.7816164E-02  0.1186339E+00
        -11   -1    0    0    0    0  0.00000000000E+00  0.00000000000E+00  0.45593999997E+02  0.45594000000E+02  0.51100000000E-03 0. -1.
         11   -1    0    0    0    0 -0.00000000000E+00 -0.00000000000E+00 -0.45593999997E+02  0.45594000000E+02  0.51100000000E-03 0.  1.
    9900012    2    1    2    0    0 -0.10719791584E+01  0.48776015017E+00  0.76113453391E-01  0.90007812499E+02  0.90000074824E+02 0.  0.
        -12    1    1    2    0    0  0.10719791584E+01 -0.48776015017E+00 -0.76113453391E-01  0.11801875012E+01  0.00000000000E+00 0.  1.
         11    1    3    3    0    0  0.32046230696E+01  0.53100978176E+01 -0.67212946052E+01  0.91456300647E+01  0.51100000000E-03 0. -1.
        -11    1    3    3    0    0 -0.11090275463E+02  0.31391557035E+02 -0.16610563206E+02  0.37206650927E+02  0.51100000000E-03 0.  1.
         12    1    3    3    0    0  0.68136732353E+01 -0.36213894702E+02  0.23407971264E+02  0.43655531507E+02  0.00000000000E+00 0. -1.
</event>
<event>
 7    1  0.3662489E-015  0.9000781E+02  0.7816164E-02  0.1186339E+00
        -11   -1    0    0    0    0  0.00000000000E+00  0.00000000000E+00  0.45593999997E+02  0.45594000000E+02  0.51100000000E-03 0.  1.
         11   -1    0    0    0    0 -0.00000000000E+00 -0.00000000000E+00 -0.45593999997E+02  0.45594000000E+02  0.51100000000E-03 0. -1.
    9900012    2    1    2    0    0 -0.64873161875E+00  0.97816457570E+00  0.12323107586E+00  0.90007811647E+02  0.90000073961E+02 0.  0.
        -12    1    1    2    0    0  0.64873161875E+00 -0.97816457570E+00 -0.12323107586E+00  0.11801883529E+01  0.00000000000E+00 0.  1.
         11    1    3    3    0    0  0.13698456794E+01 -0.15561242933E+01 -0.94800287939E+01  0.97040685383E+01  0.51100000000E-03 0. -1.
        -11    1    3    3    0    0  0.15681728933E+02  0.32560359983E+02 -0.13397941303E+02  0.38543462428E+02  0.51100000000E-03 0.  1.
         12    1    3    3    0    0 -0.17700306231E+02 -0.30026071114E+02  0.23001201172E+02  0.41760280681E+02  0.00000000000E+00 0. -1.
</event>
<event>
 7    1  0.3662489E-015  0.9000772E+02  0.7816164E-02  0.1186339E+00
        -11   -1    0    0    0    0  0.00000000000E+00  0.00000000000E+00  0.45593999997E+02  0.45594000000E+02  0.51100000000E-03 0.  1.
         11   -1    0    0    0    0 -0.00000000000E+00 -0.00000000000E+00 -0.45593999997E+02  0.45594000000E+02  0.51100000000E-03 0. -1.
    9900012    2    1    2    0    0  0.66954593448E+00 -0.47775299746E+00 -0.84647160446E+00  0.90007722972E+02  0.89999984116E+02 0.  0.
        -12    1    1    2    0    0 -0.66954593448E+00  0.47775299746E+00  0.84647160446E+00  0.11802770277E+01  0.00000000000E+00 0.  1.
         11    1    3    3    0    0 -0.38789004424E+02 -0.15560250317E+02 -0.13198600760E+02  0.43828202295E+02  0.51100000000E-03 0. -1.
        -11    1    3    3    0    0  0.99473181350E+01 -0.23372463808E+01  0.24322709772E+01  0.10503704160E+02  0.51100000000E-03 0.  1.
        -12    1    3    3    0    0  0.29511232223E+02  0.17419743700E+02  0.99198581779E+01  0.35675816517E+02  0.00000000000E+00 0.  1.
</event>
<event>
 7    1  0.3662489E-015  0.9000773E+02  0.7816164E-02  0.1186339E+00
        -11   -1    0    0    0    0  0.00000000000E+00  0.00000000000E+00  0.45593999997E+02  0.45594000000E+02  0.51100000000E-03 0.  1.
         11   -1    0    0    0    0 -0.00000000000E+00 -0.00000000000E+00 -0.45593999997E+02  0.45594000000E+02  0.51100000000E-03 0. -1.
    9900012    2    1    2    0    0 -0.15926582108E+00 -0.33280794636E+00 -0.11211227704E+01  0.90007727575E+02  0.89999988779E+02 0.  0.
        -12    1    1    2    0    0  0.15926582108E+00  0.33280794636E+00  0.11211227704E+01  0.11802724250E+01  0.00000000000E+00 0.  1.
         11    1    3    3    0    0  0.62932240916E+01 -0.23907293650E+01 -0.75463612926E+01  0.10112755578E+02  0.51100000000E-03 0. -1.
        -11    1    3    3    0    0 -0.10399664577E+02 -0.26930509832E+02  0.30508104120E+02  0.42001783300E+02  0.51100000000E-03 0.  1.
         12    1    3    3    0    0  0.39471746639E+01  0.28988431251E+02 -0.24082865598E+02  0.37893188697E+02  0.00000000000E+00 0. -1.
</event>
<event>
 7    1  0.3662489E-015  0.9000774E+02  0.7816164E-02  0.1186339E+00
        -11   -1    0    0    0    0  0.00000000000E+00  0.00000000000E+00  0.45593999997E+02  0.45594000000E+02  0.51100000000E-03 0.  1.
         11   -1    0    0    0    0 -0.00000000000E+00 -0.00000000000E+00 -0.45593999997E+02  0.45594000000E+02  0.51100000000E-03 0. -1.
    9900012    2    1    2    0    0 -0.90334364073E+00  0.75702850431E+00 -0.62378198442E-01  0.90007740313E+02  0.90000001685E+02 0.  0.
        -12    1    1    2    0    0  0.90334364073E+00 -0.75702850431E+00  0.62378198442E-01  0.11802596872E+01  0.00000000000E+00 0.  1.
         11    1    3    3    0    0  0.21353980501E+01 -0.19107412828E+01  0.10648066945E+02  0.11026884738E+02  0.51100000000E-03 0. -1.
        -11    1    3    3    0    0  0.13706132120E+01 -0.34737535093E+02  0.97660831823E+01  0.36110265935E+02  0.51100000000E-03 0.  1.
         12    1    3    3    0    0 -0.44093549028E+01  0.37405304880E+02 -0.20476528326E+02  0.42870589640E+02  0.00000000000E+00 0. -1.
</event>
<event>
 7    1  0.3662489E-015  0.9000775E+02  0.7816164E-02  0.1186339E+00
        -11   -1    0    0    0    0  0.00000000000E+00  0.00000000000E+00  0.45593999997E+02  0.45594000000E+02  0.51100000000E-03 0.  1.
         11   -1    0    0    0    0 -0.00000000000E+00 -0.00000000000E+00 -0.45593999997E+02  0.45594000000E+02  0.51100000000E-03 0. -1.
    9900012    2    1    2    0    0  0.31756296403E-02 -0.11774464224E+01 -0.81272031186E-01  0.90007747779E+02  0.90000009250E+02 0.  0.
        -12    1    1    2    0    0 -0.31756296403E-02  0.11774464224E+01  0.81272031186E-01  0.11802522211E+01  0.00000000000E+00 0.  1.
         11    1    3    3    0    0 -0.25061864431E+01 -0.97448257904E+01  0.18573316051E+01  0.10231924605E+02  0.51100000000E-03 0. -1.
        -11    1    3    3    0    0  0.30200405568E+02  0.12905007939E+02  0.24710833399E+02  0.41100231313E+02  0.51100000000E-03 0.  1.
         12    1    3    3    0    0 -0.27691043496E+02 -0.43376285713E+01 -0.26649437036E+02  0.38675591861E+02  0.00000000000E+00 0. -1.
</event>
<event>
 7    1  0.3662489E-015  0.9000775E+02  0.7816164E-02  0.1186339E+00
        -11   -1    0    0    0    0  0.00000000000E+00  0.00000000000E+00  0.45593999997E+02  0.45594000000E+02  0.51100000000E-03 0. -1.
         11   -1    0    0    0    0 -0.00000000000E+00 -0.00000000000E+00 -0.45593999997E+02  0.45594000000E+02  0.51100000000E-03 0.  1.
    9900012    2    1    2    0    0  0.68463283511E+00  0.92448220288E+00  0.26383248130E+00  0.90007747044E+02  0.90000008505E+02 0.  0.
        -12    1    1    2    0    0 -0.68463283511E+00 -0.92448220288E+00 -0.26383248130E+00  0.11802529562E+01  0.00000000000E+00 0.  1.
         11    1    3    3    0    0  0.40029801672E+01 -0.50833195503E+01  0.49506636046E+01  0.81469661995E+01  0.51100000000E-03 0. -1.
        -11    1    3    3    0    0 -0.15327258395E+01 -0.46323814605E+01 -0.42376914313E+02  0.42656899483E+02  0.51100000000E-03 0.  1.
         12    1    3    3    0    0 -0.17856214926E+01  0.10640183214E+02  0.37690083190E+02  0.39203881362E+02  0.00000000000E+00 0. -1.
</event>
<event>
 7    1  0.3662489E-015  0.9000775E+02  0.7816164E-02  0.1186339E+00
        -11   -1    0    0    0    0  0.00000000000E+00  0.00000000000E+00  0.45593999997E+02  0.45594000000E+02  0.51100000000E-03 0. -1.
         11   -1    0    0    0    0 -0.00000000000E+00 -0.00000000000E+00 -0.45593999997E+02  0.45594000000E+02  0.51100000000E-03 0.  1.
    9900012    2    1    2    0    0  0.11479590959E+01  0.19733456617E+00  0.19037217597E+00  0.90007748933E+02  0.90000010418E+02 0.  0.
        -12    1    1    2    0    0 -0.11479590959E+01 -0.19733456617E+00 -0.19037217597E+00  0.11802510675E+01  0.00000000000E+00 0.  1.
         11    1    3    3    0    0  0.29614905476E+02 -0.18898303187E+02  0.41293362054E+00  0.35133445662E+02  0.51100000000E-03 0. -1.
        -11    1    3    3    0    0  0.77763050178E+01 -0.62919621689E+01  0.31718921546E+01  0.10493836656E+02  0.51100000000E-03 0.  1.
        -12    1    3    3    0    0 -0.36243251398E+02  0.25387599922E+02 -0.33944535992E+01  0.44380466614E+02  0.00000000000E+00 0.  1.
</event>
<event>
 7    1  0.3662489E-015  0.9000776E+02  0.7816164E-02  0.1186339E+00
        -11   -1    0    0    0    0  0.00000000000E+00  0.00000000000E+00  0.45593999997E+02  0.45594000000E+02  0.51100000000E-03 0. -1.
         11   -1    0    0    0    0 -0.00000000000E+00 -0.00000000000E+00 -0.45593999997E+02  0.45594000000E+02  0.51100000000E-03 0.  1.
    9900012    2    1    2    0    0  0.87020545431E+00 -0.45388569789E+00  0.65551216444E+00  0.90007760212E+02  0.90000021847E+02 0.  0.
        -12    1    1    2    0    0 -0.87020545431E+00  0.45388569789E+00 -0.65551216444E+00  0.11802397880E+01  0.00000000000E+00 0.  1.
         11    1    3    3    0    0 -0.18866437821E+02  0.32669526244E+02  0.70604893742E+01  0.38380866738E+02  0.51100000000E-03 0. -1.
        -11    1    3    3    0    0 -0.36244752221E+01 -0.40315555413E+01 -0.12681864585E+02  0.13792024882E+02  0.51100000000E-03 0.  1.
        -12    1    3    3    0    0  0.23361118497E+02 -0.29091856401E+02  0.62768873758E+01  0.37834868592E+02  0.00000000000E+00 0.  1.
</event>
<event>
 7    1  0.3662489E-015  0.9000785E+02  0.7816164E-02  0.1186339E+00
        -11   -1    0    0    0    0  0.00000000000E+00  0.00000000000E+00  0.45593999997E+02  0.45594000000E+02  0.51100000000E-03 0. -1.
         11   -1    0    0    0    0 -0.00000000000E+00 -0.00000000000E+00 -0.45593999997E+02  0.45594000000E+02  0.51100000000E-03 0.  1.
    9900012    2    1    2    0    0 -0.31090168746E+00 -0.12903174934E+00  0.11311269937E+01  0.90007848600E+02  0.90000111401E+02 0.  0.
        -12    1    1    2    0    0  0.31090168746E+00  0.12903174934E+00 -0.11311269937E+01  0.11801514003E+01  0.00000000000E+00 0.  1.
         11    1    3    3    0    0  0.36608850580E+02 -0.21082421482E+01 -0.84306278761E+01  0.37626162605E+02  0.51100000000E-03 0. -1.
        -11    1    3    3    0    0  0.34210076869E+01  0.28993087705E+01 -0.73659432123E+01  0.86235958050E+01  0.51100000000E-03 0.  1.
        -12    1    3    3    0    0 -0.40340759954E+02 -0.92009837160E+00  0.16927698082E+02  0.43758090190E+02  0.00000000000E+00 0.  1.
</event>
<event>
 7    1  0.3662489E-015  0.9000774E+02  0.7816164E-02  0.1186339E+00
        -11   -1    0    0    0    0  0.00000000000E+00  0.00000000000E+00  0.45593999997E+02  0.45594000000E+02  0.51100000000E-03 0. -1.
         11   -1    0    0    0    0 -0.00000000000E+00 -0.00000000000E+00 -0.45593999997E+02  0.45594000000E+02  0.51100000000E-03 0.  1.
    9900012    2    1    2    0    0  0.10743910492E+01  0.38161558911E+00  0.30505493418E+00  0.90007743631E+02  0.90000005047E+02 0.  0.
        -12    1    1    2    0    0 -0.10743910492E+01 -0.38161558911E+00 -0.30505493418E+00  0.11802563693E+01  0.00000000000E+00 0.  1.
         11    1    3    3    0    0 -0.70723471178E+01  0.20146042164E+01 -0.38634539346E+01  0.83068044680E+01  0.51100000000E-03 0. -1.
        -11    1    3    3    0    0 -0.35406498602E+02  0.92481346517E+01 -0.22003897252E+00  0.36595034571E+02  0.51100000000E-03 0.  1.
         12    1    3    3    0    0  0.43553236769E+02 -0.10881123279E+02  0.43885478413E+01  0.45105904592E+02  0.00000000000E+00 0. -1.
</event>
<event>
 7    1  0.3662489E-015  0.9000699E+02  0.7816164E-02  0.1186341E+00
        -11   -1    0    0    0    0  0.00000000000E+00  0.00000000000E+00  0.45593999997E+02  0.45594000000E+02  0.51100000000E-03 0.  1.
         11   -1    0    0    0    0 -0.00000000000E+00 -0.00000000000E+00 -0.45593999997E+02  0.45594000000E+02  0.51100000000E-03 0. -1.
    9900012    2    1    2    0    0 -0.67123421945E+00  0.91125823617E+00  0.33740831507E+00  0.90006987163E+02  0.89999238590E+02 0.  0.
        -12    1    1    2    0    0  0.67123421945E+00 -0.91125823617E+00 -0.33740831507E+00  0.11810128371E+01  0.00000000000E+00 0.  1.
         11    1    3    3    0    0 -0.16609289930E+01  0.68659455506E+01 -0.12894544479E+02  0.14702692645E+02  0.51100000000E-03 0. -1.
        -11    1    3    3    0    0 -0.27946310890E+02 -0.13442828997E+01  0.30423158150E+02  0.41332456266E+02  0.51100000000E-03 0.  1.
         12    1    3    3    0    0  0.28936005664E+02 -0.46104044147E+01 -0.17191205356E+02  0.33971838252E+02  0.00000000000E+00 0. -1.
</event>
<event>
 7    1  0.3662489E-015  0.9000806E+02  0.7816164E-02  0.1186338E+00
        -11   -1    0    0    0    0  0.00000000000E+00  0.00000000000E+00  0.45593999997E+02  0.45594000000E+02  0.51100000000E-03 0. -1.
         11   -1    0    0    0    0 -0.00000000000E+00 -0.00000000000E+00 -0.45593999997E+02  0.45594000000E+02  0.51100000000E-03 0.  1.
    9900012    2    1    2    0    0  0.69134059533E+00 -0.76501007654E+00  0.57363291300E+00  0.90008064851E+02  0.90000330507E+02 0.  0.
        -12    1    1    2    0    0 -0.69134059533E+00  0.76501007654E+00 -0.57363291300E+00  0.11799351486E+01  0.00000000000E+00 0.  1.
         11    1    3    3    0    0 -0.43350406497E+01 -0.10226977170E+02 -0.44897299484E+01  0.11980872871E+02  0.51100000000E-03 0. -1.
        -11    1    3    3    0    0 -0.31024958878E+01  0.33780097090E+02 -0.22246890916E+02  0.40566545278E+02  0.51100000000E-03 0.  1.
         12    1    3    3    0    0  0.81288771329E+01 -0.24318129996E+02  0.27310253777E+02  0.37460646702E+02  0.00000000000E+00 0. -1.
</event>
<event>
 7    1  0.3662489E-015  0.9000769E+02  0.7816164E-02  0.1186339E+00
        -11   -1    0    0    0    0  0.00000000000E+00  0.00000000000E+00  0.45593999997E+02  0.45594000000E+02  0.51100000000E-03 0.  1.
         11   -1    0    0    0    0 -0.00000000000E+00 -0.00000000000E+00 -0.45593999997E+02  0.45594000000E+02  0.51100000000E-03 0. -1.
    9900012    2    1    2    0    0 -0.22412313449E+00 -0.56921083772E+00 -0.10093997585E+01  0.90007694942E+02  0.89999955715E+02 0.  0.
        -12    1    1    2    0    0  0.22412313449E+00  0.56921083772E+00  0.10093997585E+01  0.11803050578E+01  0.00000000000E+00 0.  1.
         11    1    3    3    0    0  0.30550395694E+01  0.86600202819E+01 -0.33414288506E+01  0.97721218309E+01  0.51100000000E-03 0. -1.
        -11    1    3    3    0    0 -0.29193102877E+01 -0.23568802694E+02  0.36291223334E+02  0.43371231529E+02  0.51100000000E-03 0.  1.
         12    1    3    3    0    0 -0.35985241620E+00  0.14339571575E+02 -0.33959194242E+02  0.36864341582E+02  0.00000000000E+00 0. -1.
</event>
<event>
 7    1  0.3662489E-015  0.9000775E+02  0.7816164E-02  0.1186339E+00
        -11   -1    0    0    0    0  0.00000000000E+00  0.00000000000E+00  0.45593999997E+02  0.45594000000E+02  0.51100000000E-03 0.  1.
         11   -1    0    0    0    0 -0.00000000000E+00 -0.00000000000E+00 -0.45593999997E+02  0.45594000000E+02  0.51100000000E-03 0. -1.
    9900012    2    1    2    0    0  0.86678960495E+00 -0.67725458251E+00 -0.42776737242E+00  0.90007753029E+02  0.90000014568E+02 0.  0.
        -12    1    1    2    0    0 -0.86678960495E+00  0.67725458251E+00  0.42776737242E+00  0.11802469715E+01  0.00000000000E+00 0.  1.
         11    1    3    3    0    0  0.21927418127E+01 -0.75136569161E+01 -0.41862111483E+01  0.88762334888E+01  0.51100000000E-03 0. -1.
        -11    1    3    3    0    0 -0.28370342956E+02 -0.71512144444E+01 -0.25569583906E+02  0.38856400359E+02  0.51100000000E-03 0.  1.
         12    1    3    3    0    0  0.27044390748E+02  0.13987616778E+02  0.29328027681E+02  0.42275119181E+02  0.00000000000E+00 0. -1.
</event>
<event>
 7    1  0.3662489E-015  0.9000766E+02  0.7816164E-02  0.1186339E+00
        -11   -1    0    0    0    0  0.00000000000E+00  0.00000000000E+00  0.45593999997E+02  0.45594000000E+02  0.51100000000E-03 0.  1.
         11   -1    0    0    0    0 -0.00000000000E+00 -0.00000000000E+00 -0.45593999997E+02  0.45594000000E+02  0.51100000000E-03 0. -1.
    9900012    2    1    2    0    0  0.29342029370E+00 -0.10595096373E+00 -0.11383722244E+01  0.90007655814E+02  0.89999916071E+02 0.  0.
        -12    1    1    2    0    0 -0.29342029370E+00  0.10595096373E+00  0.11383722244E+01  0.11803441857E+01  0.00000000000E+00 0.  1.
         11    1    3    3    0    0 -0.66356021940E+01 -0.71994843202E+01  0.39295550480E+01  0.10550127681E+02  0.51100000000E-03 0. -1.
        -11    1    3    3    0    0  0.24370701800E+01 -0.21808838779E+01  0.36492417196E+02  0.36638669170E+02  0.51100000000E-03 0.  1.
         12    1    3    3    0    0  0.44919523077E+01  0.92744172343E+01 -0.41560344468E+02  0.42818858963E+02  0.00000000000E+00 0. -1.
</event>
<event>
 7    1  0.3662489E-015  0.9000781E+02  0.7816164E-02  0.1186339E+00
        -11   -1    0    0    0    0  0.00000000000E+00  0.00000000000E+00  0.45593999997E+02  0.45594000000E+02  0.51100000000E-03 0. -1.
         11   -1    0    0    0    0 -0.00000000000E+00 -0.00000000000E+00 -0.45593999997E+02  0.45594000000E+02  0.51100000000E-03 0.  1.
    9900012    2    1    2    0    0  0.68701618665E+00  0.95647734996E+00  0.77476397958E-01  0.90007812407E+02  0.90000074731E+02 0.  0.
        -12    1    1    2    0    0 -0.68701618665E+00 -0.95647734996E+00 -0.77476397958E-01  0.11801875927E+01  0.00000000000E+00 0.  1.
         11    1    3    3    0    0 -0.23162582213E+02  0.29906290390E+02 -0.29030891099E+01  0.37938362462E+02  0.51100000000E-03 0. -1.
        -11    1    3    3    0    0  0.67177153934E+01  0.80751304285E+01 -0.27866046673E+01  0.10867409874E+02  0.51100000000E-03 0.  1.
        -12    1    3    3    0    0  0.17131883006E+02 -0.37024943468E+02  0.57671701752E+01  0.41202040071E+02  0.00000000000E+00 0.  1.
</event>
<event>
 7    1  0.3662489E-015  0.9000780E+02  0.7816164E-02  0.1186339E+00
        -11   -1    0    0    0    0  0.00000000000E+00  0.00000000000E+00  0.45593999997E+02  0.45594000000E+02  0.51100000000E-03 0.  1.
         11   -1    0    0    0    0 -0.00000000000E+00 -0.00000000000E+00 -0.45593999997E+02  0.45594000000E+02  0.51100000000E-03 0. -1.
    9900012    2    1    2    0    0  0.10233932464E+01  0.10707383927E+00  0.57799564422E+00  0.90007797683E+02  0.90000059813E+02 0.  0.
        -12    1    1    2    0    0 -0.10233932464E+01 -0.10707383927E+00 -0.57799564422E+00  0.11802023168E+01  0.00000000000E+00 0.  1.
         11    1    3    3    0    0  0.43243125655E-01 -0.97137465924E+01  0.23758197696E+01  0.10000163132E+02  0.51100000000E-03 0. -1.
        -11    1    3    3    0    0 -0.28277036681E+02  0.28553991314E+02  0.13014544034E+02  0.42240970397E+02  0.51100000000E-03 0.  1.
         12    1    3    3    0    0  0.29257186801E+02 -0.18733170883E+02 -0.14812368159E+02  0.37766664154E+02  0.00000000000E+00 0. -1.
</event>
<event>
 7    1  0.3662489E-015  0.9000777E+02  0.7816164E-02  0.1186339E+00
        -11   -1    0    0    0    0  0.00000000000E+00  0.00000000000E+00  0.45593999997E+02  0.45594000000E+02  0.51100000000E-03 0.  1.
         11   -1    0    0    0    0 -0.00000000000E+00 -0.00000000000E+00 -0.45593999997E+02  0.45594000000E+02  0.51100000000E-03 0. -1.
    9900012    2    1    2    0    0  0.10427500968E+01 -0.36107108405E+00  0.41863023550E+00  0.90007766393E+02  0.90000028110E+02 0.  0.
        -12    1    1    2    0    0 -0.10427500968E+01  0.36107108405E+00 -0.41863023550E+00  0.11802336066E+01  0.00000000000E+00 0.  1.
         11    1    3    3    0    0  0.55479757576E+01  0.44814171172E+01 -0.63722819099E+01  0.95639485248E+01  0.51100000000E-03 0. -1.
        -11    1    3    3    0    0 -0.15315926379E+02 -0.32492517555E+02  0.26648359291E+02  0.44726684999E+02  0.51100000000E-03 0.  1.
         12    1    3    3    0    0  0.10810700718E+02  0.27650029354E+02 -0.19857447145E+02  0.35717132869E+02  0.00000000000E+00 0. -1.
</event>
<event>
 7    1  0.3662489E-015  0.9000747E+02  0.7816164E-02  0.1186340E+00
        -11   -1    0    0    0    0  0.00000000000E+00  0.00000000000E+00  0.45593999997E+02  0.45594000000E+02  0.51100000000E-03 0. -1.
         11   -1    0    0    0    0 -0.00000000000E+00 -0.00000000000E+00 -0.45593999997E+02  0.45594000000E+02  0.51100000000E-03 0.  1.
    9900012    2    1    2    0    0  0.41552341417E+00  0.10951640396E+01  0.14701310654E+00  0.90007467563E+02  0.89999725334E+02 0.  0.
        -12    1    1    2    0    0 -0.41552341417E+00 -0.10951640396E+01 -0.14701310654E+00  0.11805324370E+01  0.00000000000E+00 0.  1.
         11    1    3    3    0    0 -0.14670640911E+02 -0.51529475401E+00 -0.10673483516E+02  0.18149834271E+02  0.51100000000E-03 0. -1.
        -11    1    3    3    0    0 -0.88836079778E+00  0.27821892417E+02 -0.15112380068E+02  0.31673820644E+02  0.51100000000E-03 0.  1.
         12    1    3    3    0    0  0.15974525123E+02 -0.26211433624E+02  0.25932876691E+02  0.40183812649E+02  0.00000000000E+00 0. -1.
</event>
<event>
 7    1  0.3662489E-015  0.9000769E+02  0.7816164E-02  0.1186339E+00
        -11   -1    0    0    0    0  0.00000000000E+00  0.00000000000E+00  0.45593999997E+02  0.45594000000E+02  0.51100000000E-03 0. -1.
         11   -1    0    0    0    0 -0.00000000000E+00 -0.00000000000E+00 -0.45593999997E+02  0.45594000000E+02  0.51100000000E-03 0.  1.
    9900012    2    1    2    0    0  0.28260404839E+00  0.11234227066E+01 -0.22624316525E+00  0.90007690890E+02  0.89999951609E+02 0.  0.
        -12    1    1    2    0    0 -0.28260404839E+00 -0.11234227066E+01  0.22624316525E+00  0.11803091102E+01  0.00000000000E+00 0.  1.
         11    1    3    3    0    0  0.81012719653E+01  0.34543987462E+02  0.10392451215E+02  0.36971890941E+02  0.51100000000E-03 0. -1.
        -11    1    3    3    0    0 -0.30569450502E+01  0.69332750754E+01  0.54567948962E+01  0.93376564036E+01  0.51100000000E-03 0.  1.
        -12    1    3    3    0    0 -0.47617228667E+01 -0.40353839831E+02 -0.16075489277E+02  0.43698143545E+02  0.00000000000E+00 0.  1.
</event>
<event>
 7    1  0.3662489E-015  0.9000773E+02  0.7816164E-02  0.1186339E+00
        -11   -1    0    0    0    0  0.00000000000E+00  0.00000000000E+00  0.45593999997E+02  0.45594000000E+02  0.51100000000E-03 0.  1.
         11   -1    0    0    0    0 -0.00000000000E+00 -0.00000000000E+00 -0.45593999997E+02  0.45594000000E+02  0.51100000000E-03 0. -1.
    9900012    2    1    2    0    0  0.51315462356E-01  0.11382243649E+01 -0.30799488362E+00  0.90007725104E+02  0.89999986275E+02 0.  0.
        -12    1    1    2    0    0 -0.51315462356E-01 -0.11382243649E+01  0.30799488362E+00  0.11802748959E+01  0.00000000000E+00 0.  1.
         11    1    3    3    0    0  0.26309401126E+01  0.83026048370E+00 -0.97343999382E+01  0.10117792287E+02  0.51100000000E-03 0. -1.
        -11    1    3    3    0    0  0.28228922182E+02  0.50735788716E+01 -0.21601336659E+02  0.35905862973E+02  0.51100000000E-03 0.  1.
         12    1    3    3    0    0 -0.30808546833E+02 -0.47656149904E+01  0.31027741714E+02  0.43984069844E+02  0.00000000000E+00 0. -1.
</event>
<event>
 7    1  0.3662489E-015  0.9000746E+02  0.7816164E-02  0.1186340E+00
        -11   -1    0    0    0    0  0.00000000000E+00  0.00000000000E+00  0.45593999997E+02  0.45594000000E+02  0.51100000000E-03 0. -1.
         11   -1    0    0    0    0 -0.00000000000E+00 -0.00000000000E+00 -0.45593999997E+02  0.45594000000E+02  0.51100000000E-03 0.  1.
    9900012    2    1    2    0    0 -0.21772920355E+00 -0.81505074893E+00  0.82580940199E+00  0.90007459913E+02  0.89999717583E+02 0.  0.
        -12    1    1    2    0    0  0.21772920355E+00  0.81505074893E+00 -0.82580940199E+00  0.11805400873E+01  0.00000000000E+00 0.  1.
         11    1    3    3    0    0 -0.57843572652E+00  0.97494486663E+01 -0.27938474865E+01  0.10158342445E+02  0.51100000000E-03 0. -1.
        -11    1    3    3    0    0  0.48409618497E+01  0.33613110689E+02 -0.58136516837E+01  0.34453949962E+02  0.51100000000E-03 0.  1.
         12    1    3    3    0    0 -0.44802553267E+01 -0.44177610104E+02  0.94333085722E+01  0.45395167506E+02  0.00000000000E+00 0. -1.
</event>
<event>
 7    1  0.3662489E-015  0.9000775E+02  0.7816164E-02  0.1186339E+00
        -11   -1    0    0    0    0  0.00000000000E+00  0.00000000000E+00  0.45593999997E+02  0.45594000000E+02  0.51100000000E-03 0. -1.
         11   -1    0    0    0    0 -0.00000000000E+00 -0.00000000000E+00 -0.45593999997E+02  0.45594000000E+02  0.51100000000E-03 0.  1.
    9900012    2    1    2    0    0 -0.10067919128E+01  0.49801880029E+00  0.36240563572E+00  0.90007749804E+02  0.90000011301E+02 0.  0.
        -12    1    1    2    0    0  0.10067919128E+01 -0.49801880029E+00 -0.36240563572E+00  0.11802501963E+01  0.00000000000E+00 0.  1.
         11    1    3    3    0    0 -0.15203107631E+02  0.10945063590E+01  0.33828048652E+02  0.37103494467E+02  0.51100000000E-03 0. -1.
        -11    1    3    3    0    0 -0.64058413418E+01 -0.11464734127E+02 -0.13096073210E+01  0.13198106057E+02  0.51100000000E-03 0.  1.
        -12    1    3    3    0    0  0.20602157060E+02  0.10868246568E+02 -0.32156035695E+02  0.39706149280E+02  0.00000000000E+00 0.  1.
</event>
<event>
 7    1  0.3662489E-015  0.9000765E+02  0.7816164E-02  0.1186339E+00
        -11   -1    0    0    0    0  0.00000000000E+00  0.00000000000E+00  0.45593999997E+02  0.45594000000E+02  0.51100000000E-03 0.  1.
         11   -1    0    0    0    0 -0.00000000000E+00 -0.00000000000E+00 -0.45593999997E+02  0.45594000000E+02  0.51100000000E-03 0. -1.
    9900012    2    1    2    0    0  0.51144224553E+00  0.10021639442E+01  0.35681559538E+00  0.90007651276E+02  0.89999911473E+02 0.  0.
        -12    1    1    2    0    0 -0.51144224553E+00 -0.10021639442E+01 -0.35681559538E+00  0.11803487242E+01  0.00000000000E+00 0.  1.
         11    1    3    3    0    0  0.26111179214E+00 -0.91065649047E+01  0.48720140129E+01  0.10331225703E+02  0.51100000000E-03 0. -1.
        -11    1    3    3    0    0 -0.16409928052E+01  0.14832031064E+02  0.35933573744E+02  0.38908915754E+02  0.51100000000E-03 0.  1.
         12    1    3    3    0    0  0.18913232586E+01 -0.47233022147E+01 -0.40448772161E+02  0.40767509819E+02  0.00000000000E+00 0. -1.
</event>
<event>
 7    1  0.4468892E-015  0.9000773E+02  0.7816164E-02  0.1186339E+00
        -11   -1    0    0    0    0  0.00000000000E+00  0.00000000000E+00  0.45593999997E+02  0.45594000000E+02  0.51100000000E-03 0. -1.
         11   -1    0    0    0    0 -0.00000000000E+00 -0.00000000000E+00 -0.45593999997E+02  0.45594000000E+02  0.51100000000E-03 0.  1.
    9900012    2    1    2    0    0  0.44119627180E+00  0.28666061620E+00  0.10565083972E+01  0.90007729500E+02  0.89999990730E+02 0.  0.
        -12    1    1    2    0    0 -0.44119627180E+00 -0.28666061620E+00 -0.10565083972E+01  0.11802704997E+01  0.00000000000E+00 0.  1.
         11    1    3    3    0    0 -0.22450404157E+02  0.24211771753E+01  0.29883377040E+02  0.37455292941E+02  0.51100000000E-03 0. -1.
        -11    1    3    3    0    0 -0.31997561639E+01 -0.73371052689E+01  0.50597961480E+01  0.94695876656E+01  0.51100000000E-03 0.  1.
        -12    1    3    3    0    0  0.26091356593E+02  0.52025887098E+01 -0.33886664791E+02  0.43082848894E+02  0.00000000000E+00 0.  1.
</event>
<event>
 7    1  0.3662489E-015  0.9000769E+02  0.7816164E-02  0.1186339E+00
        -11   -1    0    0    0    0  0.00000000000E+00  0.00000000000E+00  0.45593999997E+02  0.45594000000E+02  0.51100000000E-03 0. -1.
         11   -1    0    0    0    0 -0.00000000000E+00 -0.00000000000E+00 -0.45593999997E+02  0.45594000000E+02  0.51100000000E-03 0.  1.
    9900012    2    1    2    0    0  0.96291756443E+00  0.66081775450E+00  0.17101268042E+00  0.90007688313E+02  0.89999948999E+02 0.  0.
        -12    1    1    2    0    0 -0.96291756443E+00 -0.66081775450E+00 -0.17101268042E+00  0.11803116866E+01  0.00000000000E+00 0.  1.
         11    1    3    3    0    0  0.71188635067E+01 -0.12440654211E+02  0.33607488516E+02  0.36536439063E+02  0.51100000000E-03 0. -1.
        -11    1    3    3    0    0  0.15087221359E+01  0.73407085377E+01  0.79871186733E+01  0.10952456769E+02  0.51100000000E-03 0.  1.
        -12    1    3    3    0    0 -0.76646680782E+01  0.57607634280E+01 -0.41423594509E+02  0.42518792481E+02  0.00000000000E+00 0.  1.
</event>
<event>
 7    1  0.3662489E-015  0.9000776E+02  0.7816164E-02  0.1186339E+00
        -11   -1    0    0    0    0  0.00000000000E+00  0.00000000000E+00  0.45593999997E+02  0.45594000000E+02  0.51100000000E-03 0.  1.
         11   -1    0    0    0    0 -0.00000000000E+00 -0.00000000000E+00 -0.45593999997E+02  0.45594000000E+02  0.51100000000E-03 0. -1.
    9900012    2    1    2    0    0 -0.48031462971E+00 -0.61445478769E+00 -0.88584486557E+00  0.90007755129E+02  0.90000016697E+02 0.  0.
        -12    1    1    2    0    0  0.48031462971E+00  0.61445478769E+00  0.88584486557E+00  0.11802448710E+01  0.00000000000E+00 0.  1.
         11    1    3    3    0    0  0.33770281370E+01 -0.20251364105E+02  0.45285184197E+01  0.21024498722E+02  0.51100000000E-03 0. -1.
        -11    1    3    3    0    0 -0.20456371928E+01 -0.18636335299E+02  0.16385746814E+02  0.24899604893E+02  0.51100000000E-03 0.  1.
         12    1    3    3    0    0 -0.18117055739E+01  0.38273244616E+02 -0.21800110099E+02  0.44083651515E+02  0.00000000000E+00 0. -1.
</event>
<event>
 7    1  0.3662489E-015  0.9000769E+02  0.7816164E-02  0.1186339E+00
        -11   -1    0    0    0    0  0.00000000000E+00  0.00000000000E+00  0.45593999997E+02  0.45594000000E+02  0.51100000000E-03 0.  1.
         11   -1    0    0    0    0 -0.00000000000E+00 -0.00000000000E+00 -0.45593999997E+02  0.45594000000E+02  0.51100000000E-03 0. -1.
    9900012    2    1    2    0    0  0.39944429394E+00 -0.10167626880E+01 -0.44694357796E+00  0.90007694671E+02  0.89999955441E+02 0.  0.
        -12    1    1    2    0    0 -0.39944429394E+00  0.10167626880E+01  0.44694357796E+00  0.11803053290E+01  0.00000000000E+00 0.  1.
         11    1    3    3    0    0 -0.55899914636E+01 -0.35668203857E-01  0.57844385343E+01  0.80441908357E+01  0.51100000000E-03 0. -1.
        -11    1    3    3    0    0  0.29116894107E+02 -0.22807920750E+02  0.18802656458E+02  0.41491380569E+02  0.51100000000E-03 0.  1.
         12    1    3    3    0    0 -0.23127458350E+02  0.21826826265E+02 -0.25034038571E+02  0.40472123266E+02  0.00000000000E+00 0. -1.
</event>
<event>
 7    1  0.3662489E-015  0.9000773E+02  0.7816164E-02  0.1186339E+00
        -11   -1    0    0    0    0  0.00000000000E+00  0.00000000000E+00  0.45593999997E+02  0.45594000000E+02  0.51100000000E-03 0.  1.
         11   -1    0    0    0    0 -0.00000000000E+00 -0.00000000000E+00 -0.45593999997E+02  0.45594000000E+02  0.51100000000E-03 0. -1.
    9900012    2    1    2    0    0  0.10935471224E+01  0.87905763636E-01  0.43528641389E+00  0.90007725882E+02  0.89999987063E+02 0.  0.
        -12    1    1    2    0    0 -0.10935471224E+01 -0.87905763636E-01 -0.43528641389E+00  0.11802741183E+01  0.00000000000E+00 0.  1.
         11    1    3    3    0    0  0.72258179728E+01  0.10272432775E+02  0.10230470642E+02  0.16198699031E+02  0.51100000000E-03 0. -1.
        -11    1    3    3    0    0 -0.12282415709E+02  0.38494847836E-01  0.29918759106E+02  0.32341789749E+02  0.51100000000E-03 0.  1.
         12    1    3    3    0    0  0.61501448587E+01 -0.10223021859E+02 -0.39713943334E+02  0.41467237101E+02  0.00000000000E+00 0. -1.
</event>
<event>
 7    1  0.3662489E-015  0.9000767E+02  0.7816164E-02  0.1186339E+00
        -11   -1    0    0    0    0  0.00000000000E+00  0.00000000000E+00  0.45593999997E+02  0.45594000000E+02  0.51100000000E-03 0. -1.
         11   -1    0    0    0    0 -0.00000000000E+00 -0.00000000000E+00 -0.45593999997E+02  0.45594000000E+02  0.51100000000E-03 0.  1.
    9900012    2    1    2    0    0  0.54604883475E+00  0.34814986312E+00  0.98681855739E+00  0.90007665928E+02  0.89999926318E+02 0.  0.
        -12    1    1    2    0    0 -0.54604883475E+00 -0.34814986312E+00 -0.98681855739E+00  0.11803340723E+01  0.00000000000E+00 0.  1.
         11    1    3    3    0    0 -0.13463108811E+02 -0.43882583002E+01 -0.33469151740E+01  0.14550393507E+02  0.51100000000E-03 0. -1.
        -11    1    3    3    0    0  0.87303754286E+01  0.36476424217E+02 -0.11991160611E+02  0.39376857567E+02  0.51100000000E-03 0.  1.
         12    1    3    3    0    0  0.52787822167E+01 -0.31740016053E+02  0.16324894343E+02  0.36080414854E+02  0.00000000000E+00 0. -1.
</event>
<event>
 7    1  0.3662489E-015  0.9000767E+02  0.7816164E-02  0.1186339E+00
        -11   -1    0    0    0    0  0.00000000000E+00  0.00000000000E+00  0.45593999997E+02  0.45594000000E+02  0.51100000000E-03 0. -1.
         11   -1    0    0    0    0 -0.00000000000E+00 -0.00000000000E+00 -0.45593999997E+02  0.45594000000E+02  0.51100000000E-03 0.  1.
    9900012    2    1    2    0    0  0.69219952693E+00 -0.51660242951E-01  0.95465937559E+00  0.90007668060E+02  0.89999928478E+02 0.  0.
        -12    1    1    2    0    0 -0.69219952693E+00  0.51660242951E-01 -0.95465937559E+00  0.11803319403E+01  0.00000000000E+00 0.  1.
         11    1    3    3    0    0  0.13074334435E+02  0.58675532207E+01  0.32024698530E+02  0.35084864513E+02  0.51100000000E-03 0. -1.
        -11    1    3    3    0    0  0.66842751891E+01  0.35172350868E+01  0.76455631418E+01  0.10747330528E+02  0.51100000000E-03 0.  1.
        -12    1    3    3    0    0 -0.19066410097E+02 -0.94364485504E+01 -0.38715602296E+02  0.44175473018E+02  0.00000000000E+00 0.  1.
</event>
<event>
 7    1  0.3662489E-015  0.9000780E+02  0.7816164E-02  0.1186339E+00
        -11   -1    0    0    0    0  0.00000000000E+00  0.00000000000E+00  0.45593999997E+02  0.45594000000E+02  0.51100000000E-03 0. -1.
         11   -1    0    0    0    0 -0.00000000000E+00 -0.00000000000E+00 -0.45593999997E+02  0.45594000000E+02  0.51100000000E-03 0.  1.
    9900012    2    1    2    0    0 -0.52228209328E+00 -0.10519071818E+01  0.11657535346E+00  0.90007797849E+02  0.90000059981E+02 0.  0.
        -12    1    1    2    0    0  0.52228209328E+00  0.10519071818E+01 -0.11657535346E+00  0.11802021510E+01  0.00000000000E+00 0.  1.
         11    1    3    3    0    0  0.88403369380E+01 -0.63519220952E+01  0.50930898291E+01  0.12018237631E+02  0.51100000000E-03 0. -1.
        -11    1    3    3    0    0  0.23433403437E+02  0.26910154508E+02 -0.12861575902E+02  0.37930211537E+02  0.51100000000E-03 0.  1.
         12    1    3    3    0    0 -0.32796022469E+02 -0.21610139595E+02  0.78850614267E+01  0.40059348681E+02  0.00000000000E+00 0. -1.
</event>
<event>
 7    1  0.3662489E-015  0.9000765E+02  0.7816164E-02  0.1186339E+00
        -11   -1    0    0    0    0  0.00000000000E+00  0.00000000000E+00  0.45593999997E+02  0.45594000000E+02  0.51100000000E-03 0.  1.
         11   -1    0    0    0    0 -0.00000000000E+00 -0.00000000000E+00 -0.45593999997E+02  0.45594000000E+02  0.51100000000E-03 0. -1.
    9900012    2    1    2    0    0 -0.10232432648E+01  0.35750742213E+00 -0.46731663826E+00  0.90007651248E+02  0.89999911445E+02 0.  0.
        -12    1    1    2    0    0  0.10232432648E+01 -0.35750742213E+00  0.46731663826E+00  0.11803487519E+01  0.00000000000E+00 0.  1.
         11    1    3    3    0    0  0.82152627224E+00 -0.27913988325E+01  0.85140639461E+01  0.89975606693E+01  0.51100000000E-03 0. -1.
        -11    1    3    3    0    0  0.32320067899E+02  0.23746832220E+02  0.53182243408E-01  0.40106129932E+02  0.51100000000E-03 0.  1.
         12    1    3    3    0    0 -0.34164837436E+02 -0.20597925965E+02 -0.90345628278E+01  0.40903960647E+02  0.00000000000E+00 0. -1.
</event>
<event>
 7    1  0.3662489E-015  0.9000776E+02  0.7816164E-02  0.1186339E+00
        -11   -1    0    0    0    0  0.00000000000E+00  0.00000000000E+00  0.45593999997E+02  0.45594000000E+02  0.51100000000E-03 0.  1.
         11   -1    0    0    0    0 -0.00000000000E+00 -0.00000000000E+00 -0.45593999997E+02  0.45594000000E+02  0.51100000000E-03 0. -1.
    9900012    2    1    2    0    0 -0.69557498672E+00 -0.94529344571E+00 -0.12471796668E+00  0.90007763231E+02  0.90000024905E+02 0.  0.
        -12    1    1    2    0    0  0.69557498672E+00  0.94529344571E+00  0.12471796668E+00  0.11802367694E+01  0.00000000000E+00 0.  1.
         11    1    3    3    0    0 -0.75767495813E+01 -0.45723999186E+00  0.60458260276E+01  0.97040308761E+01  0.51100000000E-03 0. -1.
        -11    1    3    3    0    0 -0.34168735449E+01 -0.37983668321E+02 -0.14025273954E+02  0.40634251484E+02  0.51100000000E-03 0.  1.
         12    1    3    3    0    0  0.10298048139E+02  0.37495614867E+02  0.78547299599E+01  0.39669480870E+02  0.00000000000E+00 0. -1.
</event>
<event>
 7    1  0.3662489E-015  0.9000762E+02  0.7816164E-02  0.1186339E+00
        -11   -1    0    0    0    0  0.00000000000E+00  0.00000000000E+00  0.45593999997E+02  0.45594000000E+02  0.51100000000E-03 0.  1.
         11   -1    0    0    0    0 -0.00000000000E+00 -0.00000000000E+00 -0.45593999997E+02  0.45594000000E+02  0.51100000000E-03 0. -1.
    9900012    2    1    2    0    0 -0.11343448596E+01  0.22653487254E+00  0.23505313529E+00  0.90007616043E+02  0.89999875775E+02 0.  0.
        -12    1    1    2    0    0  0.11343448596E+01 -0.22653487254E+00 -0.23505313529E+00  0.11803839567E+01  0.00000000000E+00 0.  1.
         11    1    3    3    0    0  0.75581708759E+00 -0.96604308282E+01  0.22086273972E+01  0.99384716378E+01  0.51100000000E-03 0. -1.
        -11    1    3    3    0    0  0.14575844961E+02 -0.30104515500E+02  0.10501213937E+02  0.35057276052E+02  0.51100000000E-03 0.  1.
         12    1    3    3    0    0 -0.16466006908E+02  0.39991481200E+02 -0.12474788198E+02  0.45011868353E+02  0.00000000000E+00 0. -1.
</event>
<event>
 7    1  0.3662489E-015  0.9000784E+02  0.7816164E-02  0.1186339E+00
        -11   -1    0    0    0    0  0.00000000000E+00  0.00000000000E+00  0.45593999997E+02  0.45594000000E+02  0.51100000000E-03 0.  1.
         11   -1    0    0    0    0 -0.00000000000E+00 -0.00000000000E+00 -0.45593999997E+02  0.45594000000E+02  0.51100000000E-03 0. -1.
    9900012    2    1    2    0    0  0.66765870579E+00  0.90195516035E+00  0.36534626769E+00  0.90007843589E+02  0.90000106324E+02 0.  0.
        -12    1    1    2    0    0 -0.66765870579E+00 -0.90195516035E+00 -0.36534626769E+00  0.11801564108E+01  0.00000000000E+00 0.  1.
         11    1    3    3    0    0 -0.30686900851E+02 -0.12325328364E+02  0.19874164324E+02  0.38582146272E+02  0.51100000000E-03 0. -1.
        -11    1    3    3    0    0 -0.17539093341E+01  0.90554662577E+01  0.45518894590E+01  0.10285784608E+02  0.51100000000E-03 0.  1.
        -12    1    3    3    0    0  0.33108468891E+02  0.41718172666E+01 -0.24060707515E+02  0.41139912709E+02  0.00000000000E+00 0.  1.
</event>
<event>
 7    1  0.3662489E-015  0.9000764E+02  0.7816164E-02  0.1186339E+00
        -11   -1    0    0    0    0  0.00000000000E+00  0.00000000000E+00  0.45593999997E+02  0.45594000000E+02  0.51100000000E-03 0.  1.
         11   -1    0    0    0    0 -0.00000000000E+00 -0.00000000000E+00 -0.45593999997E+02  0.45594000000E+02  0.51100000000E-03 0. -1.
    9900012    2    1    2    0    0 -0.20946608190E+00  0.11268121927E+01  0.28225548367E+00  0.90007639921E+02  0.89999899968E+02 0.  0.
        -12    1    1    2    0    0  0.20946608190E+00 -0.11268121927E+01 -0.28225548367E+00  0.11803600786E+01  0.00000000000E+00 0.  1.
         11    1    3    3    0    0  0.72009499427E+01 -0.57520948752E+01 -0.30435253553E+00  0.92213288770E+01  0.51100000000E-03 0. -1.
        -11    1    3    3    0    0  0.20778918802E+02 -0.17617766390E+02  0.24335280890E+02  0.36528824993E+02  0.51100000000E-03 0.  1.
         12    1    3    3    0    0 -0.28189334827E+02  0.24496673458E+02 -0.23748672871E+02  0.44257486051E+02  0.00000000000E+00 0. -1.
</event>
<event>
 7    1  0.3662489E-015  0.9000775E+02  0.7816164E-02  0.1186339E+00
        -11   -1    0    0    0    0  0.00000000000E+00  0.00000000000E+00  0.45593999997E+02  0.45594000000E+02  0.51100000000E-03 0.  1.
         11   -1    0    0    0    0 -0.00000000000E+00 -0.00000000000E+00 -0.45593999997E+02  0.45594000000E+02  0.51100000000E-03 0. -1.
    9900012    2    1    2    0    0  0.53763039009E+00 -0.95389675185E+00 -0.44047319644E+00  0.90007753379E+02  0.90000014924E+02 0.  0.
        -12    1    1    2    0    0 -0.53763039009E+00  0.95389675185E+00  0.44047319644E+00  0.11802466210E+01  0.00000000000E+00 0.  1.
         11    1    3    3    0    0 -0.14806876084E+01  0.69461040815E+01 -0.10711400724E+02  0.12852038882E+02  0.51100000000E-03 0. -1.
        -11    1    3    3    0    0 -0.25666311938E+02 -0.17431606941E+02  0.28942152485E+02  0.42429573174E+02  0.51100000000E-03 0.  1.
         12    1    3    3    0    0  0.27684629937E+02  0.95316061079E+01 -0.18671224957E+02  0.34726141322E+02  0.00000000000E+00 0. -1.
</event>
<event>
 7    1  0.3662489E-015  0.9000770E+02  0.7816164E-02  0.1186339E+00
        -11   -1    0    0    0    0  0.00000000000E+00  0.00000000000E+00  0.45593999997E+02  0.45594000000E+02  0.51100000000E-03 0.  1.
         11   -1    0    0    0    0 -0.00000000000E+00 -0.00000000000E+00 -0.45593999997E+02  0.45594000000E+02  0.51100000000E-03 0. -1.
    9900012    2    1    2    0    0  0.94036395498E+00  0.54797858952E-01 -0.71121267023E+00  0.90007698922E+02  0.89999959747E+02 0.  0.
        -12    1    1    2    0    0 -0.94036395498E+00 -0.54797858952E-01  0.71121267023E+00  0.11803010783E+01  0.00000000000E+00 0.  1.
         11    1    3    3    0    0 -0.32346661493E+01  0.41988439915E+02  0.12488634328E+02  0.43925597768E+02  0.51100000000E-03 0. -1.
        -11    1    3    3    0    0  0.42762708529E+01 -0.75010909726E+01 -0.69562001091E+01  0.11087902345E+02  0.51100000000E-03 0.  1.
        -12    1    3    3    0    0 -0.10124074862E+00 -0.34432551084E+02 -0.62436468891E+01  0.34994198809E+02  0.00000000000E+00 0.  1.
</event>
<event>
 7    1  0.3662489E-015  0.9000775E+02  0.7816164E-02  0.1186339E+00
        -11   -1    0    0    0    0  0.00000000000E+00  0.00000000000E+00  0.45593999997E+02  0.45594000000E+02  0.51100000000E-03 0. -1.
         11   -1    0    0    0    0 -0.00000000000E+00 -0.00000000000E+00 -0.45593999997E+02  0.45594000000E+02  0.51100000000E-03 0.  1.
    9900012    2    1    2    0    0 -0.25446342365E+00  0.11357052239E+01  0.19601545841E+00  0.90007745769E+02  0.90000007213E+02 0.  0.
        -12    1    1    2    0    0  0.25446342365E+00 -0.11357052239E+01 -0.19601545841E+00  0.11802542308E+01  0.00000000000E+00 0.  1.
         11    1    3    3    0    0  0.32500372097E+02 -0.18156773025E+02 -0.13246092708E+02  0.39514574088E+02  0.51100000000E-03 0. -1.
        -11    1    3    3    0    0  0.36471238088E+01  0.10111630114E+02  0.42171128150E+00  0.10757528355E+02  0.51100000000E-03 0.  1.
        -12    1    3    3    0    0 -0.36401959329E+02  0.91808481342E+01  0.13020396885E+02  0.39735643326E+02  0.00000000000E+00 0.  1.
</event>
<event>
 7    1  0.3662489E-015  0.9000789E+02  0.7816164E-02  0.1186339E+00
        -11   -1    0    0    0    0  0.00000000000E+00  0.00000000000E+00  0.45593999997E+02  0.45594000000E+02  0.51100000000E-03 0.  1.
         11   -1    0    0    0    0 -0.00000000000E+00 -0.00000000000E+00 -0.45593999997E+02  0.45594000000E+02  0.51100000000E-03 0. -1.
    9900012    2    1    2    0    0  0.51200597087E+00  0.49708708774E-01 -0.10620905309E+01  0.90007890952E+02  0.90000154312E+02 0.  0.
        -12    1    1    2    0    0 -0.51200597087E+00 -0.49708708774E-01  0.10620905309E+01  0.11801090483E+01  0.00000000000E+00 0.  1.
         11    1    3    3    0    0 -0.38891451517E+01 -0.16673709570E+02 -0.85183895169E+01  0.19123310410E+02  0.51100000000E-03 0. -1.
        -11    1    3    3    0    0  0.26511531318E+02 -0.15176142309E+02  0.95760763958E+01  0.32013713118E+02  0.51100000000E-03 0.  1.
         12    1    3    3    0    0 -0.22110380195E+02  0.31899560587E+02 -0.21197774098E+01  0.38870867424E+02  0.00000000000E+00 0. -1.
</event>
<event>
 7    1  0.3662489E-015  0.9000765E+02  0.7816164E-02  0.1186339E+00
        -11   -1    0    0    0    0  0.00000000000E+00  0.00000000000E+00  0.45593999997E+02  0.45594000000E+02  0.51100000000E-03 0.  1.
         11   -1    0    0    0    0 -0.00000000000E+00 -0.00000000000E+00 -0.45593999997E+02  0.45594000000E+02  0.51100000000E-03 0. -1.
    9900012    2    1    2    0    0  0.17129924487E+00  0.22146957691E+00 -0.11466653536E+01  0.90007646816E+02  0.89999906954E+02 0.  0.
        -12    1    1    2    0    0 -0.17129924487E+00 -0.22146957691E+00  0.11466653536E+01  0.11803531836E+01  0.00000000000E+00 0.  1.
         11    1    3    3    0    0  0.52359754283E+01 -0.38342641654E+00  0.54725106064E+01  0.75835893283E+01  0.51100000000E-03 0. -1.
        -11    1    3    3    0    0  0.23357719982E+02  0.16032036918E+02  0.24566074112E+02  0.37498017122E+02  0.51100000000E-03 0.  1.
         12    1    3    3    0    0 -0.28422396166E+02 -0.15427140925E+02 -0.31185250072E+02  0.44926040366E+02  0.00000000000E+00 0. -1.
</event>
<event>
 7    1  0.3662489E-015  0.9000791E+02  0.7816164E-02  0.1186339E+00
        -11   -1    0    0    0    0  0.00000000000E+00  0.00000000000E+00  0.45593999997E+02  0.45594000000E+02  0.51100000000E-03 0. -1.
         11   -1    0    0    0    0 -0.00000000000E+00 -0.00000000000E+00 -0.45593999997E+02  0.45594000000E+02  0.51100000000E-03 0.  1.
    9900012    2    1    2    0    0  0.19805857456E+00  0.11098581637E+01  0.34870643927E+00  0.90007911646E+02  0.90000175280E+02 0.  0.
        -12    1    1    2    0    0 -0.19805857456E+00 -0.11098581637E+01 -0.34870643927E+00  0.11800883540E+01  0.00000000000E+00 0.  1.
         11    1    3    3    0    0  0.59092320046E+01  0.25716897840E+02  0.24729379663E+02  0.36163795102E+02  0.51100000000E-03 0. -1.
        -11    1    3    3    0    0 -0.19247804716E+01  0.68861181551E+01  0.64355390916E+01  0.96197487893E+01  0.51100000000E-03 0.  1.
        -12    1    3    3    0    0 -0.37863929584E+01 -0.31493157831E+02 -0.30816212316E+02  0.44224367755E+02  0.00000000000E+00 0.  1.
</event>
<event>
 7    1  0.3662489E-015  0.9000778E+02  0.7816164E-02  0.1186339E+00
        -11   -1    0    0    0    0  0.00000000000E+00  0.00000000000E+00  0.45593999997E+02  0.45594000000E+02  0.51100000000E-03 0.  1.
         11   -1    0    0    0    0 -0.00000000000E+00 -0.00000000000E+00 -0.45593999997E+02  0.45594000000E+02  0.51100000000E-03 0. -1.
    9900012    2    1    2    0    0 -0.19782006498E+00 -0.32513553885E+00 -0.11171758412E+01  0.90007776395E+02  0.90000038244E+02 0.  0.
        -12    1    1    2    0    0  0.19782006498E+00  0.32513553885E+00  0.11171758412E+01  0.11802236046E+01  0.00000000000E+00 0.  1.
         11    1    3    3    0    0  0.97887526762E+01  0.36600831856E+01 -0.36602349136E+02  0.38065047622E+02  0.51100000000E-03 0. -1.
        -11    1    3    3    0    0 -0.92182331126E+01  0.11499895137E+01 -0.53892983416E+01  0.10739778139E+02  0.51100000000E-03 0.  1.
        -12    1    3    3    0    0 -0.76833962850E+00 -0.51352082381E+01  0.40874471637E+02  0.41202950635E+02  0.00000000000E+00 0.  1.
</event>
<event>
 7    1  0.3662489E-015  0.9000768E+02  0.7816164E-02  0.1186339E+00
        -11   -1    0    0    0    0  0.00000000000E+00  0.00000000000E+00  0.45593999997E+02  0.45594000000E+02  0.51100000000E-03 0.  1.
         11   -1    0    0    0    0 -0.00000000000E+00 -0.00000000000E+00 -0.45593999997E+02  0.45594000000E+02  0.51100000000E-03 0. -1.
    9900012    2    1    2    0    0 -0.47921308907E+00 -0.40024483406E+00 -0.10016531136E+01  0.90007682216E+02  0.89999942821E+02 0.  0.
        -12    1    1    2    0    0  0.47921308907E+00  0.40024483406E+00  0.10016531136E+01  0.11803177843E+01  0.00000000000E+00 0.  1.
         11    1    3    3    0    0 -0.78462181720E+00  0.31770826746E+02 -0.23597461059E+02  0.39583345389E+02  0.51100000000E-03 0. -1.
        -11    1    3    3    0    0 -0.56585899670E+01 -0.73405258586E+01 -0.67926315312E+01  0.11490987933E+02  0.51100000000E-03 0.  1.
        -12    1    3    3    0    0  0.59639986952E+01 -0.24830545721E+02  0.29388439476E+02  0.38933348894E+02  0.00000000000E+00 0.  1.
</event>
<event>
 7    1  0.3662489E-015  0.9000772E+02  0.7816164E-02  0.1186339E+00
        -11   -1    0    0    0    0  0.00000000000E+00  0.00000000000E+00  0.45593999997E+02  0.45594000000E+02  0.51100000000E-03 0. -1.
         11   -1    0    0    0    0 -0.00000000000E+00 -0.00000000000E+00 -0.45593999997E+02  0.45594000000E+02  0.51100000000E-03 0.  1.
    9900012    2    1    2    0    0  0.52256813012E+00  0.10111785055E+00  0.10534516622E+01  0.90007719239E+02  0.89999980333E+02 0.  0.
        -12    1    1    2    0    0 -0.52256813012E+00 -0.10111785055E+00 -0.10534516622E+01  0.11802807610E+01  0.00000000000E+00 0.  1.
         11    1    3    3    0    0 -0.86766771413E+01  0.47577430080E+01 -0.23115504165E+01  0.10161895017E+02  0.51100000000E-03 0. -1.
        -11    1    3    3    0    0 -0.22901860063E+02  0.26402332769E+02 -0.10053465043E+01  0.34965541492E+02  0.51100000000E-03 0.  1.
         12    1    3    3    0    0  0.32101105335E+02 -0.31058957926E+02  0.43703485830E+01  0.44880282730E+02  0.00000000000E+00 0. -1.
</event>
<event>
 7    1  0.3662489E-015  0.9000777E+02  0.7816164E-02  0.1186339E+00
        -11   -1    0    0    0    0  0.00000000000E+00  0.00000000000E+00  0.45593999997E+02  0.45594000000E+02  0.51100000000E-03 0.  1.
         11   -1    0    0    0    0 -0.00000000000E+00 -0.00000000000E+00 -0.45593999997E+02  0.45594000000E+02  0.51100000000E-03 0. -1.
    9900012    2    1    2    0    0 -0.17673256372E+00  0.10888826081E+01  0.41957304938E+00  0.90007770668E+02  0.90000032440E+02 0.  0.
        -12    1    1    2    0    0  0.17673256372E+00 -0.10888826081E+01 -0.41957304938E+00  0.11802293324E+01  0.00000000000E+00 0.  1.
         11    1    3    3    0    0  0.93889033066E+01  0.38908776299E+00  0.21273804472E+01  0.96347621879E+01  0.51100000000E-03 0. -1.
        -11    1    3    3    0    0 -0.20222766690E+02  0.32173468985E+02  0.17667940341E+02  0.41907618821E+02  0.51100000000E-03 0.  1.
         12    1    3    3    0    0  0.10657130820E+02 -0.31473674139E+02 -0.19375747738E+02  0.38465389658E+02  0.00000000000E+00 0. -1.
</event>
<event>
 7    1  0.3662489E-015  0.9000825E+02  0.7816164E-02  0.1186338E+00
        -11   -1    0    0    0    0  0.00000000000E+00  0.00000000000E+00  0.45593999997E+02  0.45594000000E+02  0.51100000000E-03 0. -1.
         11   -1    0    0    0    0 -0.00000000000E+00 -0.00000000000E+00 -0.45593999997E+02  0.45594000000E+02  0.51100000000E-03 0.  1.
    9900012    2    1    2    0    0  0.11371613429E+01 -0.28933196888E+00 -0.12228097025E+00  0.90008253610E+02  0.90000521757E+02 0.  0.
        -12    1    1    2    0    0 -0.11371613429E+01  0.28933196888E+00  0.12228097025E+00  0.11797463895E+01  0.00000000000E+00 0.  1.
         11    1    3    3    0    0 -0.26877400710E+01 -0.12204723657E+01 -0.87377289988E+01  0.92228741617E+01  0.51100000000E-03 0. -1.
        -11    1    3    3    0    0 -0.17617312805E+02  0.10713562161E+02 -0.29488138616E+02  0.35981946083E+02  0.51100000000E-03 0.  1.
         12    1    3    3    0    0  0.21442214219E+02 -0.97824217645E+01  0.38103586644E+02  0.44803433366E+02  0.00000000000E+00 0. -1.
</event>
<event>
 7    1  0.3662489E-015  0.9000730E+02  0.7816164E-02  0.1186340E+00
        -11   -1    0    0    0    0  0.00000000000E+00  0.00000000000E+00  0.45593999997E+02  0.45594000000E+02  0.51100000000E-03 0.  1.
         11   -1    0    0    0    0 -0.00000000000E+00 -0.00000000000E+00 -0.45593999997E+02  0.45594000000E+02  0.51100000000E-03 0. -1.
    9900012    2    1    2    0    0  0.69680724435E+00  0.87805085948E+00  0.37084904913E+00  0.90007304161E+02  0.89999559775E+02 0.  0.
        -12    1    1    2    0    0 -0.69680724435E+00 -0.87805085948E+00 -0.37084904913E+00  0.11806958393E+01  0.00000000000E+00 0.  1.
         11    1    3    3    0    0  0.87773172936E+01  0.23839661170E+01 -0.77645010511E+00  0.91283880476E+01  0.51100000000E-03 0. -1.
        -11    1    3    3    0    0  0.33192464510E+02 -0.14994171922E+02 -0.58775678615E+01  0.36893233745E+02  0.51100000000E-03 0.  1.
         12    1    3    3    0    0 -0.41272974560E+02  0.13488256665E+02  0.70248670158E+01  0.43985682369E+02  0.00000000000E+00 0. -1.
</event>
<event>
 7    1  0.3662489E-015  0.9000776E+02  0.7816164E-02  0.1186339E+00
        -11   -1    0    0    0    0  0.00000000000E+00  0.00000000000E+00  0.45593999997E+02  0.45594000000E+02  0.51100000000E-03 0.  1.
         11   -1    0    0    0    0 -0.00000000000E+00 -0.00000000000E+00 -0.45593999997E+02  0.45594000000E+02  0.51100000000E-03 0. -1.
    9900012    2    1    2    0    0 -0.55944049775E+00 -0.80224949327E+00 -0.66060238092E+00  0.90007757048E+02  0.90000018641E+02 0.  0.
        -12    1    1    2    0    0  0.55944049775E+00  0.80224949327E+00  0.66060238092E+00  0.11802429520E+01  0.00000000000E+00 0.  1.
         11    1    3    3    0    0  0.72308056354E+01 -0.38755286621E+01 -0.33148974450E+01  0.88483228851E+01  0.51100000000E-03 0. -1.
        -11    1    3    3    0    0 -0.94534992977E+01 -0.18893619978E+02  0.35676936910E+02  0.41463011859E+02  0.51100000000E-03 0.  1.
         12    1    3    3    0    0  0.16632531646E+01  0.21966899147E+02 -0.33022641846E+02  0.39696422304E+02  0.00000000000E+00 0. -1.
</event>
<event>
 7    1  0.3662489E-015  0.9000835E+02  0.7816164E-02  0.1186338E+00
        -11   -1    0    0    0    0  0.00000000000E+00  0.00000000000E+00  0.45593999997E+02  0.45594000000E+02  0.51100000000E-03 0.  1.
         11   -1    0    0    0    0 -0.00000000000E+00 -0.00000000000E+00 -0.45593999997E+02  0.45594000000E+02  0.51100000000E-03 0. -1.
    9900012    2    1    2    0    0  0.11629609105E+01 -0.19538542668E+00  0.30511340598E-01  0.90008345607E+02  0.90000614967E+02 0.  0.
        -12    1    1    2    0    0 -0.11629609105E+01  0.19538542668E+00 -0.30511340598E-01  0.11796543927E+01  0.00000000000E+00 0.  1.
         11    1    3    3    0    0 -0.26221590519E+02 -0.27535982960E+02 -0.19931085544E+02  0.42930762143E+02  0.51100000000E-03 0. -1.
        -11    1    3    3    0    0  0.77901302230E+01  0.13975266976E+02 -0.11890518144E+00  0.16000261080E+02  0.51100000000E-03 0.  1.
        -12    1    3    3    0    0  0.19594421207E+02  0.13365330558E+02  0.20080502066E+02  0.31077322384E+02  0.00000000000E+00 0.  1.
</event>
<event>
 7    1  0.3662489E-015  0.9000774E+02  0.7816164E-02  0.1186339E+00
        -11   -1    0    0    0    0  0.00000000000E+00  0.00000000000E+00  0.45593999997E+02  0.45594000000E+02  0.51100000000E-03 0. -1.
         11   -1    0    0    0    0 -0.00000000000E+00 -0.00000000000E+00 -0.45593999997E+02  0.45594000000E+02  0.51100000000E-03 0.  1.
    9900012    2    1    2    0    0 -0.88807912377E+00 -0.60434085735E-01  0.77503329331E+00  0.90007740107E+02  0.90000001477E+02 0.  0.
        -12    1    1    2    0    0  0.88807912377E+00  0.60434085735E-01 -0.77503329331E+00  0.11802598928E+01  0.00000000000E+00 0.  1.
         11    1    3    3    0    0  0.32954003441E+01 -0.19956468320E+01 -0.79312944439E+01  0.88174657087E+01  0.51100000000E-03 0. -1.
        -11    1    3    3    0    0  0.38099048259E+02  0.60309473191E+00  0.55079365282E+00  0.38107802028E+02  0.51100000000E-03 0.  1.
         12    1    3    3    0    0 -0.42282527727E+02  0.13321180144E+01  0.81555340844E+01  0.43082472371E+02  0.00000000000E+00 0. -1.
</event>
<event>
 7    1  0.3662489E-015  0.9000761E+02  0.7816164E-02  0.1186339E+00
        -11   -1    0    0    0    0  0.00000000000E+00  0.00000000000E+00  0.45593999997E+02  0.45594000000E+02  0.51100000000E-03 0. -1.
         11   -1    0    0    0    0 -0.00000000000E+00 -0.00000000000E+00 -0.45593999997E+02  0.45594000000E+02  0.51100000000E-03 0.  1.
    9900012    2    1    2    0    0 -0.77969736021E+00 -0.73513660216E+00  0.49493011000E+00  0.90007614634E+02  0.89999874348E+02 0.  0.
        -12    1    1    2    0    0  0.77969736021E+00  0.73513660216E+00 -0.49493011000E+00  0.11803853655E+01  0.00000000000E+00 0.  1.
         11    1    3    3    0    0 -0.16681955787E+02  0.31984971666E+01 -0.15638307457E+02  0.23088410369E+02  0.51100000000E-03 0. -1.
        -11    1    3    3    0    0 -0.94387229479E+01  0.23994065157E+02  0.13530754861E+02  0.29118481778E+02  0.51100000000E-03 0.  1.
         12    1    3    3    0    0  0.25340981375E+02 -0.27927698926E+02  0.26024827053E+01  0.37800722488E+02  0.00000000000E+00 0. -1.
</event>
<event>
 7    1  0.3662489E-015  0.9000768E+02  0.7816164E-02  0.1186339E+00
        -11   -1    0    0    0    0  0.00000000000E+00  0.00000000000E+00  0.45593999997E+02  0.45594000000E+02  0.51100000000E-03 0. -1.
         11   -1    0    0    0    0 -0.00000000000E+00 -0.00000000000E+00 -0.45593999997E+02  0.45594000000E+02  0.51100000000E-03 0.  1.
    9900012    2    1    2    0    0  0.59110513355E+00  0.10152484771E+01  0.11410988760E+00  0.90007679783E+02  0.89999940356E+02 0.  0.
        -12    1    1    2    0    0 -0.59110513355E+00 -0.10152484771E+01 -0.11410988760E+00  0.11803202174E+01  0.00000000000E+00 0.  1.
         11    1    3    3    0    0  0.26903225703E+01  0.33089657178E+02 -0.10179922514E+02  0.34724545646E+02  0.51100000000E-03 0. -1.
        -11    1    3    3    0    0 -0.16940896544E+01  0.10286809222E+02 -0.30597714709E+01  0.10865108625E+02  0.51100000000E-03 0.  1.
        -12    1    3    3    0    0 -0.40512778229E+00 -0.42361217923E+02  0.13353803873E+02  0.44418025511E+02  0.00000000000E+00 0.  1.
</event>
<event>
 7    1  0.3662489E-015  0.9000775E+02  0.7816164E-02  0.1186339E+00
        -11   -1    0    0    0    0  0.00000000000E+00  0.00000000000E+00  0.45593999997E+02  0.45594000000E+02  0.51100000000E-03 0. -1.
         11   -1    0    0    0    0 -0.00000000000E+00 -0.00000000000E+00 -0.45593999997E+02  0.45594000000E+02  0.51100000000E-03 0.  1.
    9900012    2    1    2    0    0  0.22421026431E+00  0.55614845465E+00  0.10165723906E+01  0.90007749700E+02  0.90000011196E+02 0.  0.
        -12    1    1    2    0    0 -0.22421026431E+00 -0.55614845465E+00 -0.10165723906E+01  0.11802503004E+01  0.00000000000E+00 0.  1.
         11    1    3    3    0    0  0.36780342289E+02 -0.35340800142E+01 -0.12941543005E+02  0.39150566229E+02  0.51100000000E-03 0. -1.
        -11    1    3    3    0    0  0.26267846113E+00  0.36731145382E+00  0.13843088980E+02  0.13850452356E+02  0.51100000000E-03 0.  1.
        -12    1    3    3    0    0 -0.36818810486E+02  0.37229170151E+01  0.11502641538E+00  0.37006731115E+02  0.00000000000E+00 0.  1.
</event>
<event>
 7    1  0.3662489E-015  0.9000772E+02  0.7816164E-02  0.1186339E+00
        -11   -1    0    0    0    0  0.00000000000E+00  0.00000000000E+00  0.45593999997E+02  0.45594000000E+02  0.51100000000E-03 0.  1.
         11   -1    0    0    0    0 -0.00000000000E+00 -0.00000000000E+00 -0.45593999997E+02  0.45594000000E+02  0.51100000000E-03 0. -1.
    9900012    2    1    2    0    0  0.23337301309E+00  0.10920627473E+01 -0.38210405244E+00  0.90007717189E+02  0.89999978256E+02 0.  0.
        -12    1    1    2    0    0 -0.23337301309E+00 -0.10920627473E+01  0.38210405244E+00  0.11802828111E+01  0.00000000000E+00 0.  1.
         11    1    3    3    0    0 -0.86065544170E+01  0.31333788185E+02 -0.22560276315E+02  0.39558123421E+02  0.51100000000E-03 0. -1.
        -11    1    3    3    0    0 -0.51344620678E+01  0.51396033851E+01  0.32258232504E+01  0.79488464312E+01  0.51100000000E-03 0.  1.
        -12    1    3    3    0    0  0.13974389498E+02 -0.35381328823E+02  0.18952349012E+02  0.42500747337E+02  0.00000000000E+00 0.  1.
</event>
<event>
 7    1  0.3662489E-015  0.9000763E+02  0.7816164E-02  0.1186339E+00
        -11   -1    0    0    0    0  0.00000000000E+00  0.00000000000E+00  0.45593999997E+02  0.45594000000E+02  0.51100000000E-03 0.  1.
         11   -1    0    0    0    0 -0.00000000000E+00 -0.00000000000E+00 -0.45593999997E+02  0.45594000000E+02  0.51100000000E-03 0. -1.
    9900012    2    1    2    0    0 -0.25871284316E+00 -0.11350668006E+01 -0.19486018506E+00  0.90007627403E+02  0.89999887284E+02 0.  0.
        -12    1    1    2    0    0  0.25871284316E+00  0.11350668006E+01  0.19486018506E+00  0.11803725974E+01  0.00000000000E+00 0.  1.
         11    1    3    3    0    0  0.65879451508E+01  0.39271566572E+01 -0.39140481209E+01  0.86106534986E+01  0.51100000000E-03 0. -1.
        -11    1    3    3    0    0 -0.23978114421E+02 -0.37272051183E+02 -0.24959827756E+01  0.44389026807E+02  0.51100000000E-03 0.  1.
         12    1    3    3    0    0  0.17131456427E+02  0.32209827725E+02  0.62151707114E+01  0.37007947097E+02  0.00000000000E+00 0. -1.
</event>
<event>
 7    1  0.3662489E-015  0.9000776E+02  0.7816164E-02  0.1186339E+00
        -11   -1    0    0    0    0  0.00000000000E+00  0.00000000000E+00  0.45593999997E+02  0.45594000000E+02  0.51100000000E-03 0.  1.
         11   -1    0    0    0    0 -0.00000000000E+00 -0.00000000000E+00 -0.45593999997E+02  0.45594000000E+02  0.51100000000E-03 0. -1.
    9900012    2    1    2    0    0 -0.26057276563E-01 -0.41272729535E-01 -0.11792295869E+01  0.90007760686E+02  0.90000022327E+02 0.  0.
        -12    1    1    2    0    0  0.26057276563E-01  0.41272729535E-01  0.11792295869E+01  0.11802393140E+01  0.00000000000E+00 0.  1.
         11    1    3    3    0    0 -0.70486274492E+01  0.24385717083E+02 -0.23644633563E+02  0.34690273034E+02  0.51100000000E-03 0. -1.
        -11    1    3    3    0    0 -0.47242012580E+01  0.79624807312E+01 -0.56514467519E+01  0.10847028513E+02  0.51100000000E-03 0.  1.
        -12    1    3    3    0    0  0.11746771431E+02 -0.32389470544E+02  0.28116850728E+02  0.44470459139E+02  0.00000000000E+00 0.  1.
</event>
<event>
 7    1  0.3662489E-015  0.9000767E+02  0.7816164E-02  0.1186339E+00
        -11   -1    0    0    0    0  0.00000000000E+00  0.00000000000E+00  0.45593999997E+02  0.45594000000E+02  0.51100000000E-03 0.  1.
         11   -1    0    0    0    0 -0.00000000000E+00 -0.00000000000E+00 -0.45593999997E+02  0.45594000000E+02  0.51100000000E-03 0. -1.
    9900012    2    1    2    0    0 -0.78486144650E+00 -0.85279664160E+00  0.22341241613E+00  0.90007668390E+02  0.89999928813E+02 0.  0.
        -12    1    1    2    0    0  0.78486144650E+00  0.85279664160E+00 -0.22341241613E+00  0.11803316101E+01  0.00000000000E+00 0.  1.
         11    1    3    3    0    0  0.13194300640E+01 -0.18605200666E+02 -0.10947968366E+02  0.21627584218E+02  0.51100000000E-03 0. -1.
        -11    1    3    3    0    0  0.15207905759E+02 -0.18968069022E+02  0.13328886864E+02  0.27725931279E+02  0.51100000000E-03 0.  1.
         12    1    3    3    0    0 -0.17312197269E+02  0.36720473046E+02 -0.21575060817E+01  0.40654152893E+02  0.00000000000E+00 0. -1.
</event>
<event>
 7    1  0.3662489E-015  0.9000734E+02  0.7816164E-02  0.1186340E+00
        -11   -1    0    0    0    0  0.00000000000E+00  0.00000000000E+00  0.45593999997E+02  0.45594000000E+02  0.51100000000E-03 0. -1.
         11   -1    0    0    0    0 -0.00000000000E+00 -0.00000000000E+00 -0.45593999997E+02  0.45594000000E+02  0.51100000000E-03 0.  1.
    9900012    2    1    2    0    0  0.85142360601E+00  0.80973250731E+00 -0.11561696684E+00  0.90007340789E+02  0.89999596886E+02 0.  0.
        -12    1    1    2    0    0 -0.85142360601E+00 -0.80973250731E+00  0.11561696684E+00  0.11806592113E+01  0.00000000000E+00 0.  1.
         11    1    3    3    0    0 -0.16182782889E+02 -0.16852585490E+02  0.73982321297E+01  0.24507671016E+02  0.51100000000E-03 0. -1.
        -11    1    3    3    0    0 -0.52437394487E+01  0.21279333751E+02  0.20167734838E+02  0.29783290232E+02  0.51100000000E-03 0.  1.
         12    1    3    3    0    0  0.22277945943E+02 -0.36170157533E+01 -0.27681583934E+02  0.35716379541E+02  0.00000000000E+00 0. -1.
</event>
<event>
 7    1  0.3662489E-015  0.9000805E+02  0.7816164E-02  0.1186338E+00
        -11   -1    0    0    0    0  0.00000000000E+00  0.00000000000E+00  0.45593999997E+02  0.45594000000E+02  0.51100000000E-03 0. -1.
         11   -1    0    0    0    0 -0.00000000000E+00 -0.00000000000E+00 -0.45593999997E+02  0.45594000000E+02  0.51100000000E-03 0.  1.
    9900012    2    1    2    0    0  0.30790212360E-01 -0.35855316114E+00  0.11237332393E+01  0.90008048815E+02  0.90000314258E+02 0.  0.
        -12    1    1    2    0    0 -0.30790212360E-01  0.35855316114E+00 -0.11237332393E+01  0.11799511853E+01  0.00000000000E+00 0.  1.
         11    1    3    3    0    0  0.17620676088E+02  0.33024396334E+02  0.10788078135E+02  0.38954866308E+02  0.51100000000E-03 0. -1.
        -11    1    3    3    0    0 -0.27260254624E+00  0.51162179022E+01  0.41949231344E+01  0.66217352813E+01  0.51100000000E-03 0.  1.
        -12    1    3    3    0    0 -0.17317283329E+02 -0.38499167397E+02 -0.13859268030E+02  0.44431447225E+02  0.00000000000E+00 0.  1.
</event>
<event>
 7    1  0.3662489E-015  0.9000783E+02  0.7816164E-02  0.1186339E+00
        -11   -1    0    0    0    0  0.00000000000E+00  0.00000000000E+00  0.45593999997E+02  0.45594000000E+02  0.51100000000E-03 0.  1.
         11   -1    0    0    0    0 -0.00000000000E+00 -0.00000000000E+00 -0.45593999997E+02  0.45594000000E+02  0.51100000000E-03 0. -1.
    9900012    2    1    2    0    0  0.19593971419E+00  0.46486036652E+00 -0.10669124937E+01  0.90007834842E+02  0.90000097461E+02 0.  0.
        -12    1    1    2    0    0 -0.19593971419E+00 -0.46486036652E+00  0.10669124937E+01  0.11801651584E+01  0.00000000000E+00 0.  1.
         11    1    3    3    0    0  0.47742842860E+01  0.31086339527E+01  0.62607685557E+01  0.84649051185E+01  0.51100000000E-03 0. -1.
        -11    1    3    3    0    0 -0.72584307828E+01  0.35055857828E+02  0.13653843925E+02  0.38314820105E+02  0.51100000000E-03 0.  1.
         12    1    3    3    0    0  0.26800862110E+01 -0.37699631414E+02 -0.20981524975E+02  0.43228109618E+02  0.00000000000E+00 0. -1.
</event>
<event>
 8    1  0.3662489E-015  0.9000773E+02  0.7816164E-02  0.1186339E+00
        -11   -1    0    0    0    0  0.00000000000E+00  0.00000000000E+00  0.45593999997E+02  0.45594000000E+02  0.51100000000E-03 0.  1.
         11   -1    0    0    0    0 -0.00000000000E+00 -0.00000000000E+00 -0.45593999997E+02  0.45594000000E+02  0.51100000000E-03 0. -1.
    9900012    2    1    2    0    0 -0.83054049313E+00 -0.31799147335E-01 -0.83799769528E+00  0.90007725102E+02  0.89999986274E+02 0.  0.
         23    2    3    3    0    0 -0.16657059538E+02  0.15811426871E+02  0.14184492898E+02  0.63041788453E+02  0.56970241358E+02 0.  0.
        -12    1    1    2    0    0  0.83054049313E+00  0.31799147335E-01  0.83799769528E+00  0.11802748976E+01  0.00000000000E+00 0.  1.
         11    1    4    4    0    0  0.12644490929E+02 -0.65687157810E+01  0.21166576661E+02  0.25515782286E+02  0.51100000000E-03 0. -1.
        -11    1    4    4    0    0 -0.29301550467E+02  0.22380142652E+02 -0.69820837625E+01  0.37526006167E+02  0.51100000000E-03 0.  1.
         12    1    3    3    0    0  0.15826519045E+02 -0.15843226019E+02 -0.15022490594E+02  0.26965936650E+02  0.00000000000E+00 0. -1.
</event>
<event>
 7    1  0.7184772E-015  0.9000775E+02  0.7816164E-02  0.1186339E+00
        -11   -1    0    0    0    0  0.00000000000E+00  0.00000000000E+00  0.45593999997E+02  0.45594000000E+02  0.51100000000E-03 0. -1.
         11   -1    0    0    0    0 -0.00000000000E+00 -0.00000000000E+00 -0.45593999997E+02  0.45594000000E+02  0.51100000000E-03 0.  1.
    9900012    2    1    2    0    0  0.16205083363E+00 -0.67809588060E+00  0.95232704695E+00  0.90007745239E+02  0.90000006676E+02 0.  0.
        -12    1    1    2    0    0 -0.16205083363E+00  0.67809588060E+00 -0.95232704695E+00  0.11802547608E+01  0.00000000000E+00 0.  1.
         11    1    3    3    0    0 -0.55944753986E+01 -0.20339689603E+02  0.31209276727E+02  0.37669882960E+02  0.51100000000E-03 0. -1.
        -11    1    3    3    0    0 -0.35912850723E+01 -0.89052432960E+01  0.12121064687E+00  0.96028838852E+01  0.51100000000E-03 0.  1.
        -12    1    3    3    0    0  0.93478113045E+01  0.28566837019E+02 -0.30378160327E+02  0.42734978394E+02  0.00000000000E+00 0.  1.
</event>
<event>
 7    1  0.3662489E-015  0.9000774E+02  0.7816164E-02  0.1186339E+00
        -11   -1    0    0    0    0  0.00000000000E+00  0.00000000000E+00  0.45593999997E+02  0.45594000000E+02  0.51100000000E-03 0.  1.
         11   -1    0    0    0    0 -0.00000000000E+00 -0.00000000000E+00 -0.45593999997E+02  0.45594000000E+02  0.51100000000E-03 0. -1.
    9900012    2    1    2    0    0 -0.76130082023E-01  0.11746738819E+01  0.85738272136E-01  0.90007743431E+02  0.90000004844E+02 0.  0.
        -12    1    1    2    0    0  0.76130082023E-01 -0.11746738819E+01 -0.85738272136E-01  0.11802565694E+01  0.00000000000E+00 0.  1.
         11    1    3    3    0    0 -0.39098313843E+01  0.31583215968E+02 -0.21239143912E+02  0.38260783404E+02  0.51100000000E-03 0. -1.
        -11    1    3    3    0    0 -0.80201825266E+01  0.15677924428E+01 -0.41636494653E+01  0.91715471996E+01  0.51100000000E-03 0.  1.
        -12    1    3    3    0    0  0.11853883829E+02 -0.31976334529E+02  0.25488531649E+02  0.42575412827E+02  0.00000000000E+00 0.  1.
</event>
<event>
 7    1  0.3662489E-015  0.9000776E+02  0.7816164E-02  0.1186339E+00
        -11   -1    0    0    0    0  0.00000000000E+00  0.00000000000E+00  0.45593999997E+02  0.45594000000E+02  0.51100000000E-03 0.  1.
         11   -1    0    0    0    0 -0.00000000000E+00 -0.00000000000E+00 -0.45593999997E+02  0.45594000000E+02  0.51100000000E-03 0. -1.
    9900012    2    1    2    0    0  0.21047390356E+00  0.81621671399E+00 -0.82611589631E+00  0.90007755762E+02  0.90000017338E+02 0.  0.
        -12    1    1    2    0    0 -0.21047390356E+00 -0.81621671399E+00  0.82611589631E+00  0.11802442385E+01  0.00000000000E+00 0.  1.
         11    1    3    3    0    0  0.16539106484E+02  0.93848259746E+01 -0.12948513619E+02  0.23006108038E+02  0.51100000000E-03 0. -1.
        -11    1    3    3    0    0  0.21169205229E+01  0.22330188335E+02  0.20126751738E+02  0.30136436408E+02  0.51100000000E-03 0.  1.
        -12    1    3    3    0    0 -0.18445553103E+02 -0.30898797596E+02 -0.80043540148E+01  0.36865211315E+02  0.00000000000E+00 0.  1.
</event>
<event>
 7    1  0.5985380E-015  0.9000778E+02  0.7816164E-02  0.1186339E+00
        -11   -1    0    0    0    0  0.00000000000E+00  0.00000000000E+00  0.45593999997E+02  0.45594000000E+02  0.51100000000E-03 0. -1.
         11   -1    0    0    0    0 -0.00000000000E+00 -0.00000000000E+00 -0.45593999997E+02  0.45594000000E+02  0.51100000000E-03 0.  1.
    9900012    2    1    2    0    0  0.99188562762E+00  0.22210891603E-01  0.63921411454E+00  0.90007777518E+02  0.90000039382E+02 0.  0.
        -12    1    1    2    0    0 -0.99188562762E+00 -0.22210891603E-01 -0.63921411454E+00  0.11802224817E+01  0.00000000000E+00 0.  1.
         11    1    3    3    0    0 -0.25287143887E+01  0.81381781471E+01 -0.44909417529E+01  0.96329070432E+01  0.51100000000E-03 0. -1.
        -11    1    3    3    0    0  0.24030494352E+02 -0.62372920649E+01 -0.30434967757E+02  0.39276656346E+02  0.51100000000E-03 0.  1.
         12    1    3    3    0    0 -0.20509894336E+02 -0.18786751906E+01  0.35565123625E+02  0.41098214129E+02  0.00000000000E+00 0. -1.
</event>
<event>
 7    1  0.3662489E-015  0.9000727E+02  0.7816164E-02  0.1186340E+00
        -11   -1    0    0    0    0  0.00000000000E+00  0.00000000000E+00  0.45593999997E+02  0.45594000000E+02  0.51100000000E-03 0. -1.
         11   -1    0    0    0    0 -0.00000000000E+00 -0.00000000000E+00 -0.45593999997E+02  0.45594000000E+02  0.51100000000E-03 0.  1.
    9900012    2    1    2    0    0  0.11970805324E+00 -0.42159444298E+00  0.10963793855E+01  0.90007271560E+02  0.89999526743E+02 0.  0.
        -12    1    1    2    0    0 -0.11970805324E+00  0.42159444298E+00 -0.10963793855E+01  0.11807284402E+01  0.00000000000E+00 0.  1.
         11    1    3    3    0    0 -0.35294873417E+01  0.54234864659E+01 -0.79416678218E+01  0.10244099492E+02  0.51100000000E-03 0. -1.
        -11    1    3    3    0    0 -0.24403369387E+02 -0.31149592628E+02  0.13296697538E+02  0.41744744867E+02  0.51100000000E-03 0.  1.
         12    1    3    3    0    0  0.28052564782E+02  0.25304511719E+02 -0.42586503302E+01  0.38018427201E+02  0.00000000000E+00 0. -1.
</event>
<event>
 7    1  0.3662489E-015  0.9000736E+02  0.7816164E-02  0.1186340E+00
        -11   -1    0    0    0    0  0.00000000000E+00  0.00000000000E+00  0.45593999997E+02  0.45594000000E+02  0.51100000000E-03 0.  1.
         11   -1    0    0    0    0 -0.00000000000E+00 -0.00000000000E+00 -0.45593999997E+02  0.45594000000E+02  0.51100000000E-03 0. -1.
    9900012    2    1    2    0    0  0.49314689025E+00 -0.67993800714E+00 -0.82970000453E+00  0.90007359646E+02  0.89999615992E+02 0.  0.
        -12    1    1    2    0    0 -0.49314689025E+00  0.67993800714E+00  0.82970000453E+00  0.11806403544E+01  0.00000000000E+00 0.  1.
         11    1    3    3    0    0  0.28310445606E+01  0.63650750138E+01  0.90321695520E+01  0.11406536736E+02  0.51100000000E-03 0. -1.
        -11    1    3    3    0    0 -0.34160608819E+02  0.12181476632E+02  0.83255763905E+01  0.37210896124E+02  0.51100000000E-03 0.  1.
         12    1    3    3    0    0  0.31822711149E+02 -0.19226489653E+02 -0.18187445947E+02  0.41389926786E+02  0.00000000000E+00 0. -1.
</event>
<event>
 7    1  0.3662489E-015  0.9000777E+02  0.7816164E-02  0.1186339E+00
        -11   -1    0    0    0    0  0.00000000000E+00  0.00000000000E+00  0.45593999997E+02  0.45594000000E+02  0.51100000000E-03 0. -1.
         11   -1    0    0    0    0 -0.00000000000E+00 -0.00000000000E+00 -0.45593999997E+02  0.45594000000E+02  0.51100000000E-03 0.  1.
    9900012    2    1    2    0    0 -0.89709697341E+00 -0.74797604583E+00 -0.16936336948E+00  0.90007773286E+02  0.90000035094E+02 0.  0.
        -12    1    1    2    0    0  0.89709697341E+00  0.74797604583E+00  0.16936336948E+00  0.11802267137E+01  0.00000000000E+00 0.  1.
         11    1    3    3    0    0  0.66340114579E+00  0.38137205373E+02  0.75890793630E+01  0.38890624327E+02  0.51100000000E-03 0. -1.
        -11    1    3    3    0    0  0.37714770467E+01  0.14039358571E+01 -0.96265098227E+01  0.10433827995E+02  0.51100000000E-03 0.  1.
        -12    1    3    3    0    0 -0.53319751660E+01 -0.40289117276E+02  0.18680670902E+01  0.40683320964E+02  0.00000000000E+00 0.  1.
</event>
<event>
 7    1  0.3662489E-015  0.9000767E+02  0.7816164E-02  0.1186339E+00
        -11   -1    0    0    0    0  0.00000000000E+00  0.00000000000E+00  0.45593999997E+02  0.45594000000E+02  0.51100000000E-03 0. -1.
         11   -1    0    0    0    0 -0.00000000000E+00 -0.00000000000E+00 -0.45593999997E+02  0.45594000000E+02  0.51100000000E-03 0.  1.
    9900012    2    1    2    0    0 -0.55277040877E+00 -0.70366707816E+00  0.76972308447E+00  0.90007671186E+02  0.89999931646E+02 0.  0.
        -12    1    1    2    0    0  0.55277040877E+00  0.70366707816E+00 -0.76972308447E+00  0.11803288137E+01  0.00000000000E+00 0.  1.
         11    1    3    3    0    0  0.13586464809E+00 -0.27887172149E+01 -0.84492140837E+01  0.88985741442E+01  0.51100000000E-03 0. -1.
        -11    1    3    3    0    0 -0.51947807679E+01  0.38544668733E+02 -0.92688748393E+01  0.39982362061E+02  0.51100000000E-03 0.  1.
         12    1    3    3    0    0  0.45061457111E+01 -0.36459618596E+02  0.18487812007E+02  0.41126734981E+02  0.00000000000E+00 0. -1.
</event>
<event>
 7    1  0.3662489E-015  0.9000761E+02  0.7816164E-02  0.1186339E+00
        -11   -1    0    0    0    0  0.00000000000E+00  0.00000000000E+00  0.45593999997E+02  0.45594000000E+02  0.51100000000E-03 0.  1.
         11   -1    0    0    0    0 -0.00000000000E+00 -0.00000000000E+00 -0.45593999997E+02  0.45594000000E+02  0.51100000000E-03 0. -1.
    9900012    2    1    2    0    0  0.77283072470E+00  0.88997284880E+00  0.63241091112E-01  0.90007610896E+02  0.89999870560E+02 0.  0.
        -12    1    1    2    0    0 -0.77283072470E+00 -0.88997284880E+00 -0.63241091112E-01  0.11803891037E+01  0.00000000000E+00 0.  1.
         11    1    3    3    0    0 -0.44157480728E+01 -0.15233481269E+01 -0.80399247962E+01  0.92983768233E+01  0.51100000000E-03 0. -1.
        -11    1    3    3    0    0 -0.15500556242E+02  0.28874666532E+02  0.26739073637E+02  0.42296473498E+02  0.51100000000E-03 0.  1.
         12    1    3    3    0    0  0.20689135039E+02 -0.26461345556E+02 -0.18635907750E+02  0.38412760575E+02  0.00000000000E+00 0. -1.
</event>
<event>
 7    1  0.3662489E-015  0.9000779E+02  0.7816164E-02  0.1186339E+00
        -11   -1    0    0    0    0  0.00000000000E+00  0.00000000000E+00  0.45593999997E+02  0.45594000000E+02  0.51100000000E-03 0. -1.
         11   -1    0    0    0    0 -0.00000000000E+00 -0.00000000000E+00 -0.45593999997E+02  0.45594000000E+02  0.51100000000E-03 0.  1.
    9900012    2    1    2    0    0 -0.96083432511E+00  0.29934975812E+00  0.61650066079E+00  0.90007794110E+02  0.90000056192E+02 0.  0.
        -12    1    1    2    0    0  0.96083432511E+00 -0.29934975812E+00 -0.61650066079E+00  0.11802058900E+01  0.00000000000E+00 0.  1.
         11    1    3    3    0    0 -0.42793100785E+01 -0.60089207940E+01  0.50472696851E+01  0.89383754336E+01  0.51100000000E-03 0. -1.
        -11    1    3    3    0    0  0.18999173615E+02 -0.33121843352E+02 -0.57534528485E+01  0.38615117830E+02  0.51100000000E-03 0.  1.
         12    1    3    3    0    0 -0.15680697862E+02  0.39430113904E+02  0.13226838242E+01  0.42454300847E+02  0.00000000000E+00 0. -1.
</event>
<event>
 7    1  0.3662489E-015  0.9000791E+02  0.7816164E-02  0.1186339E+00
        -11   -1    0    0    0    0  0.00000000000E+00  0.00000000000E+00  0.45593999997E+02  0.45594000000E+02  0.51100000000E-03 0. -1.
         11   -1    0    0    0    0 -0.00000000000E+00 -0.00000000000E+00 -0.45593999997E+02  0.45594000000E+02  0.51100000000E-03 0.  1.
    9900012    2    1    2    0    0  0.41984680372E-01  0.11854803471E+00  0.11733671241E+01  0.90007912394E+02  0.90000176037E+02 0.  0.
        -12    1    1    2    0    0 -0.41984680372E-01 -0.11854803471E+00 -0.11733671241E+01  0.11800876060E+01  0.00000000000E+00 0.  1.
         11    1    3    3    0    0  0.20919124960E+01 -0.88945473202E+01 -0.41388017529E+01  0.10030889798E+02  0.51100000000E-03 0. -1.
        -11    1    3    3    0    0 -0.34545789224E+01 -0.22124255295E+02  0.31923028096E+02  0.38993544479E+02  0.51100000000E-03 0.  1.
         12    1    3    3    0    0  0.14046511068E+01  0.31137350650E+02 -0.26610859219E+02  0.40983478118E+02  0.00000000000E+00 0. -1.
</event>
<event>
 7    1  0.3662489E-015  0.9000775E+02  0.7816164E-02  0.1186339E+00
        -11   -1    0    0    0    0  0.00000000000E+00  0.00000000000E+00  0.45593999997E+02  0.45594000000E+02  0.51100000000E-03 0. -1.
         11   -1    0    0    0    0 -0.00000000000E+00 -0.00000000000E+00 -0.45593999997E+02  0.45594000000E+02  0.51100000000E-03 0.  1.
    9900012    2    1    2    0    0 -0.10462234887E+00 -0.94949239953E+00 -0.69318872133E+00  0.90007749071E+02  0.90000010558E+02 0.  0.
        -12    1    1    2    0    0  0.10462234887E+00  0.94949239953E+00  0.69318872133E+00  0.11802509293E+01  0.00000000000E+00 0.  1.
         11    1    3    3    0    0  0.30686613052E+02 -0.63407199788E+01  0.18934205761E+02  0.36611160846E+02  0.51100000000E-03 0. -1.
        -11    1    3    3    0    0  0.92643914051E+01  0.17538142338E+01 -0.41298993608E+01  0.10293730202E+02  0.51100000000E-03 0.  1.
        -12    1    3    3    0    0 -0.40055626806E+02  0.36374133455E+01 -0.15497495122E+02  0.43102858023E+02  0.00000000000E+00 0.  1.
</event>
<event>
 7    1  0.3662489E-015  0.9000780E+02  0.7816164E-02  0.1186339E+00
        -11   -1    0    0    0    0  0.00000000000E+00  0.00000000000E+00  0.45593999997E+02  0.45594000000E+02  0.51100000000E-03 0. -1.
         11   -1    0    0    0    0 -0.00000000000E+00 -0.00000000000E+00 -0.45593999997E+02  0.45594000000E+02  0.51100000000E-03 0.  1.
    9900012    2    1    2    0    0  0.79298133825E+00 -0.84423580081E+00 -0.22652188408E+00  0.90007802705E+02  0.90000064901E+02 0.  0.
        -12    1    1    2    0    0 -0.79298133825E+00  0.84423580081E+00  0.22652188408E+00  0.11801972946E+01  0.00000000000E+00 0.  1.
         11    1    3    3    0    0 -0.53354115289E+01  0.56466828014E+01 -0.53467123141E+01  0.94307462946E+01  0.51100000000E-03 0. -1.
        -11    1    3    3    0    0  0.39550718967E+01  0.10042839739E+02 -0.35267409592E+02  0.36882128508E+02  0.51100000000E-03 0.  1.
         12    1    3    3    0    0  0.21733209705E+01 -0.16533758341E+02  0.40387600022E+02  0.43694927903E+02  0.00000000000E+00 0. -1.
</event>
<event>
 7    1  0.3662489E-015  0.9000772E+02  0.7816164E-02  0.1186339E+00
        -11   -1    0    0    0    0  0.00000000000E+00  0.00000000000E+00  0.45593999997E+02  0.45594000000E+02  0.51100000000E-03 0. -1.
         11   -1    0    0    0    0 -0.00000000000E+00 -0.00000000000E+00 -0.45593999997E+02  0.45594000000E+02  0.51100000000E-03 0.  1.
    9900012    2    1    2    0    0  0.25111616725E+00  0.11125016612E+01  0.30387097326E+00  0.90007721709E+02  0.89999982836E+02 0.  0.
        -12    1    1    2    0    0 -0.25111616725E+00 -0.11125016612E+01 -0.30387097326E+00  0.11802782909E+01  0.00000000000E+00 0.  1.
         11    1    3    3    0    0  0.12319330948E+00 -0.13863572045E+01 -0.82560832409E+01  0.83725786727E+01  0.51100000000E-03 0. -1.
        -11    1    3    3    0    0 -0.82776872823E-01  0.37148299544E+02 -0.14646863430E+02  0.39931611784E+02  0.51100000000E-03 0.  1.
         12    1    3    3    0    0  0.21069973059E+00 -0.34649440679E+02  0.23206817645E+02  0.41703531252E+02  0.00000000000E+00 0. -1.
</event>
<event>
 7    1  0.3662489E-015  0.9000777E+02  0.7816164E-02  0.1186339E+00
        -11   -1    0    0    0    0  0.00000000000E+00  0.00000000000E+00  0.45593999997E+02  0.45594000000E+02  0.51100000000E-03 0.  1.
         11   -1    0    0    0    0 -0.00000000000E+00 -0.00000000000E+00 -0.45593999997E+02  0.45594000000E+02  0.51100000000E-03 0. -1.
    9900012    2    1    2    0    0  0.51423765080E+00 -0.34683282022E+00 -0.10040970777E+01  0.90007769383E+02  0.90000031139E+02 0.  0.
        -12    1    1    2    0    0 -0.51423765080E+00  0.34683282022E+00  0.10040970777E+01  0.11802306165E+01  0.00000000000E+00 0.  1.
         11    1    3    3    0    0 -0.95185105382E+01  0.12771991157E+01 -0.15134044536E+01  0.97223286176E+01  0.51100000000E-03 0. -1.
        -11    1    3    3    0    0 -0.32769288864E+02  0.79886551779E+01  0.10439014854E+02  0.35307477050E+02  0.51100000000E-03 0.  1.
         12    1    3    3    0    0  0.42802037053E+02 -0.96126871139E+01 -0.99297074780E+01  0.44977963716E+02  0.00000000000E+00 0. -1.
</event>
<event>
 7    1  0.3662489E-015  0.9000763E+02  0.7816164E-02  0.1186339E+00
        -11   -1    0    0    0    0  0.00000000000E+00  0.00000000000E+00  0.45593999997E+02  0.45594000000E+02  0.51100000000E-03 0.  1.
         11   -1    0    0    0    0 -0.00000000000E+00 -0.00000000000E+00 -0.45593999997E+02  0.45594000000E+02  0.51100000000E-03 0. -1.
    9900012    2    1    2    0    0  0.41224070532E+00  0.58564068670E+00 -0.93827203479E+00  0.90007630641E+02  0.89999890565E+02 0.  0.
        -12    1    1    2    0    0 -0.41224070532E+00 -0.58564068670E+00  0.93827203479E+00  0.11803693593E+01  0.00000000000E+00 0.  1.
         11    1    3    3    0    0  0.40904258188E+01  0.30266004208E+01  0.61425440613E+01  0.79763864809E+01  0.51100000000E-03 0. -1.
        -11    1    3    3    0    0  0.26679754890E+02 -0.12515380702E+02 -0.30482718278E+02  0.42398587110E+02  0.51100000000E-03 0.  1.
         12    1    3    3    0    0 -0.30357940003E+02  0.10074420968E+02  0.23401902182E+02  0.39632657049E+02  0.00000000000E+00 0. -1.
</event>
<event>
 7    1  0.3662489E-015  0.9000760E+02  0.7816164E-02  0.1186339E+00
        -11   -1    0    0    0    0  0.00000000000E+00  0.00000000000E+00  0.45593999997E+02  0.45594000000E+02  0.51100000000E-03 0. -1.
         11   -1    0    0    0    0 -0.00000000000E+00 -0.00000000000E+00 -0.45593999997E+02  0.45594000000E+02  0.51100000000E-03 0.  1.
    9900012    2    1    2    0    0  0.60509546425E-01  0.73941056732E+00  0.91812731856E+00  0.90007598727E+02  0.89999858230E+02 0.  0.
        -12    1    1    2    0    0 -0.60509546426E-01 -0.73941056732E+00 -0.91812731856E+00  0.11804012730E+01  0.00000000000E+00 0.  1.
         11    1    3    3    0    0  0.29526727553E+01 -0.17091849643E+01  0.94094715308E+01  0.10008883274E+02  0.51100000000E-03 0. -1.
        -11    1    3    3    0    0  0.21300635435E+02 -0.24996820181E+02  0.15430770936E+02  0.36285903338E+02  0.51100000000E-03 0.  1.
         12    1    3    3    0    0 -0.24192798644E+02  0.27445415713E+02 -0.23922115148E+02  0.43712812115E+02  0.00000000000E+00 0. -1.
</event>
<event>
 7    1  0.3662489E-015  0.9000786E+02  0.7816164E-02  0.1186339E+00
        -11   -1    0    0    0    0  0.00000000000E+00  0.00000000000E+00  0.45593999997E+02  0.45594000000E+02  0.51100000000E-03 0. -1.
         11   -1    0    0    0    0 -0.00000000000E+00 -0.00000000000E+00 -0.45593999997E+02  0.45594000000E+02  0.51100000000E-03 0.  1.
    9900012    2    1    2    0    0  0.95792577108E+00 -0.33428453571E+00 -0.60280274185E+00  0.90007856331E+02  0.90000119235E+02 0.  0.
        -12    1    1    2    0    0 -0.95792577108E+00  0.33428453571E+00  0.60280274185E+00  0.11801436689E+01  0.00000000000E+00 0.  1.
         11    1    3    3    0    0  0.96227559881E+01 -0.32868184168E+02  0.23310225847E+02  0.41428029070E+02  0.51100000000E-03 0. -1.
        -11    1    3    3    0    0  0.60668921744E+01 -0.14354577448E+00 -0.58989180291E+01  0.84631566345E+01  0.51100000000E-03 0.  1.
        -12    1    3    3    0    0 -0.14731722391E+02  0.32677445407E+02 -0.18014110559E+02  0.40116670627E+02  0.00000000000E+00 0.  1.
</event>
<event>
 7    1  0.3662489E-015  0.9000828E+02  0.7816164E-02  0.1186338E+00
        -11   -1    0    0    0    0  0.00000000000E+00  0.00000000000E+00  0.45593999997E+02  0.45594000000E+02  0.51100000000E-03 0.  1.
         11   -1    0    0    0    0 -0.00000000000E+00 -0.00000000000E+00 -0.45593999997E+02  0.45594000000E+02  0.51100000000E-03 0. -1.
    9900012    2    1    2    0    0  0.55737227150E+00 -0.85163767358E+00 -0.59648982393E+00  0.90008275165E+02  0.90000543596E+02 0.  0.
        -12    1    1    2    0    0 -0.55737227150E+00  0.85163767358E+00  0.59648982393E+00  0.11797248349E+01  0.00000000000E+00 0.  1.
         11    1    3    3    0    0  0.10327726669E+01 -0.23043708374E+02 -0.25922294923E+02  0.34699344220E+02  0.51100000000E-03 0. -1.
        -11    1    3    3    0    0  0.10829463959E+02 -0.77936949792E+01 -0.16192876876E+01  0.13440277674E+02  0.51100000000E-03 0.  1.
        -12    1    3    3    0    0 -0.11304864354E+02  0.29985765679E+02  0.26945092787E+02  0.41868653271E+02  0.00000000000E+00 0.  1.
</event>
<event>
 7    1  0.3662489E-015  0.9000766E+02  0.7816164E-02  0.1186339E+00
        -11   -1    0    0    0    0  0.00000000000E+00  0.00000000000E+00  0.45593999997E+02  0.45594000000E+02  0.51100000000E-03 0. -1.
         11   -1    0    0    0    0 -0.00000000000E+00 -0.00000000000E+00 -0.45593999997E+02  0.45594000000E+02  0.51100000000E-03 0.  1.
    9900012    2    1    2    0    0  0.11542399630E+01  0.24660853800E+00  0.10610877878E-01  0.90007661805E+02  0.89999922141E+02 0.  0.
        -12    1    1    2    0    0 -0.11542399630E+01 -0.24660853800E+00 -0.10610877878E-01  0.11803381947E+01  0.00000000000E+00 0.  1.
         11    1    3    3    0    0  0.14032895516E+02 -0.29449140267E+02  0.29146248244E+02  0.43745603277E+02  0.51100000000E-03 0. -1.
        -11    1    3    3    0    0 -0.92086629317E+01  0.10956121311E+02 -0.43201549723E+01  0.14949909913E+02  0.51100000000E-03 0.  1.
        -12    1    3    3    0    0 -0.36699926216E+01  0.18739627494E+02 -0.24815482394E+02  0.31312148616E+02  0.00000000000E+00 0.  1.
</event>
<event>
 7    1  0.3662489E-015  0.9000774E+02  0.7816164E-02  0.1186339E+00
        -11   -1    0    0    0    0  0.00000000000E+00  0.00000000000E+00  0.45593999997E+02  0.45594000000E+02  0.51100000000E-03 0.  1.
         11   -1    0    0    0    0 -0.00000000000E+00 -0.00000000000E+00 -0.45593999997E+02  0.45594000000E+02  0.51100000000E-03 0. -1.
    9900012    2    1    2    0    0 -0.15479802656E+00  0.11576504938E+01 -0.16998894455E+00  0.90007740140E+02  0.90000001510E+02 0.  0.
        -12    1    1    2    0    0  0.15479802656E+00 -0.11576504938E+01  0.16998894455E+00  0.11802598596E+01  0.00000000000E+00 0.  1.
         11    1    3    3    0    0  0.20742287622E+02  0.30344569510E+02 -0.10409252391E+02  0.38201936209E+02  0.51100000000E-03 0. -1.
        -11    1    3    3    0    0  0.71481739962E+01  0.56463170761E+00  0.81654642733E+01  0.10866922633E+02  0.51100000000E-03 0.  1.
        -12    1    3    3    0    0 -0.28045259645E+02 -0.29751550723E+02  0.20737991735E+01  0.40938881299E+02  0.00000000000E+00 0.  1.
</event>
<event>
 7    1  0.3662489E-015  0.9000773E+02  0.7816164E-02  0.1186339E+00
        -11   -1    0    0    0    0  0.00000000000E+00  0.00000000000E+00  0.45593999997E+02  0.45594000000E+02  0.51100000000E-03 0.  1.
         11   -1    0    0    0    0 -0.00000000000E+00 -0.00000000000E+00 -0.45593999997E+02  0.45594000000E+02  0.51100000000E-03 0. -1.
    9900012    2    1    2    0    0 -0.39105417675E+00  0.42984626338E+00 -0.10273018699E+01  0.90007728713E+02  0.89999989932E+02 0.  0.
        -12    1    1    2    0    0  0.39105417675E+00 -0.42984626338E+00  0.10273018699E+01  0.11802712871E+01  0.00000000000E+00 0.  1.
         11    1    3    3    0    0 -0.38697870306E+02  0.88856257027E+01  0.80771306060E+01  0.40518138524E+02  0.51100000000E-03 0. -1.
        -11    1    3    3    0    0 -0.14523963718E+00 -0.43617349391E+01 -0.98922841472E+01  0.10812174256E+02  0.51100000000E-03 0.  1.
        -12    1    3    3    0    0  0.38452055766E+02 -0.40940445002E+01  0.78785167135E+00  0.38677415933E+02  0.00000000000E+00 0.  1.
</event>
<event>
 7    1  0.3662489E-015  0.9000831E+02  0.7816164E-02  0.1186338E+00
        -11   -1    0    0    0    0  0.00000000000E+00  0.00000000000E+00  0.45593999997E+02  0.45594000000E+02  0.51100000000E-03 0.  1.
         11   -1    0    0    0    0 -0.00000000000E+00 -0.00000000000E+00 -0.45593999997E+02  0.45594000000E+02  0.51100000000E-03 0. -1.
    9900012    2    1    2    0    0  0.45664120630E+00 -0.88160245056E+00 -0.63712043698E+00  0.90008310836E+02  0.90000579737E+02 0.  0.
        -12    1    1    2    0    0 -0.45664120630E+00  0.88160245056E+00  0.63712043698E+00  0.11796891639E+01  0.00000000000E+00 0.  1.
         11    1    3    3    0    0 -0.26855784782E+02 -0.15640024187E+02  0.21418516299E+02  0.37743825635E+02  0.51100000000E-03 0. -1.
        -11    1    3    3    0    0  0.37155040470E+01  0.17685275091E+01  0.97515256706E+01  0.10584182209E+02  0.51100000000E-03 0.  1.
        -12    1    3    3    0    0  0.23596921941E+02  0.12989894228E+02 -0.31807162407E+02  0.41680302992E+02  0.00000000000E+00 0.  1.
</event>
<event>
 7    1  0.3662489E-015  0.9000755E+02  0.7816164E-02  0.1186339E+00
        -11   -1    0    0    0    0  0.00000000000E+00  0.00000000000E+00  0.45593999997E+02  0.45594000000E+02  0.51100000000E-03 0.  1.
         11   -1    0    0    0    0 -0.00000000000E+00 -0.00000000000E+00 -0.45593999997E+02  0.45594000000E+02  0.51100000000E-03 0. -1.
    9900012    2    1    2    0    0  0.10839526632E+01 -0.56385035915E-01 -0.46404328223E+00  0.90007547199E+02  0.89999806022E+02 0.  0.
        -12    1    1    2    0    0 -0.10839526632E+01  0.56385035915E-01  0.46404328223E+00  0.11804528013E+01  0.00000000000E+00 0.  1.
         11    1    3    3    0    0 -0.22654483557E+02 -0.83033432084E+01  0.26018947065E+02  0.35484598635E+02  0.51100000000E-03 0. -1.
        -11    1    3    3    0    0 -0.13234441129E+01  0.31075411881E+01  0.96646866743E+01  0.10237894575E+02  0.51100000000E-03 0.  1.
        -12    1    3    3    0    0  0.25061880333E+02  0.51394169844E+01 -0.36147677021E+02  0.44285053989E+02  0.00000000000E+00 0.  1.
</event>
<event>
 7    1  0.3662489E-015  0.9000789E+02  0.7816164E-02  0.1186339E+00
        -11   -1    0    0    0    0  0.00000000000E+00  0.00000000000E+00  0.45593999997E+02  0.45594000000E+02  0.51100000000E-03 0. -1.
         11   -1    0    0    0    0 -0.00000000000E+00 -0.00000000000E+00 -0.45593999997E+02  0.45594000000E+02  0.51100000000E-03 0.  1.
    9900012    2    1    2    0    0  0.45038995823E+00  0.10858211812E+01  0.10390098210E+00  0.90007892307E+02  0.90000155686E+02 0.  0.
        -12    1    1    2    0    0 -0.45038995823E+00 -0.10858211812E+01 -0.10390098210E+00  0.11801076926E+01  0.00000000000E+00 0.  1.
         11    1    3    3    0    0  0.60581414171E+01 -0.49163675734E+01 -0.46854370543E+01  0.91008278853E+01  0.51100000000E-03 0. -1.
        -11    1    3    3    0    0  0.24162033755E+02 -0.17348269584E+02 -0.19846601909E+02  0.35758270936E+02  0.51100000000E-03 0.  1.
         12    1    3    3    0    0 -0.29769785214E+02  0.23350458339E+02  0.24635939945E+02  0.45148793486E+02  0.00000000000E+00 0. -1.
</event>
<event>
 7    1  0.3662489E-015  0.9000793E+02  0.7816164E-02  0.1186339E+00
        -11   -1    0    0    0    0  0.00000000000E+00  0.00000000000E+00  0.45593999997E+02  0.45594000000E+02  0.51100000000E-03 0.  1.
         11   -1    0    0    0    0 -0.00000000000E+00 -0.00000000000E+00 -0.45593999997E+02  0.45594000000E+02  0.51100000000E-03 0. -1.
    9900012    2    1    2    0    0 -0.13990950280E+00 -0.76062625931E+00 -0.89130671872E+00  0.90007934475E+02  0.90000198410E+02 0.  0.
        -12    1    1    2    0    0  0.13990950280E+00  0.76062625931E+00  0.89130671872E+00  0.11800655245E+01  0.00000000000E+00 0.  1.
         11    1    3    3    0    0  0.30216074936E+01  0.30240523292E+02 -0.28417879327E+02  0.41607634234E+02  0.51100000000E-03 0. -1.
        -11    1    3    3    0    0  0.42096356297E+01  0.25909573957E+01  0.62151954017E+01  0.79412056077E+01  0.51100000000E-03 0.  1.
        -12    1    3    3    0    0 -0.73711526261E+01 -0.33592106947E+02  0.21311377207E+02  0.40459094634E+02  0.00000000000E+00 0.  1.
</event>
<event>
 7    1  0.3662489E-015  0.9000776E+02  0.7816164E-02  0.1186339E+00
        -11   -1    0    0    0    0  0.00000000000E+00  0.00000000000E+00  0.45593999997E+02  0.45594000000E+02  0.51100000000E-03 0. -1.
         11   -1    0    0    0    0 -0.00000000000E+00 -0.00000000000E+00 -0.45593999997E+02  0.45594000000E+02  0.51100000000E-03 0.  1.
    9900012    2    1    2    0    0 -0.85650076974E-01  0.93704017552E+00  0.71245208481E+00  0.90007759262E+02  0.90000020884E+02 0.  0.
        -12    1    1    2    0    0  0.85650076974E-01 -0.93704017552E+00 -0.71245208481E+00  0.11802407379E+01  0.00000000000E+00 0.  1.
         11    1    3    3    0    0  0.13115914984E+02  0.44787227734E+01  0.33261163934E+02  0.36033195946E+02  0.51100000000E-03 0. -1.
        -11    1    3    3    0    0  0.13167678900E+02  0.19240501446E+01 -0.23514787010E+01  0.13513666746E+02  0.51100000000E-03 0.  1.
        -12    1    3    3    0    0 -0.26369243961E+02 -0.54657327424E+01 -0.30197233148E+02  0.40460896571E+02  0.00000000000E+00 0.  1.
</event>
<event>
 7    1  0.3662489E-015  0.9000771E+02  0.7816164E-02  0.1186339E+00
        -11   -1    0    0    0    0  0.00000000000E+00  0.00000000000E+00  0.45593999997E+02  0.45594000000E+02  0.51100000000E-03 0.  1.
         11   -1    0    0    0    0 -0.00000000000E+00 -0.00000000000E+00 -0.45593999997E+02  0.45594000000E+02  0.51100000000E-03 0. -1.
    9900012    2    1    2    0    0  0.86124150857E+00 -0.24333065440E+00  0.76951235879E+00  0.90007705116E+02  0.89999966023E+02 0.  0.
        -12    1    1    2    0    0 -0.86124150857E+00  0.24333065440E+00 -0.76951235879E+00  0.11802948843E+01  0.00000000000E+00 0.  1.
         11    1    3    3    0    0 -0.14839404211E+02 -0.34849214366E+02 -0.75942958602E+00  0.37884725059E+02  0.51100000000E-03 0. -1.
        -11    1    3    3    0    0  0.29287254877E+01 -0.52707022958E+01  0.77200462943E+01  0.97957567712E+01  0.51100000000E-03 0.  1.
        -12    1    3    3    0    0  0.12771920232E+02  0.39876586007E+02 -0.61911043495E+01  0.42327223286E+02  0.00000000000E+00 0.  1.
</event>
<event>
 7    1  0.3662489E-015  0.9000777E+02  0.7816164E-02  0.1186339E+00
        -11   -1    0    0    0    0  0.00000000000E+00  0.00000000000E+00  0.45593999997E+02  0.45594000000E+02  0.51100000000E-03 0. -1.
         11   -1    0    0    0    0 -0.00000000000E+00 -0.00000000000E+00 -0.45593999997E+02  0.45594000000E+02  0.51100000000E-03 0.  1.
    9900012    2    1    2    0    0 -0.68735073460E-01  0.11571177626E+01 -0.22204429261E+00  0.90007767102E+02  0.90000028827E+02 0.  0.
        -12    1    1    2    0    0  0.68735073460E-01 -0.11571177626E+01  0.22204429261E+00  0.11802328985E+01  0.00000000000E+00 0.  1.
         11    1    3    3    0    0 -0.13199636157E+02 -0.19012531340E+02  0.33268819932E+02  0.40528028851E+02  0.51100000000E-03 0. -1.
        -11    1    3    3    0    0  0.12252627625E+02  0.41336671813E+01 -0.67970441148E+00  0.12948980131E+02  0.51100000000E-03 0.  1.
        -12    1    3    3    0    0  0.87827345810E+00  0.16035981921E+02 -0.32811159813E+02  0.36530758119E+02  0.00000000000E+00 0.  1.
</event>
<event>
 7    1  0.3662489E-015  0.9000722E+02  0.7816164E-02  0.1186340E+00
        -11   -1    0    0    0    0  0.00000000000E+00  0.00000000000E+00  0.45593999997E+02  0.45594000000E+02  0.51100000000E-03 0. -1.
         11   -1    0    0    0    0 -0.00000000000E+00 -0.00000000000E+00 -0.45593999997E+02  0.45594000000E+02  0.51100000000E-03 0.  1.
    9900012    2    1    2    0    0 -0.10908006643E+01  0.43280299359E+00 -0.13065723383E+00  0.90007222361E+02  0.89999476894E+02 0.  0.
        -12    1    1    2    0    0  0.10908006643E+01 -0.43280299359E+00  0.13065723383E+00  0.11807776392E+01  0.00000000000E+00 0.  1.
         11    1    3    3    0    0  0.71393135779E+01  0.33502896632E+01  0.10087570291E+02  0.12804425556E+02  0.51100000000E-03 0. -1.
        -11    1    3    3    0    0 -0.32675868558E+02 -0.42907807648E+01  0.19814459999E+02  0.38454336698E+02  0.51100000000E-03 0.  1.
         12    1    3    3    0    0  0.24445754315E+02  0.13732940952E+01 -0.30032687524E+02  0.38748460107E+02  0.00000000000E+00 0. -1.
</event>
<event>
 7    1  0.3662489E-015  0.9000770E+02  0.7816164E-02  0.1186339E+00
        -11   -1    0    0    0    0  0.00000000000E+00  0.00000000000E+00  0.45593999997E+02  0.45594000000E+02  0.51100000000E-03 0. -1.
         11   -1    0    0    0    0 -0.00000000000E+00 -0.00000000000E+00 -0.45593999997E+02  0.45594000000E+02  0.51100000000E-03 0.  1.
    9900012    2    1    2    0    0 -0.89190440114E+00 -0.76903129613E+00  0.78703604209E-01  0.90007704760E+02  0.89999965663E+02 0.  0.
        -12    1    1    2    0    0  0.89190440114E+00  0.76903129613E+00 -0.78703604209E-01  0.11802952396E+01  0.00000000000E+00 0.  1.
         11    1    3    3    0    0  0.22698376637E+02 -0.27061605376E+02  0.15039303413E+02  0.38389157777E+02  0.51100000000E-03 0. -1.
        -11    1    3    3    0    0  0.68229954473E+01  0.11822669211E+01  0.38496190594E+01  0.79227892254E+01  0.51100000000E-03 0.  1.
        -12    1    3    3    0    0 -0.30413276485E+02  0.25110307159E+02 -0.18810218868E+02  0.43695757758E+02  0.00000000000E+00 0.  1.
</event>
<event>
 7    1  0.3662489E-015  0.9000781E+02  0.7816164E-02  0.1186339E+00
        -11   -1    0    0    0    0  0.00000000000E+00  0.00000000000E+00  0.45593999997E+02  0.45594000000E+02  0.51100000000E-03 0.  1.
         11   -1    0    0    0    0 -0.00000000000E+00 -0.00000000000E+00 -0.45593999997E+02  0.45594000000E+02  0.51100000000E-03 0. -1.
    9900012    2    1    2    0    0  0.38011107404E+00  0.72043625448E+00 -0.85400702578E+00  0.90007813224E+02  0.90000075559E+02 0.  0.
        -12    1    1    2    0    0 -0.38011107404E+00 -0.72043625448E+00  0.85400702578E+00  0.11801867757E+01  0.00000000000E+00 0.  1.
         11    1    3    3    0    0 -0.41789596620E+01 -0.46309346921E+01  0.65883472349E+01  0.90727933696E+01  0.51100000000E-03 0. -1.
        -11    1    3    3    0    0 -0.10896308688E+02 -0.21777889845E+02  0.25697920117E+02  0.35403236120E+02  0.51100000000E-03 0.  1.
         12    1    3    3    0    0  0.15455379424E+02  0.27129260792E+02 -0.33140274378E+02  0.45531783735E+02  0.00000000000E+00 0. -1.
</event>
<event>
 7    1  0.3662489E-015  0.9000775E+02  0.7816164E-02  0.1186339E+00
        -11   -1    0    0    0    0  0.00000000000E+00  0.00000000000E+00  0.45593999997E+02  0.45594000000E+02  0.51100000000E-03 0. -1.
         11   -1    0    0    0    0 -0.00000000000E+00 -0.00000000000E+00 -0.45593999997E+02  0.45594000000E+02  0.51100000000E-03 0.  1.
    9900012    2    1    2    0    0 -0.37996149451E+00  0.62361807314E-01 -0.11156729262E+01  0.90007751801E+02  0.90000013325E+02 0.  0.
        -12    1    1    2    0    0  0.37996149451E+00 -0.62361807314E-01  0.11156729262E+01  0.11802481987E+01  0.00000000000E+00 0.  1.
         11    1    3    3    0    0 -0.66254547888E+01 -0.10155860869E+01 -0.71460677179E+01  0.97976706594E+01  0.51100000000E-03 0. -1.
        -11    1    3    3    0    0  0.21070854234E+02 -0.29026669487E+01 -0.32439403986E+02  0.38790737358E+02  0.51100000000E-03 0.  1.
         12    1    3    3    0    0 -0.14825360940E+02  0.39806148429E+01  0.38469798777E+02  0.41419343784E+02  0.00000000000E+00 0. -1.
</event>
<event>
 7    1  0.3662489E-015  0.9000775E+02  0.7816164E-02  0.1186339E+00
        -11   -1    0    0    0    0  0.00000000000E+00  0.00000000000E+00  0.45593999997E+02  0.45594000000E+02  0.51100000000E-03 0.  1.
         11   -1    0    0    0    0 -0.00000000000E+00 -0.00000000000E+00 -0.45593999997E+02  0.45594000000E+02  0.51100000000E-03 0. -1.
    9900012    2    1    2    0    0 -0.98972863904E+00 -0.55810705670E+00 -0.31929977958E+00  0.90007746377E+02  0.90000007829E+02 0.  0.
        -12    1    1    2    0    0  0.98972863904E+00  0.55810705670E+00  0.31929977958E+00  0.11802536231E+01  0.00000000000E+00 0.  1.
         11    1    3    3    0    0 -0.23196133893E+02  0.22506233639E+02 -0.11889226972E+02  0.34437550703E+02  0.51100000000E-03 0. -1.
        -11    1    3    3    0    0 -0.38903375048E+01  0.66611877417E+01 -0.82772960443E+01  0.11314582542E+02  0.51100000000E-03 0.  1.
        -12    1    3    3    0    0  0.26096742758E+02 -0.29725528437E+02  0.19847223237E+02  0.44255613132E+02  0.00000000000E+00 0.  1.
</event>
<event>
 7    1  0.3662489E-015  0.9000777E+02  0.7816164E-02  0.1186339E+00
        -11   -1    0    0    0    0  0.00000000000E+00  0.00000000000E+00  0.45593999997E+02  0.45594000000E+02  0.51100000000E-03 0. -1.
         11   -1    0    0    0    0 -0.00000000000E+00 -0.00000000000E+00 -0.45593999997E+02  0.45594000000E+02  0.51100000000E-03 0.  1.
    9900012    2    1    2    0    0 -0.48992343085E+00 -0.53819218314E+00  0.92911809477E+00  0.90007772807E+02  0.90000034608E+02 0.  0.
        -12    1    1    2    0    0  0.48992343085E+00  0.53819218314E+00 -0.92911809477E+00  0.11802271934E+01  0.00000000000E+00 0.  1.
         11    1    3    3    0    0 -0.76488553042E+01 -0.49707041654E+00  0.56300395067E+01  0.95104895548E+01  0.51100000000E-03 0. -1.
        -11    1    3    3    0    0  0.28296666678E+02  0.16814566733E+02  0.24251391858E+02  0.40884728283E+02  0.51100000000E-03 0.  1.
         12    1    3    3    0    0 -0.21137734805E+02 -0.16855688500E+02 -0.28952313270E+02  0.39612554968E+02  0.00000000000E+00 0. -1.
</event>
<event>
 7    1  0.3662489E-015  0.9000814E+02  0.7816164E-02  0.1186338E+00
        -11   -1    0    0    0    0  0.00000000000E+00  0.00000000000E+00  0.45593999997E+02  0.45594000000E+02  0.51100000000E-03 0.  1.
         11   -1    0    0    0    0 -0.00000000000E+00 -0.00000000000E+00 -0.45593999997E+02  0.45594000000E+02  0.51100000000E-03 0. -1.
    9900012    2    1    2    0    0  0.36462955030E+00  0.10022237266E+01 -0.50464253462E+00  0.90008139332E+02  0.90000405971E+02 0.  0.
        -12    1    1    2    0    0 -0.36462955030E+00 -0.10022237266E+01  0.50464253462E+00  0.11798606676E+01  0.00000000000E+00 0.  1.
         11    1    3    3    0    0 -0.20305237639E+02 -0.81660403088E+01 -0.32425302160E+02  0.39120162453E+02  0.51100000000E-03 0. -1.
        -11    1    3    3    0    0  0.13839058378E+02 -0.30291800476E+01 -0.18984196014E+01  0.14293336413E+02  0.51100000000E-03 0.  1.
        -12    1    3    3    0    0  0.68308088107E+01  0.12197444083E+02  0.33819079227E+02  0.36594640467E+02  0.00000000000E+00 0.  1.
</event>
<event>
 7    1  0.3662489E-015  0.9000777E+02  0.7816164E-02  0.1186339E+00
        -11   -1    0    0    0    0  0.00000000000E+00  0.00000000000E+00  0.45593999997E+02  0.45594000000E+02  0.51100000000E-03 0. -1.
         11   -1    0    0    0    0 -0.00000000000E+00 -0.00000000000E+00 -0.45593999997E+02  0.45594000000E+02  0.51100000000E-03 0.  1.
    9900012    2    1    2    0    0 -0.11611540846E+01  0.20984437671E+00 -0.25314916635E-01  0.90007765144E+02  0.90000026844E+02 0.  0.
        -12    1    1    2    0    0  0.11611540846E+01 -0.20984437671E+00  0.25314916635E-01  0.11802348561E+01  0.00000000000E+00 0.  1.
         11    1    3    3    0    0 -0.11609031275E+02  0.28297825912E+01 -0.89863583085E+00  0.11982688483E+02  0.51100000000E-03 0. -1.
        -11    1    3    3    0    0  0.39343452046E+01  0.13336964313E+01 -0.38093973594E+02  0.38319820496E+02  0.51100000000E-03 0.  1.
         12    1    3    3    0    0  0.65135319862E+01 -0.39536346457E+01  0.38967294508E+02  0.39705256165E+02  0.00000000000E+00 0. -1.
</event>
<event>
 7    1  0.3662489E-015  0.9000781E+02  0.7816164E-02  0.1186339E+00
        -11   -1    0    0    0    0  0.00000000000E+00  0.00000000000E+00  0.45593999997E+02  0.45594000000E+02  0.51100000000E-03 0.  1.
         11   -1    0    0    0    0 -0.00000000000E+00 -0.00000000000E+00 -0.45593999997E+02  0.45594000000E+02  0.51100000000E-03 0. -1.
    9900012    2    1    2    0    0  0.47424457289E-01 -0.37906780507E+00 -0.11166543558E+01  0.90007805766E+02  0.90000068002E+02 0.  0.
        -12    1    1    2    0    0 -0.47424457289E-01  0.37906780507E+00  0.11166543558E+01  0.11801942342E+01  0.00000000000E+00 0.  1.
         11    1    3    3    0    0  0.97977042722E+01 -0.35952539937E+02 -0.38356741445E+01  0.37460546357E+02  0.51100000000E-03 0. -1.
        -11    1    3    3    0    0 -0.45982147843E+01 -0.66046142769E+01 -0.48365218963E+01  0.93891668035E+01  0.51100000000E-03 0.  1.
        -12    1    3    3    0    0 -0.51520650307E+01  0.42178086409E+02  0.75555416849E+01  0.43158092606E+02  0.00000000000E+00 0.  1.
</event>
<event>
 7    1  0.3662489E-015  0.9000770E+02  0.7816164E-02  0.1186339E+00
        -11   -1    0    0    0    0  0.00000000000E+00  0.00000000000E+00  0.45593999997E+02  0.45594000000E+02  0.51100000000E-03 0. -1.
         11   -1    0    0    0    0 -0.00000000000E+00 -0.00000000000E+00 -0.45593999997E+02  0.45594000000E+02  0.51100000000E-03 0.  1.
    9900012    2    1    2    0    0 -0.81483131880E+00  0.72044376707E+00  0.45837844742E+00  0.90007703384E+02  0.89999964269E+02 0.  0.
        -12    1    1    2    0    0  0.81483131880E+00 -0.72044376707E+00 -0.45837844742E+00  0.11802966155E+01  0.00000000000E+00 0.  1.
         11    1    3    3    0    0 -0.84330615123E+01  0.12394833625E+01  0.46209238395E+01  0.96956579389E+01  0.51100000000E-03 0. -1.
        -11    1    3    3    0    0 -0.17451299718E+02 -0.32316521774E+02  0.88543611964E+01  0.37779692348E+02  0.51100000000E-03 0.  1.
         12    1    3    3    0    0  0.25069529912E+02  0.31797482179E+02 -0.13016906588E+02  0.42532353098E+02  0.00000000000E+00 0. -1.
</event>
<event>
 7    1  0.3662489E-015  0.9000774E+02  0.7816164E-02  0.1186339E+00
        -11   -1    0    0    0    0  0.00000000000E+00  0.00000000000E+00  0.45593999997E+02  0.45594000000E+02  0.51100000000E-03 0. -1.
         11   -1    0    0    0    0 -0.00000000000E+00 -0.00000000000E+00 -0.45593999997E+02  0.45594000000E+02  0.51100000000E-03 0.  1.
    9900012    2    1    2    0    0  0.52356152710E+00  0.10560485726E+01  0.60572487048E-01  0.90007735501E+02  0.89999996810E+02 0.  0.
        -12    1    1    2    0    0 -0.52356152710E+00 -0.10560485726E+01 -0.60572487048E-01  0.11802644985E+01  0.00000000000E+00 0.  1.
         11    1    3    3    0    0  0.12559895547E+02  0.89547038169E+01  0.35587878806E+02  0.38787044419E+02  0.51100000000E-03 0. -1.
        -11    1    3    3    0    0 -0.82033839497E+01 -0.11577862602E+01  0.51870062757E+01  0.97745082544E+01  0.51100000000E-03 0.  1.
        -12    1    3    3    0    0 -0.38329500706E+01 -0.67408689841E+01 -0.40714312595E+02  0.41446182828E+02  0.00000000000E+00 0.  1.
</event>
<event>
 7    1  0.3662489E-015  0.9000775E+02  0.7816164E-02  0.1186339E+00
        -11   -1    0    0    0    0  0.00000000000E+00  0.00000000000E+00  0.45593999997E+02  0.45594000000E+02  0.51100000000E-03 0. -1.
         11   -1    0    0    0    0 -0.00000000000E+00 -0.00000000000E+00 -0.45593999997E+02  0.45594000000E+02  0.51100000000E-03 0.  1.
    9900012    2    1    2    0    0 -0.49513563546E+00 -0.51769449821E+00  0.93798373736E+00  0.90007754101E+02  0.90000015655E+02 0.  0.
        -12    1    1    2    0    0  0.49513563546E+00  0.51769449821E+00 -0.93798373736E+00  0.11802458992E+01  0.00000000000E+00 0.  1.
         11    1    3    3    0    0  0.50327112586E+01 -0.44030437779E+01 -0.50838076648E+01  0.84000046283E+01  0.51100000000E-03 0. -1.
        -11    1    3    3    0    0  0.12116680652E+02  0.31398476825E+02 -0.20594533316E+02  0.39456470949E+02  0.51100000000E-03 0.  1.
         12    1    3    3    0    0 -0.17644527546E+02 -0.27513127545E+02  0.26616324718E+02  0.42151278524E+02  0.00000000000E+00 0. -1.
</event>
<event>
 7    1  0.3662489E-015  0.9000775E+02  0.7816164E-02  0.1186339E+00
        -11   -1    0    0    0    0  0.00000000000E+00  0.00000000000E+00  0.45593999997E+02  0.45594000000E+02  0.51100000000E-03 0. -1.
         11   -1    0    0    0    0 -0.00000000000E+00 -0.00000000000E+00 -0.45593999997E+02  0.45594000000E+02  0.51100000000E-03 0.  1.
    9900012    2    1    2    0    0 -0.11555991669E+01  0.23050758044E+00 -0.66712856951E-01  0.90007748423E+02  0.90000009902E+02 0.  0.
        -12    1    1    2    0    0  0.11555991669E+01 -0.23050758044E+00  0.66712856951E-01  0.11802515768E+01  0.00000000000E+00 0.  1.
         11    1    3    3    0    0  0.21305768821E+01 -0.78411278238E+01  0.32043619685E+01  0.87344478524E+01  0.51100000000E-03 0. -1.
        -11    1    3    3    0    0 -0.64956394508E+01 -0.36195324390E+02 -0.52529184218E-01  0.36773599214E+02  0.51100000000E-03 0.  1.
         12    1    3    3    0    0  0.32094634018E+01  0.44266959795E+02 -0.32185456413E+01  0.44499701357E+02  0.00000000000E+00 0. -1.
</event>
<event>
 7    1  0.3662489E-015  0.9000773E+02  0.7816164E-02  0.1186339E+00
        -11   -1    0    0    0    0  0.00000000000E+00  0.00000000000E+00  0.45593999997E+02  0.45594000000E+02  0.51100000000E-03 0.  1.
         11   -1    0    0    0    0 -0.00000000000E+00 -0.00000000000E+00 -0.45593999997E+02  0.45594000000E+02  0.51100000000E-03 0. -1.
    9900012    2    1    2    0    0  0.87777271112E+00  0.64921202665E+00 -0.44840443192E+00  0.90007734046E+02  0.89999995335E+02 0.  0.
        -12    1    1    2    0    0 -0.87777271112E+00 -0.64921202665E+00  0.44840443192E+00  0.11802659541E+01  0.00000000000E+00 0.  1.
         11    1    3    3    0    0 -0.87044493719E+01 -0.86322696678E+01 -0.33280912065E+02  0.35466922993E+02  0.51100000000E-03 0. -1.
        -11    1    3    3    0    0 -0.45643827197E+01 -0.47671649432E+01 -0.72313224117E+01  0.97903766675E+01  0.51100000000E-03 0.  1.
        -12    1    3    3    0    0  0.14146604803E+02  0.14048646638E+02  0.40063830045E+02  0.44750434385E+02  0.00000000000E+00 0.  1.
</event>
<event>
 7    1  0.3662489E-015  0.9000734E+02  0.7816164E-02  0.1186340E+00
        -11   -1    0    0    0    0  0.00000000000E+00  0.00000000000E+00  0.45593999997E+02  0.45594000000E+02  0.51100000000E-03 0. -1.
         11   -1    0    0    0    0 -0.00000000000E+00 -0.00000000000E+00 -0.45593999997E+02  0.45594000000E+02  0.51100000000E-03 0.  1.
    9900012    2    1    2    0    0  0.96567334773E+00  0.34444722940E+00  0.58548594418E+00  0.90007338025E+02  0.89999594086E+02 0.  0.
        -12    1    1    2    0    0 -0.96567334773E+00 -0.34444722940E+00 -0.58548594418E+00  0.11806619750E+01  0.00000000000E+00 0.  1.
         11    1    3    3    0    0  0.51999467613E+01  0.10668848350E+01 -0.73363105045E+01  0.90553377436E+01  0.51100000000E-03 0. -1.
        -11    1    3    3    0    0 -0.38846474975E+02 -0.51516101414E+01 -0.11729753915E+02  0.40904459808E+02  0.51100000000E-03 0.  1.
         12    1    3    3    0    0  0.34612201561E+02  0.44291725358E+01  0.19651550364E+02  0.40047540473E+02  0.00000000000E+00 0. -1.
</event>
<event>
 7    1  0.3662489E-015  0.9000773E+02  0.7816164E-02  0.1186339E+00
        -11   -1    0    0    0    0  0.00000000000E+00  0.00000000000E+00  0.45593999997E+02  0.45594000000E+02  0.51100000000E-03 0.  1.
         11   -1    0    0    0    0 -0.00000000000E+00 -0.00000000000E+00 -0.45593999997E+02  0.45594000000E+02  0.51100000000E-03 0. -1.
    9900012    2    1    2    0    0 -0.72922796628E-01  0.11317979013E+01 -0.32674763027E+00  0.90007725355E+02  0.89999986530E+02 0.  0.
        -12    1    1    2    0    0  0.72922796628E-01 -0.11317979013E+01  0.32674763027E+00  0.11802746449E+01  0.00000000000E+00 0.  1.
         11    1    3    3    0    0  0.73996245379E+01 -0.57738170757E+01  0.33668364331E+01  0.99713085779E+01  0.51100000000E-03 0. -1.
        -11    1    3    3    0    0  0.22941130626E+02  0.26162129433E+02  0.16773126698E+02  0.38627584320E+02  0.51100000000E-03 0.  1.
         12    1    3    3    0    0 -0.30413677961E+02 -0.19256514456E+02 -0.20466710762E+02  0.41408832458E+02  0.00000000000E+00 0. -1.
</event>
<event>
 7    1  0.3662489E-015  0.9000825E+02  0.7816164E-02  0.1186338E+00
        -11   -1    0    0    0    0  0.00000000000E+00  0.00000000000E+00  0.45593999997E+02  0.45594000000E+02  0.51100000000E-03 0. -1.
         11   -1    0    0    0    0 -0.00000000000E+00 -0.00000000000E+00 -0.45593999997E+02  0.45594000000E+02  0.51100000000E-03 0.  1.
    9900012    2    1    2    0    0  0.78267736024E-01 -0.11741648404E+01 -0.83747116832E-01  0.90008253209E+02  0.90000521350E+02 0.  0.
        -12    1    1    2    0    0 -0.78267736024E-01  0.11741648404E+01  0.83747116832E-01  0.11797467909E+01  0.00000000000E+00 0.  1.
         11    1    3    3    0    0 -0.11534671691E+02  0.47589712941E+01  0.12519033936E+01  0.12540483291E+02  0.51100000000E-03 0. -1.
        -11    1    3    3    0    0  0.94154163594E+01  0.11202046804E+01  0.37118486636E+02  0.38310402949E+02  0.51100000000E-03 0.  1.
         12    1    3    3    0    0  0.21975230681E+01 -0.70533408149E+01 -0.38454137146E+02  0.39157366969E+02  0.00000000000E+00 0. -1.
</event>
<event>
 7    1  0.3662489E-015  0.9000780E+02  0.7816164E-02  0.1186339E+00
        -11   -1    0    0    0    0  0.00000000000E+00  0.00000000000E+00  0.45593999997E+02  0.45594000000E+02  0.51100000000E-03 0.  1.
         11   -1    0    0    0    0 -0.00000000000E+00 -0.00000000000E+00 -0.45593999997E+02  0.45594000000E+02  0.51100000000E-03 0. -1.
    9900012    2    1    2    0    0 -0.59569850727E+00 -0.10187420884E+01 -0.13148058896E-01  0.90007802972E+02  0.90000065171E+02 0.  0.
        -12    1    1    2    0    0  0.59569850727E+00  0.10187420884E+01  0.13148058896E-01  0.11801970283E+01  0.00000000000E+00 0.  1.
         11    1    3    3    0    0 -0.31130834834E+02 -0.26936064618E+02 -0.69427206271E+01  0.41747836166E+02  0.51100000000E-03 0. -1.
        -11    1    3    3    0    0  0.27812209924E+01  0.59599270339E-01  0.98303238514E+01  0.10216359898E+02  0.51100000000E-03 0.  1.
        -12    1    3    3    0    0  0.27753915334E+02  0.25857723259E+02 -0.29007512832E+01  0.38043606908E+02  0.00000000000E+00 0.  1.
</event>
<event>
 7    1  0.3662489E-015  0.9000773E+02  0.7816164E-02  0.1186339E+00
        -11   -1    0    0    0    0  0.00000000000E+00  0.00000000000E+00  0.45593999997E+02  0.45594000000E+02  0.51100000000E-03 0.  1.
         11   -1    0    0    0    0 -0.00000000000E+00 -0.00000000000E+00 -0.45593999997E+02  0.45594000000E+02  0.51100000000E-03 0. -1.
    9900012    2    1    2    0    0 -0.14121427942E+00  0.94947416553E+00  0.68673324817E+00  0.90007726634E+02  0.89999987826E+02 0.  0.
        -12    1    1    2    0    0  0.14121427942E+00 -0.94947416553E+00 -0.68673324817E+00  0.11802733657E+01  0.00000000000E+00 0.  1.
         11    1    3    3    0    0 -0.10737464374E+01 -0.37543989382E+00 -0.10025119758E+02  0.10089445622E+02  0.51100000000E-03 0. -1.
        -11    1    3    3    0    0 -0.30837254971E+02  0.20569794880E+02 -0.86015488677E+01  0.38053112865E+02  0.51100000000E-03 0.  1.
         12    1    3    3    0    0  0.31769787129E+02 -0.19244880821E+02  0.19313401874E+02  0.41865168147E+02  0.00000000000E+00 0. -1.
</event>
<event>
 7    1  0.3662489E-015  0.9000841E+02  0.7816164E-02  0.1186338E+00
        -11   -1    0    0    0    0  0.00000000000E+00  0.00000000000E+00  0.45593999997E+02  0.45594000000E+02  0.51100000000E-03 0.  1.
         11   -1    0    0    0    0 -0.00000000000E+00 -0.00000000000E+00 -0.45593999997E+02  0.45594000000E+02  0.51100000000E-03 0. -1.
    9900012    2    1    2    0    0 -0.65379760651E+00 -0.59126757486E+00 -0.78383364849E+00  0.90008405220E+02  0.90000675367E+02 0.  0.
        -12    1    1    2    0    0  0.65379760651E+00  0.59126757486E+00  0.78383364849E+00  0.11795947795E+01  0.00000000000E+00 0.  1.
         11    1    3    3    0    0  0.37126458833E+02 -0.77627583843E+01 -0.30358356523E+01  0.38050632867E+02  0.51100000000E-03 0. -1.
        -11    1    3    3    0    0  0.41324199468E+01 -0.32028698087E+01  0.67595683455E+01  0.85455856503E+01  0.51100000000E-03 0.  1.
        -12    1    3    3    0    0 -0.41912676386E+02  0.10374360618E+02 -0.45075663417E+01  0.43412186704E+02  0.00000000000E+00 0.  1.
</event>
<event>
 7    1  0.3662489E-015  0.9000783E+02  0.7816164E-02  0.1186339E+00
        -11   -1    0    0    0    0  0.00000000000E+00  0.00000000000E+00  0.45593999997E+02  0.45594000000E+02  0.51100000000E-03 0.  1.
         11   -1    0    0    0    0 -0.00000000000E+00 -0.00000000000E+00 -0.45593999997E+02  0.45594000000E+02  0.51100000000E-03 0. -1.
    9900012    2    1    2    0    0  0.68211177342E+00  0.12626063268E+00 -0.95476989863E+00  0.90007828920E+02  0.90000091462E+02 0.  0.
        -12    1    1    2    0    0 -0.68211177342E+00 -0.12626063268E+00  0.95476989863E+00  0.11801710800E+01  0.00000000000E+00 0.  1.
         11    1    3    3    0    0 -0.52372590837E+01  0.39490512352E+01 -0.70278823208E+01  0.96132730401E+01  0.51100000000E-03 0. -1.
        -11    1    3    3    0    0  0.26126907720E+02  0.30284616148E+02  0.76362058779E+01  0.40719588931E+02  0.51100000000E-03 0.  1.
         12    1    3    3    0    0 -0.20207536863E+02 -0.34107406750E+02 -0.15630934558E+01  0.39674966949E+02  0.00000000000E+00 0. -1.
</event>
<event>
 7    1  0.4757834E-015  0.9000863E+02  0.7816164E-02  0.1186337E+00
        -11   -1    0    0    0    0  0.00000000000E+00  0.00000000000E+00  0.45593999997E+02  0.45594000000E+02  0.51100000000E-03 0. -1.
         11   -1    0    0    0    0 -0.00000000000E+00 -0.00000000000E+00 -0.45593999997E+02  0.45594000000E+02  0.51100000000E-03 0.  1.
    9900012    2    1    2    0    0 -0.12308380686E+00 -0.52090923900E-01  0.11717733987E+01  0.90008628987E+02  0.90000902085E+02 0.  0.
        -12    1    1    2    0    0  0.12308380686E+00  0.52090923900E-01 -0.11717733987E+01  0.11793710128E+01  0.00000000000E+00 0.  1.
         11    1    3    3    0    0 -0.83920512443E+01 -0.46599794373E+01  0.47092728018E+01  0.10692014919E+02  0.51100000000E-03 0. -1.
        -11    1    3    3    0    0 -0.16255647240E+02 -0.21121305803E+01 -0.35127282199E+02  0.38763811961E+02  0.51100000000E-03 0.  1.
         12    1    3    3    0    0  0.24524614677E+02  0.67200190937E+01  0.31589782796E+02  0.40552802108E+02  0.00000000000E+00 0. -1.
</event>
<event>
 7    1  0.5032934E-015  0.9000788E+02  0.7816164E-02  0.1186339E+00
        -11   -1    0    0    0    0  0.00000000000E+00  0.00000000000E+00  0.45593999997E+02  0.45594000000E+02  0.51100000000E-03 0. -1.
         11   -1    0    0    0    0 -0.00000000000E+00 -0.00000000000E+00 -0.45593999997E+02  0.45594000000E+02  0.51100000000E-03 0.  1.
    9900012    2    1    2    0    0 -0.67111936504E+00 -0.94383963059E+00 -0.22680121422E+00  0.90007884226E+02  0.90000147497E+02 0.  0.
        -12    1    1    2    0    0  0.67111936504E+00  0.94383963059E+00  0.22680121422E+00  0.11801157745E+01  0.00000000000E+00 0.  1.
         11    1    3    3    0    0 -0.73867070675E+01  0.22704940812E+01  0.59301396801E+01  0.97409004491E+01  0.51100000000E-03 0. -1.
        -11    1    3    3    0    0  0.34934815101E+02  0.22649002462E+02 -0.10330868037E+01  0.41647159414E+02  0.51100000000E-03 0.  1.
         12    1    3    3    0    0 -0.28219227399E+02 -0.25863336174E+02 -0.51238540906E+01  0.38619824362E+02  0.00000000000E+00 0. -1.
</event>
<event>
 7    1  0.3662489E-015  0.9000777E+02  0.7816164E-02  0.1186339E+00
        -11   -1    0    0    0    0  0.00000000000E+00  0.00000000000E+00  0.45593999997E+02  0.45594000000E+02  0.51100000000E-03 0. -1.
         11   -1    0    0    0    0 -0.00000000000E+00 -0.00000000000E+00 -0.45593999997E+02  0.45594000000E+02  0.51100000000E-03 0.  1.
    9900012    2    1    2    0    0 -0.14526754394E+00 -0.48974092336E+00  0.10639515771E+01  0.90007770450E+02  0.90000032220E+02 0.  0.
        -12    1    1    2    0    0  0.14526754394E+00  0.48974092336E+00 -0.10639515771E+01  0.11802295496E+01  0.00000000000E+00 0.  1.
         11    1    3    3    0    0  0.14334370858E+02  0.32249303672E+02 -0.18984475036E+02  0.40073707938E+02  0.51100000000E-03 0. -1.
        -11    1    3    3    0    0  0.23440696313E+00  0.23579687908E+01  0.10409482187E+02  0.10675780211E+02  0.51100000000E-03 0.  1.
        -12    1    3    3    0    0 -0.14714045365E+02 -0.35097013386E+02  0.96389444257E+01  0.39258282302E+02  0.00000000000E+00 0.  1.
</event>
<event>
 7    1  0.3662489E-015  0.9000778E+02  0.7816164E-02  0.1186339E+00
        -11   -1    0    0    0    0  0.00000000000E+00  0.00000000000E+00  0.45593999997E+02  0.45594000000E+02  0.51100000000E-03 0.  1.
         11   -1    0    0    0    0 -0.00000000000E+00 -0.00000000000E+00 -0.45593999997E+02  0.45594000000E+02  0.51100000000E-03 0. -1.
    9900012    2    1    2    0    0  0.32539570129E+00  0.50918742196E-01 -0.11333312020E+01  0.90007781929E+02  0.90000043851E+02 0.  0.
        -12    1    1    2    0    0 -0.32539570129E+00 -0.50918742196E-01  0.11333312020E+01  0.11802180706E+01  0.00000000000E+00 0.  1.
         11    1    3    3    0    0 -0.12441291454E+02  0.26992578889E+00 -0.18637265906E+01  0.12583007194E+02  0.51100000000E-03 0. -1.
        -11    1    3    3    0    0 -0.25864982808E+02 -0.19708585377E+02  0.81497657723E+01  0.33523787907E+02  0.51100000000E-03 0.  1.
         12    1    3    3    0    0  0.38631669964E+02  0.19489578330E+02 -0.74193703837E+01  0.43900986829E+02  0.00000000000E+00 0. -1.
</event>
<event>
 7    1  0.3662489E-015  0.9000776E+02  0.7816164E-02  0.1186339E+00
        -11   -1    0    0    0    0  0.00000000000E+00  0.00000000000E+00  0.45593999997E+02  0.45594000000E+02  0.51100000000E-03 0.  1.
         11   -1    0    0    0    0 -0.00000000000E+00 -0.00000000000E+00 -0.45593999997E+02  0.45594000000E+02  0.51100000000E-03 0. -1.
    9900012    2    1    2    0    0  0.94023684041E+00  0.51144389715E+00 -0.49733722113E+00  0.90007760835E+02  0.90000022478E+02 0.  0.
        -12    1    1    2    0    0 -0.94023684041E+00 -0.51144389715E+00  0.49733722113E+00  0.11802391654E+01  0.00000000000E+00 0.  1.
         11    1    3    3    0    0  0.66929261577E+01 -0.29508331426E+01  0.95088077242E+01  0.11996670429E+02  0.51100000000E-03 0. -1.
        -11    1    3    3    0    0  0.34568526407E+02  0.96465714423E+01  0.47875979942E+00  0.35892458397E+02  0.51100000000E-03 0.  1.
         12    1    3    3    0    0 -0.40321215725E+02 -0.61842944026E+01 -0.10484904745E+02  0.42118632009E+02  0.00000000000E+00 0. -1.
</event>
