<event>
 7    1  0.4875579E-009  0.4778727E+02  0.7816164E-02  0.1312668E+00
        -11   -1    0    0    0    0  0.00000000000E+00  0.00000000000E+00  0.45593999997E+02  0.45594000000E+02  0.51100000000E-03 0.  1.
         11   -1    0    0    0    0 -0.00000000000E+00 -0.00000000000E+00 -0.45593999997E+02  0.45594000000E+02  0.51100000000E-03 0. -1.
    9900012    2    1    2    0    0  0.17586565964E+02  0.17955003045E+02  0.35382959736E+02  0.47787271016E+02  0.19999999868E+02 0.  0.
         12    1    1    2    0    0 -0.17586565964E+02 -0.17955003045E+02 -0.35382959736E+02  0.43400728984E+02  0.00000000000E+00 0. -1.
         11    1    3    3    0    0  0.97652158414E+01  0.32665032822E+01  0.12743253256E+02  0.16383527945E+02  0.51100000000E-03 0. -1.
        -11    1    3    3    0    0  0.11359374315E+02  0.73140584249E+01  0.15334383992E+02  0.20437078268E+02  0.51100000000E-03 0.  1.
         12    1    3    3    0    0 -0.35380241928E+01  0.73744413379E+01  0.73053224880E+01  0.10966664802E+02  0.00000000000E+00 0. -1.
</event>
<event>
 7    1  0.4875579E-009  0.4778727E+02  0.7816164E-02  0.1312668E+00
        -11   -1    0    0    0    0  0.00000000000E+00  0.00000000000E+00  0.45593999997E+02  0.45594000000E+02  0.51100000000E-03 0. -1.
         11   -1    0    0    0    0 -0.00000000000E+00 -0.00000000000E+00 -0.45593999997E+02  0.45594000000E+02  0.51100000000E-03 0.  1.
    9900012    2    1    2    0    0  0.22347738893E+02  0.25809691372E+02 -0.26796676983E+02  0.47787268443E+02  0.19999988140E+02 0.  0.
         12    1    1    2    0    0 -0.22347738893E+02 -0.25809691372E+02  0.26796676983E+02  0.43400731557E+02  0.00000000000E+00 0. -1.
         11    1    3    3    0    0  0.88589374408E+01  0.12335539509E+01 -0.83366563072E+01  0.12227111947E+02  0.51100000000E-03 0. -1.
        -11    1    3    3    0    0  0.69228989332E+01  0.11246147953E+02 -0.15580563208E+02  0.20424405097E+02  0.51100000000E-03 0.  1.
        -12    1    3    3    0    0  0.65659025188E+01  0.13329989468E+02 -0.28794574682E+01  0.15135751399E+02  0.00000000000E+00 0.  1.
</event>
<event>
 7    1  0.4875579E-009  0.4778726E+02  0.7816164E-02  0.1312668E+00
        -11   -1    0    0    0    0  0.00000000000E+00  0.00000000000E+00  0.45593999997E+02  0.45594000000E+02  0.51100000000E-03 0. -1.
         11   -1    0    0    0    0 -0.00000000000E+00 -0.00000000000E+00 -0.45593999997E+02  0.45594000000E+02  0.51100000000E-03 0.  1.
    9900012    2    1    2    0    0 -0.75209521485E+01 -0.42400732924E+02  0.54071443124E+01  0.47787261720E+02  0.19999957484E+02 0.  0.
         12    1    1    2    0    0  0.75209521485E+01  0.42400732924E+02 -0.54071443124E+01  0.43400738280E+02  0.00000000000E+00 0. -1.
         11    1    3    3    0    0 -0.14709965985E+01 -0.64781008563E+01 -0.60295814472E+01  0.89713697051E+01  0.51100000000E-03 0. -1.
        -11    1    3    3    0    0 -0.40902194322E+01 -0.13985361475E+02  0.14830548066E+01  0.14646490447E+02  0.51100000000E-03 0.  1.
         12    1    3    3    0    0 -0.19597361178E+01 -0.21937270593E+02  0.99536709530E+01  0.24169401568E+02  0.00000000000E+00 0. -1.
</event>
<event>
 7    1  0.4875579E-009  0.4778727E+02  0.7816164E-02  0.1312668E+00
        -11   -1    0    0    0    0  0.00000000000E+00  0.00000000000E+00  0.45593999997E+02  0.45594000000E+02  0.51100000000E-03 0. -1.
         11   -1    0    0    0    0 -0.00000000000E+00 -0.00000000000E+00 -0.45593999997E+02  0.45594000000E+02  0.51100000000E-03 0.  1.
    9900012    2    1    2    0    0 -0.98874043932E+01  0.17778823836E+02 -0.38337655275E+02  0.47787272418E+02  0.20000006265E+02 0.  0.
         12    1    1    2    0    0  0.98874043932E+01 -0.17778823836E+02  0.38337655275E+02  0.43400727582E+02  0.00000000000E+00 0. -1.
         11    1    3    3    0    0 -0.38024666434E+01 -0.33026375411E+01 -0.12322987469E+02  0.13312482402E+02  0.51100000000E-03 0. -1.
        -11    1    3    3    0    0 -0.95951925607E+00  0.65216892024E+00 -0.32984250538E+01  0.34965139211E+01  0.51100000000E-03 0.  1.
        -12    1    3    3    0    0 -0.51254184937E+01  0.20429292457E+02 -0.22716242752E+02  0.30978276095E+02  0.00000000000E+00 0.  1.
</event>
<event>
 7    1  0.6787784E-009  0.4778727E+02  0.7816164E-02  0.1312668E+00
        -11   -1    0    0    0    0  0.00000000000E+00  0.00000000000E+00  0.45593999997E+02  0.45594000000E+02  0.51100000000E-03 0.  1.
         11   -1    0    0    0    0 -0.00000000000E+00 -0.00000000000E+00 -0.45593999997E+02  0.45594000000E+02  0.51100000000E-03 0. -1.
    9900012    2    1    2    0    0 -0.24917282310E+02 -0.15779968246E+02  0.31839361365E+02  0.47787270885E+02  0.19999999275E+02 0.  0.
         12    1    1    2    0    0  0.24917282310E+02  0.15779968246E+02 -0.31839361365E+02  0.43400729115E+02  0.00000000000E+00 0. -1.
         11    1    3    3    0    0 -0.89605434862E+01 -0.11983618585E+01  0.10928772368E+02  0.14183281582E+02  0.51100000000E-03 0. -1.
        -11    1    3    3    0    0 -0.88031561950E+01 -0.41985885657E+01  0.69410527169E+00  0.97778058544E+01  0.51100000000E-03 0.  1.
        -12    1    3    3    0    0 -0.71535826290E+01 -0.10383017822E+02  0.20216483725E+02  0.23826183449E+02  0.00000000000E+00 0.  1.
</event>
<event>
 7    1  0.4875579E-009  0.4778727E+02  0.7816164E-02  0.1312668E+00
        -11   -1    0    0    0    0  0.00000000000E+00  0.00000000000E+00  0.45593999997E+02  0.45594000000E+02  0.51100000000E-03 0. -1.
         11   -1    0    0    0    0 -0.00000000000E+00 -0.00000000000E+00 -0.45593999997E+02  0.45594000000E+02  0.51100000000E-03 0.  1.
    9900012    2    1    2    0    0 -0.58639787102E+01 -0.43002288531E+02 -0.19977161815E+00  0.47787274501E+02  0.20000015758E+02 0.  0.
         12    1    1    2    0    0  0.58639787102E+01  0.43002288531E+02  0.19977161815E+00  0.43400725499E+02  0.00000000000E+00 0. -1.
         11    1    3    3    0    0 -0.34724014212E+01 -0.41861557620E+01  0.24977674741E+01  0.59850074611E+01  0.51100000000E-03 0. -1.
        -11    1    3    3    0    0 -0.60679586254E+01 -0.10746302284E+02  0.34885539089E+01  0.12824708312E+02  0.51100000000E-03 0.  1.
        -12    1    3    3    0    0  0.36763813364E+01 -0.28069830485E+02 -0.61860930012E+01  0.28977558727E+02  0.00000000000E+00 0.  1.
</event>
<event>
 7    1  0.4875579E-009  0.4778727E+02  0.7816164E-02  0.1312668E+00
        -11   -1    0    0    0    0  0.00000000000E+00  0.00000000000E+00  0.45593999997E+02  0.45594000000E+02  0.51100000000E-03 0.  1.
         11   -1    0    0    0    0 -0.00000000000E+00 -0.00000000000E+00 -0.45593999997E+02  0.45594000000E+02  0.51100000000E-03 0. -1.
    9900012    2    1    2    0    0  0.25499760662E+02 -0.34839558257E+02  0.44260969946E+01  0.47787274799E+02  0.20000017119E+02 0.  0.
         12    1    1    2    0    0 -0.25499760662E+02  0.34839558257E+02 -0.44260969946E+01  0.43400725201E+02  0.00000000000E+00 0. -1.
         11    1    3    3    0    0  0.14740864660E+02 -0.16972081105E+02  0.45653910895E+01  0.22938775557E+02  0.51100000000E-03 0. -1.
        -11    1    3    3    0    0  0.12809822831E+02 -0.18139436904E+02  0.14288609145E+01  0.22252468985E+02  0.51100000000E-03 0.  1.
        -12    1    3    3    0    0 -0.20509268290E+01  0.27195975245E+00 -0.15681550094E+01  0.25960302576E+01  0.00000000000E+00 0.  1.
</event>
<event>
 7    1  0.4875579E-009  0.4778728E+02  0.7816164E-02  0.1312668E+00
        -11   -1    0    0    0    0  0.00000000000E+00  0.00000000000E+00  0.45593999997E+02  0.45594000000E+02  0.51100000000E-03 0.  1.
         11   -1    0    0    0    0 -0.00000000000E+00 -0.00000000000E+00 -0.45593999997E+02  0.45594000000E+02  0.51100000000E-03 0. -1.
    9900012    2    1    2    0    0  0.13252615489E+02  0.21663156920E+02  0.35195151696E+02  0.47787275490E+02  0.20000020270E+02 0.  0.
         12    1    1    2    0    0 -0.13252615489E+02 -0.21663156920E+02 -0.35195151696E+02  0.43400724510E+02  0.00000000000E+00 0. -1.
         11    1    3    3    0    0  0.12701912471E+01  0.29945609708E+01 -0.19073952510E+01  0.37708007262E+01  0.51100000000E-03 0.  1.
        -11    1    3    3    0    0 -0.35230680163E+00 -0.65266990596E+00  0.89034617374E+00  0.11587988000E+01  0.51100000000E-03 0. -1.
        -12    1    3    3    0    0  0.12334731044E+02  0.19321265855E+02  0.36212200774E+02  0.42857675964E+02  0.00000000000E+00 0.  1.
</event>
<event>
 7    1  0.4875579E-009  0.4778727E+02  0.7816164E-02  0.1312668E+00
        -11   -1    0    0    0    0  0.00000000000E+00  0.00000000000E+00  0.45593999997E+02  0.45594000000E+02  0.51100000000E-03 0.  1.
         11   -1    0    0    0    0 -0.00000000000E+00 -0.00000000000E+00 -0.45593999997E+02  0.45594000000E+02  0.51100000000E-03 0. -1.
    9900012    2    1    2    0    0 -0.10929014723E+01  0.37111481660E+02  0.22475920401E+02  0.47787268410E+02  0.19999987988E+02 0.  0.
         12    1    1    2    0    0  0.10929014723E+01 -0.37111481660E+02 -0.22475920401E+02  0.43400731590E+02  0.00000000000E+00 0. -1.
         11    1    3    3    0    0 -0.34724099372E+01  0.71432509368E+01  0.50149584361E+01  0.93932674344E+01  0.51100000000E-03 0. -1.
        -11    1    3    3    0    0  0.38422078685E+01  0.42761342581E+01 -0.20465040261E+01  0.61021360595E+01  0.51100000000E-03 0.  1.
        -12    1    3    3    0    0 -0.14626994037E+01  0.25692096466E+02  0.19507465991E+02  0.32291864916E+02  0.00000000000E+00 0.  1.
</event>
<event>
 7    1  0.4875579E-009  0.4778727E+02  0.7816164E-02  0.1312668E+00
        -11   -1    0    0    0    0  0.00000000000E+00  0.00000000000E+00  0.45593999997E+02  0.45594000000E+02  0.51100000000E-03 0.  1.
         11   -1    0    0    0    0 -0.00000000000E+00 -0.00000000000E+00 -0.45593999997E+02  0.45594000000E+02  0.51100000000E-03 0. -1.
    9900012    2    1    2    0    0  0.30733927480E+02 -0.12876584340E+02  0.27807237909E+02  0.47787271864E+02  0.20000003737E+02 0.  0.
         12    1    1    2    0    0 -0.30733927480E+02  0.12876584340E+02 -0.27807237909E+02  0.43400728136E+02  0.00000000000E+00 0. -1.
         11    1    3    3    0    0  0.41552204877E+01 -0.64870373796E+01  0.39593718457E+01  0.86616474726E+01  0.51100000000E-03 0. -1.
        -11    1    3    3    0    0 -0.16576677437E+01 -0.10060135889E+00  0.31313559495E+01  0.35444849168E+01  0.51100000000E-03 0.  1.
        -12    1    3    3    0    0  0.28236374736E+02 -0.62889456012E+01  0.20716510114E+02  0.35581139475E+02  0.00000000000E+00 0.  1.
</event>
<event>
 7    1  0.4875579E-009  0.4778727E+02  0.7816164E-02  0.1312668E+00
        -11   -1    0    0    0    0  0.00000000000E+00  0.00000000000E+00  0.45593999997E+02  0.45594000000E+02  0.51100000000E-03 0. -1.
         11   -1    0    0    0    0 -0.00000000000E+00 -0.00000000000E+00 -0.45593999997E+02  0.45594000000E+02  0.51100000000E-03 0.  1.
    9900012    2    1    2    0    0 -0.35141829480E+02 -0.22297103643E+02 -0.12309115502E+02  0.47787270346E+02  0.19999996815E+02 0.  0.
         12    1    1    2    0    0  0.35141829480E+02  0.22297103643E+02  0.12309115502E+02  0.43400729654E+02  0.00000000000E+00 0. -1.
         11    1    3    3    0    0 -0.88356559494E+01  0.25062637311E+01 -0.25151953931E+01  0.95224147186E+01  0.51100000000E-03 0. -1.
        -11    1    3    3    0    0  0.76850576173E-02 -0.76094224594E-01 -0.11279704808E+01  0.11305605060E+01  0.51100000000E-03 0.  1.
        -12    1    3    3    0    0 -0.26313858588E+02 -0.24727273149E+02 -0.86659496283E+01  0.37134295121E+02  0.00000000000E+00 0.  1.
</event>
<event>
 7    1  0.4875579E-009  0.4778727E+02  0.7816164E-02  0.1312668E+00
        -11   -1    0    0    0    0  0.00000000000E+00  0.00000000000E+00  0.45593999997E+02  0.45594000000E+02  0.51100000000E-03 0.  1.
         11   -1    0    0    0    0 -0.00000000000E+00 -0.00000000000E+00 -0.45593999997E+02  0.45594000000E+02  0.51100000000E-03 0. -1.
    9900012    2    1    2    0    0  0.20842421193E+02  0.28667017169E+02  0.25048324591E+02  0.47787274667E+02  0.20000016519E+02 0.  0.
         12    1    1    2    0    0 -0.20842421193E+02 -0.28667017169E+02 -0.25048324591E+02  0.43400725333E+02  0.00000000000E+00 0. -1.
         11    1    3    3    0    0  0.38420922643E+01  0.68703680924E+01  0.10419464185E+02  0.13058670103E+02  0.51100000000E-03 0. -1.
        -11    1    3    3    0    0  0.48809626622E+01  0.11824152429E+02  0.14081348860E+02  0.19024162614E+02  0.51100000000E-03 0.  1.
        -12    1    3    3    0    0  0.12119366267E+02  0.99724966474E+01  0.54751154591E+00  0.15704441951E+02  0.00000000000E+00 0.  1.
</event>
<event>
 7    1  0.4875579E-009  0.4778727E+02  0.7816164E-02  0.1312668E+00
        -11   -1    0    0    0    0  0.00000000000E+00  0.00000000000E+00  0.45593999997E+02  0.45594000000E+02  0.51100000000E-03 0.  1.
         11   -1    0    0    0    0 -0.00000000000E+00 -0.00000000000E+00 -0.45593999997E+02  0.45594000000E+02  0.51100000000E-03 0. -1.
    9900012    2    1    2    0    0  0.16728111743E+02  0.31590420212E+02  0.24613798629E+02  0.47787268962E+02  0.19999990507E+02 0.  0.
         12    1    1    2    0    0 -0.16728111743E+02 -0.31590420212E+02 -0.24613798629E+02  0.43400731038E+02  0.00000000000E+00 0. -1.
         11    1    3    3    0    0  0.43320263727E+01  0.74269038927E+01  0.13531451768E+02  0.16032016129E+02  0.51100000000E-03 0.  1.
        -11    1    3    3    0    0  0.46028628340E+01  0.35376191987E+00  0.85284658380E+00  0.46945544326E+01  0.51100000000E-03 0. -1.
         12    1    3    3    0    0  0.77932225361E+01  0.23809754399E+02  0.10229500277E+02  0.27060698401E+02  0.00000000000E+00 0. -1.
</event>
<event>
 7    1  0.4875579E-009  0.4778728E+02  0.7816164E-02  0.1312668E+00
        -11   -1    0    0    0    0  0.00000000000E+00  0.00000000000E+00  0.45593999997E+02  0.45594000000E+02  0.51100000000E-03 0.  1.
         11   -1    0    0    0    0 -0.00000000000E+00 -0.00000000000E+00 -0.45593999997E+02  0.45594000000E+02  0.51100000000E-03 0. -1.
    9900012    2    1    2    0    0 -0.19292429849E+02  0.38739517521E+02  0.32671885023E+01  0.47787278946E+02  0.20000036028E+02 0.  0.
         12    1    1    2    0    0  0.19292429849E+02 -0.38739517521E+02 -0.32671885023E+01  0.43400721054E+02  0.00000000000E+00 0. -1.
         11    1    3    3    0    0 -0.73431143193E+01  0.96126454829E+01  0.11353891689E+01  0.12149625094E+02  0.51100000000E-03 0.  1.
        -11    1    3    3    0    0 -0.43286992006E+01  0.26539203520E+02  0.44654763769E+01  0.27258162810E+02  0.51100000000E-03 0. -1.
         12    1    3    3    0    0 -0.76206163290E+01  0.25876685185E+01 -0.23336770436E+01  0.83794910430E+01  0.00000000000E+00 0. -1.
</event>
<event>
 7    1  0.4875579E-009  0.4778727E+02  0.7816164E-02  0.1312668E+00
        -11   -1    0    0    0    0  0.00000000000E+00  0.00000000000E+00  0.45593999997E+02  0.45594000000E+02  0.51100000000E-03 0.  1.
         11   -1    0    0    0    0 -0.00000000000E+00 -0.00000000000E+00 -0.45593999997E+02  0.45594000000E+02  0.51100000000E-03 0. -1.
    9900012    2    1    2    0    0  0.23092021559E+02  0.62317646840E+01  0.36215281682E+02  0.47787274452E+02  0.20000015536E+02 0.  0.
         12    1    1    2    0    0 -0.23092021559E+02 -0.62317646840E+01 -0.36215281682E+02  0.43400725548E+02  0.00000000000E+00 0. -1.
         11    1    3    3    0    0  0.64951058933E+01 -0.47048585828E+01  0.19043212214E+02  0.20663156258E+02  0.51100000000E-03 0. -1.
        -11    1    3    3    0    0  0.43261428668E+01  0.66254410449E+01  0.76387052806E+01  0.10998263489E+02  0.51100000000E-03 0.  1.
         12    1    3    3    0    0  0.12270772799E+02  0.43111822218E+01  0.95333641873E+01  0.16125854705E+02  0.00000000000E+00 0. -1.
</event>
<event>
 7    1  0.4875579E-009  0.4778727E+02  0.7816164E-02  0.1312668E+00
        -11   -1    0    0    0    0  0.00000000000E+00  0.00000000000E+00  0.45593999997E+02  0.45594000000E+02  0.51100000000E-03 0.  1.
         11   -1    0    0    0    0 -0.00000000000E+00 -0.00000000000E+00 -0.45593999997E+02  0.45594000000E+02  0.51100000000E-03 0. -1.
    9900012    2    1    2    0    0 -0.25822345197E+02 -0.66887574628E+01  0.34235805969E+02  0.47787269612E+02  0.19999993468E+02 0.  0.
         12    1    1    2    0    0  0.25822345197E+02  0.66887574628E+01 -0.34235805969E+02  0.43400730388E+02  0.00000000000E+00 0. -1.
         11    1    3    3    0    0 -0.16324565677E+01 -0.78345557902E+01  0.83499116156E+01  0.11565734007E+02  0.51100000000E-03 0. -1.
        -11    1    3    3    0    0 -0.37649112805E+01  0.14879753106E+01  0.12900735374E+01  0.42488724937E+01  0.51100000000E-03 0.  1.
        -12    1    3    3    0    0 -0.20424977348E+02 -0.34217698317E+00  0.24595820816E+02  0.31972663111E+02  0.00000000000E+00 0.  1.
</event>
<event>
 7    1  0.4875579E-009  0.4778727E+02  0.7816164E-02  0.1312668E+00
        -11   -1    0    0    0    0  0.00000000000E+00  0.00000000000E+00  0.45593999997E+02  0.45594000000E+02  0.51100000000E-03 0.  1.
         11   -1    0    0    0    0 -0.00000000000E+00 -0.00000000000E+00 -0.45593999997E+02  0.45594000000E+02  0.51100000000E-03 0. -1.
    9900012    2    1    2    0    0 -0.76895827879E+01 -0.24285912804E+02  0.35138128089E+02  0.47787270862E+02  0.19999999166E+02 0.  0.
         12    1    1    2    0    0  0.76895827879E+01  0.24285912804E+02 -0.35138128089E+02  0.43400729138E+02  0.00000000000E+00 0. -1.
         11    1    3    3    0    0  0.14382770877E+01 -0.24200023967E+00  0.10955924816E+01  0.18241513763E+01  0.51100000000E-03 0. -1.
        -11    1    3    3    0    0 -0.12704216133E+02 -0.23431593028E+02  0.26461872127E+02  0.37558851635E+02  0.51100000000E-03 0.  1.
        -12    1    3    3    0    0  0.35763562579E+01 -0.61231953589E+00  0.75806634806E+01  0.84042678506E+01  0.00000000000E+00 0.  1.
</event>
<event>
 7    1  0.4875579E-009  0.4778727E+02  0.7816164E-02  0.1312668E+00
        -11   -1    0    0    0    0  0.00000000000E+00  0.00000000000E+00  0.45593999997E+02  0.45594000000E+02  0.51100000000E-03 0. -1.
         11   -1    0    0    0    0 -0.00000000000E+00 -0.00000000000E+00 -0.45593999997E+02  0.45594000000E+02  0.51100000000E-03 0.  1.
    9900012    2    1    2    0    0 -0.29639229448E+01 -0.41261472767E+02  0.13127444177E+02  0.47787265389E+02  0.19999974216E+02 0.  0.
         12    1    1    2    0    0  0.29639229448E+01  0.41261472767E+02 -0.13127444177E+02  0.43400734611E+02  0.00000000000E+00 0. -1.
         11    1    3    3    0    0  0.32299784782E+01 -0.33127973372E+01  0.36002788412E+00  0.46407981539E+01  0.51100000000E-03 0. -1.
        -11    1    3    3    0    0 -0.35234236862E+01 -0.40800471076E+00  0.15832539215E+01  0.38842857204E+01  0.51100000000E-03 0.  1.
         12    1    3    3    0    0 -0.26704777368E+01 -0.37540670719E+02  0.11184162371E+02  0.39262181515E+02  0.00000000000E+00 0. -1.
</event>
<event>
 7    1  0.4875579E-009  0.4778727E+02  0.7816164E-02  0.1312668E+00
        -11   -1    0    0    0    0  0.00000000000E+00  0.00000000000E+00  0.45593999997E+02  0.45594000000E+02  0.51100000000E-03 0. -1.
         11   -1    0    0    0    0 -0.00000000000E+00 -0.00000000000E+00 -0.45593999997E+02  0.45594000000E+02  0.51100000000E-03 0.  1.
    9900012    2    1    2    0    0  0.38940474613E+02  0.97151841926E+01 -0.16519026459E+02  0.47787267263E+02  0.19999982757E+02 0.  0.
         12    1    1    2    0    0 -0.38940474613E+02 -0.97151841926E+01  0.16519026459E+02  0.43400732737E+02  0.00000000000E+00 0. -1.
         11    1    3    3    0    0 -0.42429284708E+00  0.12152276088E+01 -0.27694850712E+01  0.30539892570E+01  0.51100000000E-03 0. -1.
        -11    1    3    3    0    0  0.13450588930E+02  0.54340206337E+01 -0.11554915388E+02  0.18546239314E+02  0.51100000000E-03 0.  1.
        -12    1    3    3    0    0  0.25914178530E+02  0.30659359501E+01 -0.21946259996E+01  0.26187038691E+02  0.00000000000E+00 0.  1.
</event>
<event>
 7    1  0.4875579E-009  0.4778727E+02  0.7816164E-02  0.1312668E+00
        -11   -1    0    0    0    0  0.00000000000E+00  0.00000000000E+00  0.45593999997E+02  0.45594000000E+02  0.51100000000E-03 0. -1.
         11   -1    0    0    0    0 -0.00000000000E+00 -0.00000000000E+00 -0.45593999997E+02  0.45594000000E+02  0.51100000000E-03 0.  1.
    9900012    2    1    2    0    0 -0.19675517404E+02 -0.85692216370E+01 -0.37723543873E+02  0.47787270664E+02  0.19999998264E+02 0.  0.
         12    1    1    2    0    0  0.19675517404E+02  0.85692216370E+01  0.37723543873E+02  0.43400729336E+02  0.00000000000E+00 0. -1.
         11    1    3    3    0    0  0.59380970658E-01 -0.33847970170E+01 -0.12034644717E+02  0.12501721909E+02  0.51100000000E-03 0. -1.
        -11    1    3    3    0    0 -0.62329706647E+01 -0.79823129643E+01 -0.13537728086E+02  0.16906724271E+02  0.51100000000E-03 0.  1.
         12    1    3    3    0    0 -0.13501927710E+02  0.27978883443E+01 -0.12151171070E+02  0.18378824485E+02  0.00000000000E+00 0. -1.
</event>
<event>
 7    1  0.4875579E-009  0.4778727E+02  0.7816164E-02  0.1312668E+00
        -11   -1    0    0    0    0  0.00000000000E+00  0.00000000000E+00  0.45593999997E+02  0.45594000000E+02  0.51100000000E-03 0.  1.
         11   -1    0    0    0    0 -0.00000000000E+00 -0.00000000000E+00 -0.45593999997E+02  0.45594000000E+02  0.51100000000E-03 0. -1.
    9900012    2    1    2    0    0 -0.10721215895E+02 -0.12103261150E+02  0.40276418970E+02  0.47787270446E+02  0.19999997273E+02 0.  0.
         12    1    1    2    0    0  0.10721215895E+02  0.12103261150E+02 -0.40276418970E+02  0.43400729554E+02  0.00000000000E+00 0. -1.
         11    1    3    3    0    0 -0.77512592299E+01 -0.15161943484E+02  0.18896900254E+02  0.25437362075E+02  0.51100000000E-03 0. -1.
        -11    1    3    3    0    0 -0.26043261815E+00  0.29105544477E+01  0.53844383222E+01  0.61262817963E+01  0.51100000000E-03 0.  1.
        -12    1    3    3    0    0 -0.27095240473E+01  0.14812788716E+00  0.15995080394E+02  0.16223626575E+02  0.00000000000E+00 0.  1.
</event>
<event>
 7    1  0.4875579E-009  0.4778727E+02  0.7816164E-02  0.1312668E+00
        -11   -1    0    0    0    0  0.00000000000E+00  0.00000000000E+00  0.45593999997E+02  0.45594000000E+02  0.51100000000E-03 0.  1.
         11   -1    0    0    0    0 -0.00000000000E+00 -0.00000000000E+00 -0.45593999997E+02  0.45594000000E+02  0.51100000000E-03 0. -1.
    9900012    2    1    2    0    0 -0.41265010768E+02 -0.44035436233E+01 -0.12705552900E+02  0.47787269768E+02  0.19999994182E+02 0.  0.
         12    1    1    2    0    0  0.41265010768E+02  0.44035436233E+01  0.12705552900E+02  0.43400730232E+02  0.00000000000E+00 0. -1.
         11    1    3    3    0    0 -0.15176185741E+02  0.15261898011E+01 -0.10590060092E+02  0.18568662902E+02  0.51100000000E-03 0. -1.
        -11    1    3    3    0    0 -0.11852447776E+01  0.18249034307E+01 -0.22571140773E+01  0.31352259780E+01  0.51100000000E-03 0.  1.
        -12    1    3    3    0    0 -0.24903580249E+02 -0.77546368551E+01  0.14162126928E+00  0.26083380888E+02  0.00000000000E+00 0.  1.
</event>
<event>
 7    1  0.4875579E-009  0.4778727E+02  0.7816164E-02  0.1312668E+00
        -11   -1    0    0    0    0  0.00000000000E+00  0.00000000000E+00  0.45593999997E+02  0.45594000000E+02  0.51100000000E-03 0.  1.
         11   -1    0    0    0    0 -0.00000000000E+00 -0.00000000000E+00 -0.45593999997E+02  0.45594000000E+02  0.51100000000E-03 0. -1.
    9900012    2    1    2    0    0  0.69745431328E+01  0.15663968002E+02  0.39870025198E+02  0.47787273569E+02  0.20000011509E+02 0.  0.
         12    1    1    2    0    0 -0.69745431328E+01 -0.15663968002E+02 -0.39870025198E+02  0.43400726431E+02  0.00000000000E+00 0. -1.
         11    1    3    3    0    0  0.25058610606E+01  0.58615127210E+01  0.69903955679E+01  0.94605656010E+01  0.51100000000E-03 0. -1.
        -11    1    3    3    0    0  0.47619887501E+01  0.72985600115E+01  0.34329600138E+02  0.35418455090E+02  0.51100000000E-03 0.  1.
        -12    1    3    3    0    0 -0.29330667791E+00  0.25038952694E+01 -0.14499705077E+01  0.29082528776E+01  0.00000000000E+00 0.  1.
</event>
<event>
 7    1  0.4875579E-009  0.4778727E+02  0.7816164E-02  0.1312668E+00
        -11   -1    0    0    0    0  0.00000000000E+00  0.00000000000E+00  0.45593999997E+02  0.45594000000E+02  0.51100000000E-03 0.  1.
         11   -1    0    0    0    0 -0.00000000000E+00 -0.00000000000E+00 -0.45593999997E+02  0.45594000000E+02  0.51100000000E-03 0. -1.
    9900012    2    1    2    0    0 -0.20788954868E+02 -0.23642719378E+02  0.29874144708E+02  0.47787270212E+02  0.19999996205E+02 0.  0.
         12    1    1    2    0    0  0.20788954868E+02  0.23642719378E+02 -0.29874144708E+02  0.43400729788E+02  0.00000000000E+00 0. -1.
         11    1    3    3    0    0 -0.31565120772E+01 -0.13481425521E+01  0.25425401312E+01  0.42714830462E+01  0.51100000000E-03 0. -1.
        -11    1    3    3    0    0 -0.18311617973E+02 -0.19018433173E+02  0.29453335396E+02  0.39553952007E+02  0.51100000000E-03 0.  1.
         12    1    3    3    0    0  0.67917518154E+00 -0.32761436526E+01 -0.21217308192E+01  0.39618351592E+01  0.00000000000E+00 0. -1.
</event>
<event>
 7    1  0.4875579E-009  0.4778727E+02  0.7816164E-02  0.1312668E+00
        -11   -1    0    0    0    0  0.00000000000E+00  0.00000000000E+00  0.45593999997E+02  0.45594000000E+02  0.51100000000E-03 0. -1.
         11   -1    0    0    0    0 -0.00000000000E+00 -0.00000000000E+00 -0.45593999997E+02  0.45594000000E+02  0.51100000000E-03 0.  1.
    9900012    2    1    2    0    0 -0.18638022408E+02  0.25281847256E+02 -0.29951218501E+02  0.47787272245E+02  0.20000005474E+02 0.  0.
         12    1    1    2    0    0  0.18638022408E+02 -0.25281847256E+02  0.29951218501E+02  0.43400727755E+02  0.00000000000E+00 0. -1.
         11    1    3    3    0    0 -0.24156475916E+01  0.12315559329E+01  0.96223496448E+00  0.28771478395E+01  0.51100000000E-03 0. -1.
        -11    1    3    3    0    0  0.10207648003E+01 -0.34294429273E+00  0.80110671247E+00  0.13421414945E+01  0.51100000000E-03 0.  1.
        -12    1    3    3    0    0 -0.17243139617E+02  0.24393235616E+02 -0.31714560178E+02  0.43567982911E+02  0.00000000000E+00 0.  1.
</event>
<event>
 7    1  0.4875579E-009  0.4778727E+02  0.7816164E-02  0.1312668E+00
        -11   -1    0    0    0    0  0.00000000000E+00  0.00000000000E+00  0.45593999997E+02  0.45594000000E+02  0.51100000000E-03 0.  1.
         11   -1    0    0    0    0 -0.00000000000E+00 -0.00000000000E+00 -0.45593999997E+02  0.45594000000E+02  0.51100000000E-03 0. -1.
    9900012    2    1    2    0    0  0.19498399530E+02 -0.35555548103E+02  0.15467351182E+02  0.47787268004E+02  0.19999986139E+02 0.  0.
         12    1    1    2    0    0 -0.19498399530E+02  0.35555548103E+02 -0.15467351182E+02  0.43400731996E+02  0.00000000000E+00 0. -1.
         11    1    3    3    0    0  0.72932621332E+01 -0.25278639525E+01 -0.23064314353E+01  0.80561402007E+01  0.51100000000E-03 0. -1.
        -11    1    3    3    0    0  0.55523487891E+01 -0.94927527691E+01  0.42998842113E+01  0.11808045423E+02  0.51100000000E-03 0.  1.
         12    1    3    3    0    0  0.66527886077E+01 -0.23534931382E+02  0.13473898406E+02  0.27923082381E+02  0.00000000000E+00 0. -1.
</event>
<event>
 7    1  0.4875579E-009  0.4778727E+02  0.7816164E-02  0.1312668E+00
        -11   -1    0    0    0    0  0.00000000000E+00  0.00000000000E+00  0.45593999997E+02  0.45594000000E+02  0.51100000000E-03 0. -1.
         11   -1    0    0    0    0 -0.00000000000E+00 -0.00000000000E+00 -0.45593999997E+02  0.45594000000E+02  0.51100000000E-03 0.  1.
    9900012    2    1    2    0    0 -0.74308487865E+01  0.36194931514E+02  0.22766931055E+02  0.47787265782E+02  0.19999976007E+02 0.  0.
         12    1    1    2    0    0  0.74308487865E+01 -0.36194931514E+02 -0.22766931055E+02  0.43400734218E+02  0.00000000000E+00 0. -1.
         11    1    3    3    0    0 -0.19756612329E+01  0.78003869233E+01  0.11143884586E+02  0.13745378765E+02  0.51100000000E-03 0. -1.
        -11    1    3    3    0    0  0.48590720494E+00  0.79536879436E+01  0.98669694854E+01  0.12682836623E+02  0.51100000000E-03 0.  1.
        -12    1    3    3    0    0 -0.59410947586E+01  0.20440856647E+02  0.17560769842E+01  0.21359050395E+02  0.00000000000E+00 0.  1.
</event>
<event>
 7    1  0.4875579E-009  0.4778728E+02  0.7816164E-02  0.1312668E+00
        -11   -1    0    0    0    0  0.00000000000E+00  0.00000000000E+00  0.45593999997E+02  0.45594000000E+02  0.51100000000E-03 0.  1.
         11   -1    0    0    0    0 -0.00000000000E+00 -0.00000000000E+00 -0.45593999997E+02  0.45594000000E+02  0.51100000000E-03 0. -1.
    9900012    2    1    2    0    0 -0.31010450722E+02 -0.30358151642E+02  0.59789719466E+00  0.47787275280E+02  0.20000019313E+02 0.  0.
         12    1    1    2    0    0  0.31010450722E+02  0.30358151642E+02 -0.59789719466E+00  0.43400724720E+02  0.00000000000E+00 0. -1.
         11    1    3    3    0    0 -0.10596967136E+02 -0.12776576949E+02 -0.30244216983E+01  0.16872574134E+02  0.51100000000E-03 0. -1.
        -11    1    3    3    0    0 -0.16420948418E+02 -0.19999255598E+02  0.19261350915E+01  0.25948560038E+02  0.51100000000E-03 0.  1.
         12    1    3    3    0    0 -0.39925351679E+01  0.24176809042E+01  0.16961838015E+01  0.49661411086E+01  0.00000000000E+00 0. -1.
</event>
<event>
 7    1  0.4875579E-009  0.4778731E+02  0.7816164E-02  0.1312668E+00
        -11   -1    0    0    0    0  0.00000000000E+00  0.00000000000E+00  0.45593999997E+02  0.45594000000E+02  0.51100000000E-03 0.  1.
         11   -1    0    0    0    0 -0.00000000000E+00 -0.00000000000E+00 -0.45593999997E+02  0.45594000000E+02  0.51100000000E-03 0. -1.
    9900012    2    1    2    0    0 -0.53246150893E+01  0.13149267122E+02  0.41016644509E+02  0.47787310162E+02  0.20000178350E+02 0.  0.
         12    1    1    2    0    0  0.53246150893E+01 -0.13149267122E+02 -0.41016644509E+02  0.43400689838E+02  0.00000000000E+00 0. -1.
         11    1    3    3    0    0 -0.36182970512E+00  0.78778865978E+00  0.13344231440E+01  0.15912941577E+01  0.51100000000E-03 0. -1.
        -11    1    3    3    0    0 -0.64718668218E+01 -0.28132726355E+01  0.20561959097E+02  0.21739220898E+02  0.51100000000E-03 0.  1.
         12    1    3    3    0    0  0.15090814376E+01  0.15174751098E+02  0.19120262267E+02  0.24456795105E+02  0.00000000000E+00 0. -1.
</event>
<event>
 7    1  0.4875579E-009  0.4778727E+02  0.7816164E-02  0.1312668E+00
        -11   -1    0    0    0    0  0.00000000000E+00  0.00000000000E+00  0.45593999997E+02  0.45594000000E+02  0.51100000000E-03 0.  1.
         11   -1    0    0    0    0 -0.00000000000E+00 -0.00000000000E+00 -0.45593999997E+02  0.45594000000E+02  0.51100000000E-03 0. -1.
    9900012    2    1    2    0    0  0.19198221005E+01  0.18139240703E+02  0.39381537678E+02  0.47787270973E+02  0.19999999673E+02 0.  0.
         12    1    1    2    0    0 -0.19198221005E+01 -0.18139240703E+02 -0.39381537678E+02  0.43400729027E+02  0.00000000000E+00 0. -1.
         11    1    3    3    0    0 -0.62032081660E+00 -0.12301450348E+01  0.85941511041E+01  0.87038777670E+01  0.51100000000E-03 0. -1.
        -11    1    3    3    0    0 -0.25170085224E+01 -0.63093250735E+00  0.85822599082E+00  0.27331227274E+01  0.51100000000E-03 0.  1.
        -12    1    3    3    0    0  0.50571514395E+01  0.20000318246E+02  0.29929160583E+02  0.36350270478E+02  0.00000000000E+00 0.  1.
</event>
<event>
 7    1  0.4875579E-009  0.4778727E+02  0.7816164E-02  0.1312668E+00
        -11   -1    0    0    0    0  0.00000000000E+00  0.00000000000E+00  0.45593999997E+02  0.45594000000E+02  0.51100000000E-03 0. -1.
         11   -1    0    0    0    0 -0.00000000000E+00 -0.00000000000E+00 -0.45593999997E+02  0.45594000000E+02  0.51100000000E-03 0.  1.
    9900012    2    1    2    0    0 -0.25634676020E+02 -0.31890896995E+02 -0.14472649359E+02  0.47787268379E+02  0.19999987847E+02 0.  0.
         12    1    1    2    0    0  0.25634676020E+02  0.31890896995E+02  0.14472649359E+02  0.43400731621E+02  0.00000000000E+00 0. -1.
         11    1    3    3    0    0 -0.46614134879E+01 -0.74362630842E+01 -0.86805109683E+01  0.12344150651E+02  0.51100000000E-03 0.  1.
        -11    1    3    3    0    0 -0.20880287425E+02 -0.25751917065E+02 -0.42483450987E+01  0.33424483120E+02  0.51100000000E-03 0. -1.
         12    1    3    3    0    0 -0.92975107026E-01  0.12972831548E+01 -0.15437932915E+01  0.20186346082E+01  0.00000000000E+00 0. -1.
</event>
<event>
 7    1  0.4875579E-009  0.4778727E+02  0.7816164E-02  0.1312668E+00
        -11   -1    0    0    0    0  0.00000000000E+00  0.00000000000E+00  0.45593999997E+02  0.45594000000E+02  0.51100000000E-03 0.  1.
         11   -1    0    0    0    0 -0.00000000000E+00 -0.00000000000E+00 -0.45593999997E+02  0.45594000000E+02  0.51100000000E-03 0. -1.
    9900012    2    1    2    0    0  0.18982241811E+02 -0.36068776164E+02 -0.14911108533E+02  0.47787271022E+02  0.19999999900E+02 0.  0.
         12    1    1    2    0    0 -0.18982241811E+02  0.36068776164E+02  0.14911108533E+02  0.43400728978E+02  0.00000000000E+00 0. -1.
         11    1    3    3    0    0  0.10941309420E+02 -0.10704847632E+02 -0.30914979319E+01  0.15616125459E+02  0.51100000000E-03 0. -1.
        -11    1    3    3    0    0  0.14496320048E+01  0.13993065903E+01 -0.21866568006E+01  0.29733752047E+01  0.51100000000E-03 0.  1.
        -12    1    3    3    0    0  0.65913003863E+01 -0.26763235122E+02 -0.96329538004E+01  0.29197770358E+02  0.00000000000E+00 0.  1.
</event>
<event>
 7    1  0.4875579E-009  0.4778727E+02  0.7816164E-02  0.1312668E+00
        -11   -1    0    0    0    0  0.00000000000E+00  0.00000000000E+00  0.45593999997E+02  0.45594000000E+02  0.51100000000E-03 0.  1.
         11   -1    0    0    0    0 -0.00000000000E+00 -0.00000000000E+00 -0.45593999997E+02  0.45594000000E+02  0.51100000000E-03 0. -1.
    9900012    2    1    2    0    0 -0.63167866334E+01  0.20163985008E+02  0.37909564625E+02  0.47787272185E+02  0.20000005202E+02 0.  0.
         12    1    1    2    0    0  0.63167866334E+01 -0.20163985008E+02 -0.37909564625E+02  0.43400727815E+02  0.00000000000E+00 0. -1.
         11    1    3    3    0    0  0.85797380223E+00 -0.71073512842E+00 -0.64346137997E+00  0.12865870653E+01  0.51100000000E-03 0. -1.
        -11    1    3    3    0    0 -0.84819570604E+01  0.12554121611E+02  0.14326584834E+02  0.20851872776E+02  0.51100000000E-03 0.  1.
         12    1    3    3    0    0  0.13071966248E+01  0.83205985249E+01  0.24226441171E+02  0.25648812344E+02  0.00000000000E+00 0. -1.
</event>
<event>
 7    1  0.4875579E-009  0.4778727E+02  0.7816164E-02  0.1312668E+00
        -11   -1    0    0    0    0  0.00000000000E+00  0.00000000000E+00  0.45593999997E+02  0.45594000000E+02  0.51100000000E-03 0. -1.
         11   -1    0    0    0    0 -0.00000000000E+00 -0.00000000000E+00 -0.45593999997E+02  0.45594000000E+02  0.51100000000E-03 0.  1.
    9900012    2    1    2    0    0 -0.30033847831E+02 -0.25848187204E+02 -0.17704876781E+02  0.47787268911E+02  0.19999990271E+02 0.  0.
         12    1    1    2    0    0  0.30033847831E+02  0.25848187204E+02  0.17704876781E+02  0.43400731089E+02  0.00000000000E+00 0. -1.
         11    1    3    3    0    0 -0.18203418854E+02 -0.14722838241E+02 -0.80133208513E+01  0.24745499291E+02  0.51100000000E-03 0. -1.
        -11    1    3    3    0    0 -0.14245690211E+02 -0.98421173174E+01 -0.10423795404E+02  0.20210454566E+02  0.51100000000E-03 0.  1.
         12    1    3    3    0    0  0.24152612342E+01 -0.12832316455E+01  0.73223947344E+00  0.28313150535E+01  0.00000000000E+00 0. -1.
</event>
<event>
 7    1  0.4875579E-009  0.4778727E+02  0.7816164E-02  0.1312668E+00
        -11   -1    0    0    0    0  0.00000000000E+00  0.00000000000E+00  0.45593999997E+02  0.45594000000E+02  0.51100000000E-03 0. -1.
         11   -1    0    0    0    0 -0.00000000000E+00 -0.00000000000E+00 -0.45593999997E+02  0.45594000000E+02  0.51100000000E-03 0.  1.
    9900012    2    1    2    0    0  0.42524789060E+02  0.47435557019E+01 -0.72639093387E+01  0.47787269774E+02  0.19999994208E+02 0.  0.
         12    1    1    2    0    0 -0.42524789060E+02 -0.47435557019E+01  0.72639093387E+01  0.43400730226E+02  0.00000000000E+00 0. -1.
         11    1    3    3    0    0  0.33231623138E+01 -0.20910956239E+01 -0.50256228875E+01  0.63775366985E+01  0.51100000000E-03 0. -1.
        -11    1    3    3    0    0  0.96406762210E+01 -0.80888168515E+00  0.36014470408E+01  0.10323146256E+02  0.51100000000E-03 0.  1.
        -12    1    3    3    0    0  0.29560950525E+02  0.76435330110E+01 -0.58397334919E+01  0.31086586819E+02  0.00000000000E+00 0.  1.
</event>
<event>
 7    1  0.4875579E-009  0.4778726E+02  0.7816164E-02  0.1312668E+00
        -11   -1    0    0    0    0  0.00000000000E+00  0.00000000000E+00  0.45593999997E+02  0.45594000000E+02  0.51100000000E-03 0. -1.
         11   -1    0    0    0    0 -0.00000000000E+00 -0.00000000000E+00 -0.45593999997E+02  0.45594000000E+02  0.51100000000E-03 0.  1.
    9900012    2    1    2    0    0  0.37916509441E+01 -0.16865142532E+02 -0.39809734241E+02  0.47787255884E+02  0.19999930876E+02 0.  0.
         12    1    1    2    0    0 -0.37916509441E+01  0.16865142532E+02  0.39809734241E+02  0.43400744116E+02  0.00000000000E+00 0. -1.
         11    1    3    3    0    0  0.59833363964E+01 -0.13607731014E+02 -0.17623288230E+02  0.23055388656E+02  0.51100000000E-03 0. -1.
        -11    1    3    3    0    0  0.23748485673E+01  0.99742324801E+00 -0.14973100203E+02  0.15193040801E+02  0.51100000000E-03 0.  1.
         12    1    3    3    0    0 -0.45665340196E+01 -0.42548347655E+01 -0.72133458086E+01  0.95388264262E+01  0.00000000000E+00 0. -1.
</event>
<event>
 7    1  0.4875579E-009  0.4778726E+02  0.7816164E-02  0.1312668E+00
        -11   -1    0    0    0    0  0.00000000000E+00  0.00000000000E+00  0.45593999997E+02  0.45594000000E+02  0.51100000000E-03 0. -1.
         11   -1    0    0    0    0 -0.00000000000E+00 -0.00000000000E+00 -0.45593999997E+02  0.45594000000E+02  0.51100000000E-03 0.  1.
    9900012    2    1    2    0    0  0.28296836904E+02  0.26397869745E+02 -0.19648546122E+02  0.47787264171E+02  0.19999968660E+02 0.  0.
         12    1    1    2    0    0 -0.28296836904E+02 -0.26397869745E+02  0.19648546122E+02  0.43400735829E+02  0.00000000000E+00 0. -1.
         11    1    3    3    0    0  0.11060924967E+02  0.67393177437E+01 -0.78478565855E+01  0.15144349376E+02  0.51100000000E-03 0. -1.
        -11    1    3    3    0    0  0.95653046166E+01  0.69280774487E+01  0.24386495621E+01  0.12059864074E+02  0.51100000000E-03 0.  1.
         12    1    3    3    0    0  0.76706073199E+01  0.12730474552E+02 -0.14239339099E+02  0.20583050720E+02  0.00000000000E+00 0. -1.
</event>
<event>
 7    1  0.4875579E-009  0.4778727E+02  0.7816164E-02  0.1312668E+00
        -11   -1    0    0    0    0  0.00000000000E+00  0.00000000000E+00  0.45593999997E+02  0.45594000000E+02  0.51100000000E-03 0.  1.
         11   -1    0    0    0    0 -0.00000000000E+00 -0.00000000000E+00 -0.45593999997E+02  0.45594000000E+02  0.51100000000E-03 0. -1.
    9900012    2    1    2    0    0  0.24055147610E+01 -0.16747288595E+02  0.39967052516E+02  0.47787268861E+02  0.19999990045E+02 0.  0.
         12    1    1    2    0    0 -0.24055147610E+01  0.16747288595E+02 -0.39967052516E+02  0.43400731139E+02  0.00000000000E+00 0. -1.
         11    1    3    3    0    0 -0.19983980895E+01  0.15076203690E+01 -0.72994849412E+00  0.26075542499E+01  0.51100000000E-03 0. -1.
        -11    1    3    3    0    0  0.18477532518E+01 -0.78053209020E+01  0.11150595261E+02  0.13735829112E+02  0.51100000000E-03 0.  1.
         12    1    3    3    0    0  0.25561595987E+01 -0.10449588062E+02  0.29546405749E+02  0.31443885499E+02  0.00000000000E+00 0. -1.
</event>
<event>
 7    1  0.4875579E-009  0.4778725E+02  0.7816164E-02  0.1312668E+00
        -11   -1    0    0    0    0  0.00000000000E+00  0.00000000000E+00  0.45593999997E+02  0.45594000000E+02  0.51100000000E-03 0. -1.
         11   -1    0    0    0    0 -0.00000000000E+00 -0.00000000000E+00 -0.45593999997E+02  0.45594000000E+02  0.51100000000E-03 0.  1.
    9900012    2    1    2    0    0  0.14194560246E+02  0.32670411218E+02 -0.24794827014E+02  0.47787253965E+02  0.19999922129E+02 0.  0.
         12    1    1    2    0    0 -0.14194560246E+02 -0.32670411218E+02  0.24794827014E+02  0.43400746035E+02  0.00000000000E+00 0. -1.
         11    1    3    3    0    0 -0.31749072321E+01  0.15224546677E+00 -0.46371528876E+01  0.56219571129E+01  0.51100000000E-03 0. -1.
        -11    1    3    3    0    0  0.53463546448E+01  0.70257577190E+01 -0.54162073944E+01  0.10357609875E+02  0.51100000000E-03 0.  1.
         12    1    3    3    0    0  0.12023112834E+02  0.25492408032E+02 -0.14741466732E+02  0.31807686978E+02  0.00000000000E+00 0. -1.
</event>
<event>
 7    1  0.4875579E-009  0.4778728E+02  0.7816164E-02  0.1312668E+00
        -11   -1    0    0    0    0  0.00000000000E+00  0.00000000000E+00  0.45593999997E+02  0.45594000000E+02  0.51100000000E-03 0.  1.
         11   -1    0    0    0    0 -0.00000000000E+00 -0.00000000000E+00 -0.45593999997E+02  0.45594000000E+02  0.51100000000E-03 0. -1.
    9900012    2    1    2    0    0  0.39531759174E+02  0.54571301327E+01  0.17061134281E+02  0.47787279319E+02  0.20000037729E+02 0.  0.
         12    1    1    2    0    0 -0.39531759174E+02 -0.54571301327E+01 -0.17061134281E+02  0.43400720681E+02  0.00000000000E+00 0. -1.
         11    1    3    3    0    0  0.19105191519E+02 -0.38385336935E+00  0.15181040023E+02  0.24405320379E+02  0.51100000000E-03 0.  1.
        -11    1    3    3    0    0  0.12730737342E+02 -0.12230695428E+01  0.19384696752E+01  0.12935425673E+02  0.51100000000E-03 0. -1.
        -12    1    3    3    0    0  0.76958303126E+01  0.70640530449E+01 -0.58375417393E-01  0.10446533268E+02  0.00000000000E+00 0.  1.
</event>
<event>
 7    1  0.4875579E-009  0.4778727E+02  0.7816164E-02  0.1312668E+00
        -11   -1    0    0    0    0  0.00000000000E+00  0.00000000000E+00  0.45593999997E+02  0.45594000000E+02  0.51100000000E-03 0.  1.
         11   -1    0    0    0    0 -0.00000000000E+00 -0.00000000000E+00 -0.45593999997E+02  0.45594000000E+02  0.51100000000E-03 0. -1.
    9900012    2    1    2    0    0 -0.21183355668E+02  0.36930782775E+02  0.84265055602E+01  0.47787271093E+02  0.20000000221E+02 0.  0.
         12    1    1    2    0    0  0.21183355668E+02 -0.36930782775E+02 -0.84265055602E+01  0.43400728907E+02  0.00000000000E+00 0. -1.
         11    1    3    3    0    0 -0.56074261878E+01  0.20886581633E+02  0.11143846910E+02  0.24328539721E+02  0.51100000000E-03 0. -1.
        -11    1    3    3    0    0 -0.33144671318E+01  0.79004317179E+01 -0.13889807573E+01  0.86793883138E+01  0.51100000000E-03 0.  1.
         12    1    3    3    0    0 -0.12261462349E+02  0.81437694236E+01 -0.13283605925E+01  0.14779343058E+02  0.00000000000E+00 0. -1.
</event>
<event>
 7    1  0.4875579E-009  0.4778727E+02  0.7816164E-02  0.1312668E+00
        -11   -1    0    0    0    0  0.00000000000E+00  0.00000000000E+00  0.45593999997E+02  0.45594000000E+02  0.51100000000E-03 0.  1.
         11   -1    0    0    0    0 -0.00000000000E+00 -0.00000000000E+00 -0.45593999997E+02  0.45594000000E+02  0.51100000000E-03 0. -1.
    9900012    2    1    2    0    0 -0.40200106917E+01  0.30105161758E+02  0.31002292871E+02  0.47787269433E+02  0.19999992654E+02 0.  0.
         12    1    1    2    0    0  0.40200106917E+01 -0.30105161758E+02 -0.31002292871E+02  0.43400730567E+02  0.00000000000E+00 0. -1.
         11    1    3    3    0    0  0.12794888318E+01  0.11085727650E+01  0.49977626765E+01  0.52767089438E+01  0.51100000000E-03 0. -1.
        -11    1    3    3    0    0  0.52352110266E+01  0.56573934058E+01  0.86016014378E+01  0.11549938623E+02  0.51100000000E-03 0.  1.
         12    1    3    3    0    0 -0.10534710550E+02  0.23339195587E+02  0.17402928757E+02  0.30960621866E+02  0.00000000000E+00 0. -1.
</event>
<event>
 7    1  0.4875579E-009  0.4778727E+02  0.7816164E-02  0.1312668E+00
        -11   -1    0    0    0    0  0.00000000000E+00  0.00000000000E+00  0.45593999997E+02  0.45594000000E+02  0.51100000000E-03 0. -1.
         11   -1    0    0    0    0 -0.00000000000E+00 -0.00000000000E+00 -0.45593999997E+02  0.45594000000E+02  0.51100000000E-03 0.  1.
    9900012    2    1    2    0    0 -0.39841026729E+02  0.10346029554E+02 -0.13757739417E+02  0.47787272677E+02  0.20000007443E+02 0.  0.
         12    1    1    2    0    0  0.39841026729E+02 -0.10346029554E+02  0.13757739417E+02  0.43400727323E+02  0.00000000000E+00 0. -1.
         11    1    3    3    0    0 -0.14046604037E+02  0.46523580184E+01 -0.47901150012E+00  0.14804761814E+02  0.51100000000E-03 0. -1.
        -11    1    3    3    0    0 -0.26011654606E+02  0.55156884126E+01 -0.81002978267E+01  0.27796471344E+02  0.51100000000E-03 0.  1.
        -12    1    3    3    0    0  0.21723191461E+00  0.17798312281E+00 -0.51784300897E+01  0.51860395188E+01  0.00000000000E+00 0.  1.
</event>
<event>
 7    1  0.4875579E-009  0.4778726E+02  0.7816164E-02  0.1312668E+00
        -11   -1    0    0    0    0  0.00000000000E+00  0.00000000000E+00  0.45593999997E+02  0.45594000000E+02  0.51100000000E-03 0.  1.
         11   -1    0    0    0    0 -0.00000000000E+00 -0.00000000000E+00 -0.45593999997E+02  0.45594000000E+02  0.51100000000E-03 0. -1.
    9900012    2    1    2    0    0 -0.37652820767E+02 -0.18975513952E+02 -0.10286835841E+02  0.47787262299E+02  0.19999960124E+02 0.  0.
         12    1    1    2    0    0  0.37652820767E+02  0.18975513952E+02  0.10286835841E+02  0.43400737701E+02  0.00000000000E+00 0. -1.
         11    1    3    3    0    0 -0.25639980978E+00 -0.42813618264E+00 -0.13627729439E+01  0.14512724800E+01  0.51100000000E-03 0. -1.
        -11    1    3    3    0    0 -0.10410415176E+02 -0.70958239237E+01  0.54014025772E+01  0.13707757342E+02  0.51100000000E-03 0.  1.
        -12    1    3    3    0    0 -0.26986005781E+02 -0.11451553845E+02 -0.14325465474E+02  0.32628232476E+02  0.00000000000E+00 0.  1.
</event>
<event>
 7    1  0.4875579E-009  0.4778727E+02  0.7816164E-02  0.1312668E+00
        -11   -1    0    0    0    0  0.00000000000E+00  0.00000000000E+00  0.45593999997E+02  0.45594000000E+02  0.51100000000E-03 0. -1.
         11   -1    0    0    0    0 -0.00000000000E+00 -0.00000000000E+00 -0.45593999997E+02  0.45594000000E+02  0.51100000000E-03 0.  1.
    9900012    2    1    2    0    0  0.45411163515E+01 -0.39085736536E+01 -0.42985170166E+02  0.47787267980E+02  0.19999986027E+02 0.  0.
         12    1    1    2    0    0 -0.45411163515E+01  0.39085736536E+01  0.42985170166E+02  0.43400732020E+02  0.00000000000E+00 0. -1.
         11    1    3    3    0    0 -0.49963342895E+01  0.16625875685E+01 -0.29891171984E+02  0.30351436812E+02  0.51100000000E-03 0. -1.
        -11    1    3    3    0    0  0.17466154587E+01 -0.22264778673E+01 -0.19649375658E+01  0.34451196137E+01  0.51100000000E-03 0.  1.
         12    1    3    3    0    0  0.77908351823E+01 -0.33446833548E+01 -0.11129060616E+02  0.13990711554E+02  0.00000000000E+00 0. -1.
</event>
<event>
 7    1  0.4875579E-009  0.4778727E+02  0.7816164E-02  0.1312668E+00
        -11   -1    0    0    0    0  0.00000000000E+00  0.00000000000E+00  0.45593999997E+02  0.45594000000E+02  0.51100000000E-03 0.  1.
         11   -1    0    0    0    0 -0.00000000000E+00 -0.00000000000E+00 -0.45593999997E+02  0.45594000000E+02  0.51100000000E-03 0. -1.
    9900012    2    1    2    0    0  0.28156745804E+02  0.12075011208E+01  0.33005492886E+02  0.47787274731E+02  0.20000016807E+02 0.  0.
         12    1    1    2    0    0 -0.28156745804E+02 -0.12075011208E+01 -0.33005492886E+02  0.43400725269E+02  0.00000000000E+00 0. -1.
         11    1    3    3    0    0  0.10951668102E+02  0.58624484778E+01  0.89326763403E+01  0.15300328207E+02  0.51100000000E-03 0. -1.
        -11    1    3    3    0    0  0.16370567727E+02  0.59153566329E+00  0.19584626298E+02  0.25532390990E+02  0.51100000000E-03 0.  1.
         12    1    3    3    0    0  0.83450997554E+00 -0.52464830204E+01  0.44881902476E+01  0.69545555344E+01  0.00000000000E+00 0. -1.
</event>
<event>
 7    1  0.4875579E-009  0.4778728E+02  0.7816164E-02  0.1312668E+00
        -11   -1    0    0    0    0  0.00000000000E+00  0.00000000000E+00  0.45593999997E+02  0.45594000000E+02  0.51100000000E-03 0. -1.
         11   -1    0    0    0    0 -0.00000000000E+00 -0.00000000000E+00 -0.45593999997E+02  0.45594000000E+02  0.51100000000E-03 0.  1.
    9900012    2    1    2    0    0  0.37197972450E+01  0.41957070720E+02 -0.10458969164E+02  0.47787277530E+02  0.20000029570E+02 0.  0.
         12    1    1    2    0    0 -0.37197972450E+01 -0.41957070720E+02  0.10458969164E+02  0.43400722470E+02  0.00000000000E+00 0. -1.
         11    1    3    3    0    0 -0.29358037710E+01  0.33601660145E+01  0.12037065622E+00  0.44636474752E+01  0.51100000000E-03 0. -1.
        -11    1    3    3    0    0 -0.33315343184E+00  0.23115630121E+01  0.31343210415E+01  0.39087444813E+01  0.51100000000E-03 0.  1.
        -12    1    3    3    0    0  0.69887544478E+01  0.36285341693E+02 -0.13713660862E+02  0.39414885573E+02  0.00000000000E+00 0.  1.
</event>
<event>
 7    1  0.4875579E-009  0.4778727E+02  0.7816164E-02  0.1312668E+00
        -11   -1    0    0    0    0  0.00000000000E+00  0.00000000000E+00  0.45593999997E+02  0.45594000000E+02  0.51100000000E-03 0. -1.
         11   -1    0    0    0    0 -0.00000000000E+00 -0.00000000000E+00 -0.45593999997E+02  0.45594000000E+02  0.51100000000E-03 0.  1.
    9900012    2    1    2    0    0 -0.16279078464E+02 -0.39759283306E+02 -0.61493480579E+01  0.47787268599E+02  0.19999988850E+02 0.  0.
         12    1    1    2    0    0  0.16279078464E+02  0.39759283306E+02  0.61493480579E+01  0.43400731401E+02  0.00000000000E+00 0. -1.
         11    1    3    3    0    0 -0.52072677218E+01 -0.53267627982E+01 -0.70361080033E+01  0.10246797311E+02  0.51100000000E-03 0. -1.
        -11    1    3    3    0    0 -0.70897303547E+01 -0.84392182531E+01  0.20813229057E+01  0.11216799299E+02  0.51100000000E-03 0.  1.
         12    1    3    3    0    0 -0.39820803869E+01 -0.25993302254E+02 -0.11945629603E+01  0.26323671989E+02  0.00000000000E+00 0. -1.
</event>
<event>
 7    1  0.4875579E-009  0.4778727E+02  0.7816164E-02  0.1312668E+00
        -11   -1    0    0    0    0  0.00000000000E+00  0.00000000000E+00  0.45593999997E+02  0.45594000000E+02  0.51100000000E-03 0. -1.
         11   -1    0    0    0    0 -0.00000000000E+00 -0.00000000000E+00 -0.45593999997E+02  0.45594000000E+02  0.51100000000E-03 0.  1.
    9900012    2    1    2    0    0  0.54541214306E+01  0.38159463948E+02 -0.19943194832E+02  0.47787272478E+02  0.20000006536E+02 0.  0.
         12    1    1    2    0    0 -0.54541214306E+01 -0.38159463948E+02  0.19943194832E+02  0.43400727522E+02  0.00000000000E+00 0. -1.
         11    1    3    3    0    0  0.66392212648E+01  0.74746597425E+01 -0.61229734627E+01  0.11723506368E+02  0.51100000000E-03 0. -1.
        -11    1    3    3    0    0  0.14754730102E+01  0.25402522563E+02 -0.15649812766E+02  0.29872760385E+02  0.51100000000E-03 0.  1.
         12    1    3    3    0    0 -0.26605728444E+01  0.52822816418E+01  0.18295913972E+01  0.61910057248E+01  0.00000000000E+00 0. -1.
</event>
<event>
 7    1  0.4875579E-009  0.4778727E+02  0.7816164E-02  0.1312668E+00
        -11   -1    0    0    0    0  0.00000000000E+00  0.00000000000E+00  0.45593999997E+02  0.45594000000E+02  0.51100000000E-03 0.  1.
         11   -1    0    0    0    0 -0.00000000000E+00 -0.00000000000E+00 -0.45593999997E+02  0.45594000000E+02  0.51100000000E-03 0. -1.
    9900012    2    1    2    0    0  0.34405797896E+02 -0.26449933953E+02 -0.51518320145E+00  0.47787270182E+02  0.19999996068E+02 0.  0.
         12    1    1    2    0    0 -0.34405797896E+02  0.26449933953E+02  0.51518320145E+00  0.43400729818E+02  0.00000000000E+00 0. -1.
         11    1    3    3    0    0  0.97792259103E+00  0.46496480146E+00  0.22270980665E+01  0.24763866660E+01  0.51100000000E-03 0. -1.
        -11    1    3    3    0    0  0.17385643324E+02 -0.18319876695E+02  0.46256847581E+01  0.25676359470E+02  0.51100000000E-03 0.  1.
         12    1    3    3    0    0  0.16042231981E+02 -0.85950220599E+01 -0.73679660260E+01  0.19634524046E+02  0.00000000000E+00 0. -1.
</event>
<event>
 7    1  0.4875579E-009  0.4778727E+02  0.7816164E-02  0.1312668E+00
        -11   -1    0    0    0    0  0.00000000000E+00  0.00000000000E+00  0.45593999997E+02  0.45594000000E+02  0.51100000000E-03 0.  1.
         11   -1    0    0    0    0 -0.00000000000E+00 -0.00000000000E+00 -0.45593999997E+02  0.45594000000E+02  0.51100000000E-03 0. -1.
    9900012    2    1    2    0    0  0.23053814799E+01  0.32836932937E+02  0.28285056585E+02  0.47787269885E+02  0.19999994715E+02 0.  0.
         12    1    1    2    0    0 -0.23053814799E+01 -0.32836932937E+02 -0.28285056585E+02  0.43400730115E+02  0.00000000000E+00 0. -1.
         11    1    3    3    0    0 -0.44948965076E+00  0.17589985524E+02  0.10682941976E+02  0.20584821622E+02  0.51100000000E-03 0. -1.
        -11    1    3    3    0    0 -0.36647559337E+01  0.37269009060E+01  0.23708672170E-01  0.52269291921E+01  0.51100000000E-03 0.  1.
        -12    1    3    3    0    0  0.64196270644E+01  0.11520046507E+02  0.17578405937E+02  0.21975519071E+02  0.00000000000E+00 0.  1.
</event>
<event>
 7    1  0.4875579E-009  0.4778727E+02  0.7816164E-02  0.1312668E+00
        -11   -1    0    0    0    0  0.00000000000E+00  0.00000000000E+00  0.45593999997E+02  0.45594000000E+02  0.51100000000E-03 0.  1.
         11   -1    0    0    0    0 -0.00000000000E+00 -0.00000000000E+00 -0.45593999997E+02  0.45594000000E+02  0.51100000000E-03 0. -1.
    9900012    2    1    2    0    0  0.14064137461E+02 -0.94132497701E+01  0.39965156181E+02  0.47787274864E+02  0.20000017416E+02 0.  0.
         12    1    1    2    0    0 -0.14064137461E+02  0.94132497701E+01 -0.39965156181E+02  0.43400725136E+02  0.00000000000E+00 0. -1.
         11    1    3    3    0    0 -0.26506525954E+01 -0.32080202173E+01  0.21005531927E+02  0.21413774182E+02  0.51100000000E-03 0. -1.
        -11    1    3    3    0    0  0.19946494719E+01 -0.64068161833E+00  0.57301326413E+00  0.21719677516E+01  0.51100000000E-03 0.  1.
        -12    1    3    3    0    0  0.14720140584E+02 -0.55645479345E+01  0.18386610989E+02  0.24201532931E+02  0.00000000000E+00 0.  1.
</event>
<event>
 7    1  0.4875579E-009  0.4778727E+02  0.7816164E-02  0.1312668E+00
        -11   -1    0    0    0    0  0.00000000000E+00  0.00000000000E+00  0.45593999997E+02  0.45594000000E+02  0.51100000000E-03 0. -1.
         11   -1    0    0    0    0 -0.00000000000E+00 -0.00000000000E+00 -0.45593999997E+02  0.45594000000E+02  0.51100000000E-03 0.  1.
    9900012    2    1    2    0    0 -0.32599753665E+02 -0.19717720116E+02 -0.20786795451E+02  0.47787270850E+02  0.19999999114E+02 0.  0.
         12    1    1    2    0    0  0.32599753665E+02  0.19717720116E+02  0.20786795451E+02  0.43400729150E+02  0.00000000000E+00 0. -1.
         11    1    3    3    0    0 -0.15569297809E+02 -0.84741185306E+01 -0.94107477724E+01  0.20069277342E+02  0.51100000000E-03 0. -1.
        -11    1    3    3    0    0 -0.15647602073E+02 -0.14578073754E+02 -0.81818011610E+01  0.22897806784E+02  0.51100000000E-03 0.  1.
         12    1    3    3    0    0 -0.13828537836E+01  0.33344721695E+01 -0.31942465181E+01  0.48201867240E+01  0.00000000000E+00 0. -1.
</event>
<event>
 7    1  0.4875579E-009  0.4778727E+02  0.7816164E-02  0.1312668E+00
        -11   -1    0    0    0    0  0.00000000000E+00  0.00000000000E+00  0.45593999997E+02  0.45594000000E+02  0.51100000000E-03 0. -1.
         11   -1    0    0    0    0 -0.00000000000E+00 -0.00000000000E+00 -0.45593999997E+02  0.45594000000E+02  0.51100000000E-03 0.  1.
    9900012    2    1    2    0    0 -0.19864040001E+02  0.38586691885E+02  0.33203729334E+00  0.47787272765E+02  0.20000007845E+02 0.  0.
         12    1    1    2    0    0  0.19864040001E+02 -0.38586691885E+02 -0.33203729334E+00  0.43400727235E+02  0.00000000000E+00 0. -1.
         11    1    3    3    0    0 -0.33860355457E+01  0.28581498753E+01  0.41887739171E+01  0.60975474263E+01  0.51100000000E-03 0. -1.
        -11    1    3    3    0    0 -0.15682444679E+01  0.17467316091E+02  0.12002509392E+01  0.17578598485E+02  0.51100000000E-03 0.  1.
        -12    1    3    3    0    0 -0.14909759988E+02  0.18261225918E+02 -0.50569875629E+01  0.24111126853E+02  0.00000000000E+00 0.  1.
</event>
<event>
 7    1  0.4875579E-009  0.4778727E+02  0.7816164E-02  0.1312668E+00
        -11   -1    0    0    0    0  0.00000000000E+00  0.00000000000E+00  0.45593999997E+02  0.45594000000E+02  0.51100000000E-03 0.  1.
         11   -1    0    0    0    0 -0.00000000000E+00 -0.00000000000E+00 -0.45593999997E+02  0.45594000000E+02  0.51100000000E-03 0. -1.
    9900012    2    1    2    0    0  0.16405072556E+02 -0.32615625034E+02  0.23467382824E+02  0.47787268917E+02  0.19999990299E+02 0.  0.
         12    1    1    2    0    0 -0.16405072556E+02  0.32615625034E+02 -0.23467382824E+02  0.43400731083E+02  0.00000000000E+00 0. -1.
         11    1    3    3    0    0  0.14359776473E+01 -0.12791775532E+02  0.75487962104E+01  0.14922328154E+02  0.51100000000E-03 0. -1.
        -11    1    3    3    0    0  0.15855469698E+02 -0.21427525263E+02  0.13646225118E+02  0.29945854779E+02  0.51100000000E-03 0.  1.
        -12    1    3    3    0    0 -0.88637478901E+00  0.16036757602E+01  0.22723614961E+01  0.29190859835E+01  0.00000000000E+00 0.  1.
</event>
<event>
 7    1  0.4875579E-009  0.4778727E+02  0.7816164E-02  0.1312668E+00
        -11   -1    0    0    0    0  0.00000000000E+00  0.00000000000E+00  0.45593999997E+02  0.45594000000E+02  0.51100000000E-03 0.  1.
         11   -1    0    0    0    0 -0.00000000000E+00 -0.00000000000E+00 -0.45593999997E+02  0.45594000000E+02  0.51100000000E-03 0. -1.
    9900012    2    1    2    0    0 -0.80743015533E+00  0.17358453499E+02  0.39770031961E+02  0.47787270818E+02  0.19999998969E+02 0.  0.
         12    1    1    2    0    0  0.80743015533E+00 -0.17358453499E+02 -0.39770031961E+02  0.43400729182E+02  0.00000000000E+00 0. -1.
         11    1    3    3    0    0 -0.27904688514E+01  0.11184391196E+02  0.87644464800E+01  0.14480775020E+02  0.51100000000E-03 0. -1.
        -11    1    3    3    0    0 -0.84358792598E+00  0.43547631251E+01  0.36478906837E+01  0.57430574755E+01  0.51100000000E-03 0.  1.
        -12    1    3    3    0    0  0.28266266220E+01  0.18192991786E+01  0.27357694797E+02  0.27563438323E+02  0.00000000000E+00 0.  1.
</event>
<event>
 7    1  0.4875579E-009  0.4778727E+02  0.7816164E-02  0.1312668E+00
        -11   -1    0    0    0    0  0.00000000000E+00  0.00000000000E+00  0.45593999997E+02  0.45594000000E+02  0.51100000000E-03 0.  1.
         11   -1    0    0    0    0 -0.00000000000E+00 -0.00000000000E+00 -0.45593999997E+02  0.45594000000E+02  0.51100000000E-03 0. -1.
    9900012    2    1    2    0    0  0.21444271559E+02  0.36452156053E+02 -0.97471406267E+01  0.47787271735E+02  0.20000003147E+02 0.  0.
         12    1    1    2    0    0 -0.21444271559E+02 -0.36452156053E+02  0.97471406267E+01  0.43400728265E+02  0.00000000000E+00 0. -1.
         11    1    3    3    0    0  0.56528868828E+01  0.10104843331E+01 -0.77033316863E-01  0.57430081917E+01  0.51100000000E-03 0. -1.
        -11    1    3    3    0    0  0.35845721758E+01  0.12588841929E+02  0.26511755316E+01  0.13355030167E+02  0.51100000000E-03 0.  1.
         12    1    3    3    0    0  0.12206812500E+02  0.22852829790E+02 -0.12321282841E+02  0.28689233376E+02  0.00000000000E+00 0. -1.
</event>
<event>
 7    1  0.4875579E-009  0.4778727E+02  0.7816164E-02  0.1312668E+00
        -11   -1    0    0    0    0  0.00000000000E+00  0.00000000000E+00  0.45593999997E+02  0.45594000000E+02  0.51100000000E-03 0.  1.
         11   -1    0    0    0    0 -0.00000000000E+00 -0.00000000000E+00 -0.45593999997E+02  0.45594000000E+02  0.51100000000E-03 0. -1.
    9900012    2    1    2    0    0 -0.34666436410E+02  0.23029412890E+02  0.12308842726E+02  0.47787270966E+02  0.19999999642E+02 0.  0.
         12    1    1    2    0    0  0.34666436410E+02 -0.23029412890E+02 -0.12308842726E+02  0.43400729034E+02  0.00000000000E+00 0. -1.
         11    1    3    3    0    0  0.11274041942E+00  0.76973890794E+00  0.49664542186E-02  0.77796742564E+00  0.51100000000E-03 0. -1.
        -11    1    3    3    0    0 -0.36398539098E+02  0.20999461748E+02  0.87765137035E+01  0.42928524727E+02  0.51100000000E-03 0.  1.
        -12    1    3    3    0    0  0.16193622686E+01  0.12602122337E+01  0.35273625687E+01  0.40807788131E+01  0.00000000000E+00 0.  1.
</event>
<event>
 7    1  0.4875579E-009  0.4778727E+02  0.7816164E-02  0.1312668E+00
        -11   -1    0    0    0    0  0.00000000000E+00  0.00000000000E+00  0.45593999997E+02  0.45594000000E+02  0.51100000000E-03 0. -1.
         11   -1    0    0    0    0 -0.00000000000E+00 -0.00000000000E+00 -0.45593999997E+02  0.45594000000E+02  0.51100000000E-03 0.  1.
    9900012    2    1    2    0    0  0.10588972314E+02 -0.37773282404E+02 -0.18565455041E+02  0.47787270523E+02  0.19999997621E+02 0.  0.
         12    1    1    2    0    0 -0.10588972314E+02  0.37773282404E+02  0.18565455041E+02  0.43400729477E+02  0.00000000000E+00 0. -1.
         11    1    3    3    0    0  0.45103968413E+01 -0.54756850585E+01 -0.31034919912E+01  0.77432854349E+01  0.51100000000E-03 0. -1.
        -11    1    3    3    0    0 -0.27457778913E+01 -0.11632422137E+01  0.16807807144E+01  0.34230765032E+01  0.51100000000E-03 0.  1.
        -12    1    3    3    0    0  0.88243533636E+01 -0.31134355132E+02 -0.17142743765E+02  0.36620908585E+02  0.00000000000E+00 0.  1.
</event>
<event>
 7    1  0.4875579E-009  0.4778727E+02  0.7816164E-02  0.1312668E+00
        -11   -1    0    0    0    0  0.00000000000E+00  0.00000000000E+00  0.45593999997E+02  0.45594000000E+02  0.51100000000E-03 0.  1.
         11   -1    0    0    0    0 -0.00000000000E+00 -0.00000000000E+00 -0.45593999997E+02  0.45594000000E+02  0.51100000000E-03 0. -1.
    9900012    2    1    2    0    0  0.41002444804E+01  0.23964998820E+02  0.35951218774E+02  0.47787270691E+02  0.19999998387E+02 0.  0.
         12    1    1    2    0    0 -0.41002444804E+01 -0.23964998820E+02 -0.35951218774E+02  0.43400729309E+02  0.00000000000E+00 0. -1.
         11    1    3    3    0    0  0.14692731589E-01  0.38380432224E+00 -0.57943122242E+00  0.69517079684E+00  0.51100000000E-03 0. -1.
        -11    1    3    3    0    0  0.10674365335E+01  0.25499017167E+02  0.28242498494E+02  0.38065443892E+02  0.51100000000E-03 0.  1.
        -12    1    3    3    0    0  0.30181152153E+01 -0.19178226697E+01  0.82881515025E+01  0.90266560017E+01  0.00000000000E+00 0.  1.
</event>
<event>
 7    1  0.4875579E-009  0.4778726E+02  0.7816164E-02  0.1312668E+00
        -11   -1    0    0    0    0  0.00000000000E+00  0.00000000000E+00  0.45593999997E+02  0.45594000000E+02  0.51100000000E-03 0. -1.
         11   -1    0    0    0    0 -0.00000000000E+00 -0.00000000000E+00 -0.45593999997E+02  0.45594000000E+02  0.51100000000E-03 0.  1.
    9900012    2    1    2    0    0  0.16938970647E+02  0.31943726131E+02 -0.24006125458E+02  0.47787257781E+02  0.19999939525E+02 0.  0.
         12    1    1    2    0    0 -0.16938970647E+02 -0.31943726131E+02  0.24006125458E+02  0.43400742219E+02  0.00000000000E+00 0. -1.
         11    1    3    3    0    0 -0.36581805997E+00  0.19317115810E+01 -0.71122179714E+00  0.20907341273E+01  0.51100000000E-03 0. -1.
        -11    1    3    3    0    0 -0.40383587018E+01  0.51533534490E+01 -0.40470350330E+01  0.76970049756E+01  0.51100000000E-03 0.  1.
         12    1    3    3    0    0  0.21343147408E+02  0.24858661101E+02 -0.19247868628E+02  0.37999518678E+02  0.00000000000E+00 0. -1.
</event>
<event>
 7    1  0.4875579E-009  0.4778727E+02  0.7816164E-02  0.1312668E+00
        -11   -1    0    0    0    0  0.00000000000E+00  0.00000000000E+00  0.45593999997E+02  0.45594000000E+02  0.51100000000E-03 0.  1.
         11   -1    0    0    0    0 -0.00000000000E+00 -0.00000000000E+00 -0.45593999997E+02  0.45594000000E+02  0.51100000000E-03 0. -1.
    9900012    2    1    2    0    0  0.40250017060E+02  0.15524163600E+02 -0.47497192998E+01  0.47787270027E+02  0.19999995359E+02 0.  0.
         12    1    1    2    0    0 -0.40250017060E+02 -0.15524163600E+02  0.47497192998E+01  0.43400729973E+02  0.00000000000E+00 0. -1.
         11    1    3    3    0    0  0.16529355114E+02 -0.28680330445E+01  0.11108884090E+01  0.16813068350E+02  0.51100000000E-03 0.  1.
        -11    1    3    3    0    0  0.19088363577E+01  0.12339360403E+01 -0.18570633640E+01  0.29351216314E+01  0.51100000000E-03 0. -1.
        -12    1    3    3    0    0  0.21811825588E+02  0.17158260604E+02 -0.40035443448E+01  0.28039080045E+02  0.00000000000E+00 0.  1.
</event>
<event>
 7    1  0.4875579E-009  0.4778727E+02  0.7816164E-02  0.1312668E+00
        -11   -1    0    0    0    0  0.00000000000E+00  0.00000000000E+00  0.45593999997E+02  0.45594000000E+02  0.51100000000E-03 0.  1.
         11   -1    0    0    0    0 -0.00000000000E+00 -0.00000000000E+00 -0.45593999997E+02  0.45594000000E+02  0.51100000000E-03 0. -1.
    9900012    2    1    2    0    0  0.20634294254E+02 -0.38159708215E+02 -0.12983036071E+01  0.47787273939E+02  0.20000013196E+02 0.  0.
         12    1    1    2    0    0 -0.20634294254E+02  0.38159708215E+02  0.12983036071E+01  0.43400726061E+02  0.00000000000E+00 0. -1.
         11    1    3    3    0    0  0.75631998860E+00 -0.10655746055E+02 -0.28673804213E+01  0.11060687802E+02  0.51100000000E-03 0. -1.
        -11    1    3    3    0    0  0.15579912519E+02 -0.21789301218E+02 -0.47257689992E+01  0.27200003944E+02  0.51100000000E-03 0.  1.
         12    1    3    3    0    0  0.42980617470E+01 -0.57146609415E+01  0.62948458133E+01  0.95265821925E+01  0.00000000000E+00 0. -1.
</event>
<event>
 7    1  0.4875579E-009  0.4778727E+02  0.7816164E-02  0.1312668E+00
        -11   -1    0    0    0    0  0.00000000000E+00  0.00000000000E+00  0.45593999997E+02  0.45594000000E+02  0.51100000000E-03 0. -1.
         11   -1    0    0    0    0 -0.00000000000E+00 -0.00000000000E+00 -0.45593999997E+02  0.45594000000E+02  0.51100000000E-03 0.  1.
    9900012    2    1    2    0    0 -0.11393366581E+00  0.31770873744E+02 -0.29567242092E+02  0.47787271847E+02  0.20000003659E+02 0.  0.
         12    1    1    2    0    0  0.11393366581E+00 -0.31770873744E+02  0.29567242092E+02  0.43400728153E+02  0.00000000000E+00 0. -1.
         11    1    3    3    0    0  0.21715219964E+01 -0.22562762552E+01 -0.26080559415E+01  0.40753216286E+01  0.51100000000E-03 0. -1.
        -11    1    3    3    0    0 -0.30253908960E+01  0.12236431916E+02 -0.98014338992E+01  0.15967196462E+02  0.51100000000E-03 0.  1.
         12    1    3    3    0    0  0.73993523373E+00  0.21790718083E+02 -0.17157752251E+02  0.27744753757E+02  0.00000000000E+00 0. -1.
</event>
<event>
 7    1  0.4875579E-009  0.4778727E+02  0.7816164E-02  0.1312668E+00
        -11   -1    0    0    0    0  0.00000000000E+00  0.00000000000E+00  0.45593999997E+02  0.45594000000E+02  0.51100000000E-03 0.  1.
         11   -1    0    0    0    0 -0.00000000000E+00 -0.00000000000E+00 -0.45593999997E+02  0.45594000000E+02  0.51100000000E-03 0. -1.
    9900012    2    1    2    0    0 -0.27960074614E+02 -0.27171377956E+02  0.19067605210E+02  0.47787272807E+02  0.20000008036E+02 0.  0.
         12    1    1    2    0    0  0.27960074614E+02  0.27171377956E+02 -0.19067605210E+02  0.43400727193E+02  0.00000000000E+00 0. -1.
         11    1    3    3    0    0 -0.14014282933E+02 -0.79377705128E+01  0.11629983702E+02  0.19866173462E+02  0.51100000000E-03 0.  1.
        -11    1    3    3    0    0 -0.67294877991E+00  0.32489175362E+00  0.39598193396E+01  0.40297126666E+01  0.51100000000E-03 0. -1.
        -12    1    3    3    0    0 -0.13272842900E+02 -0.19558499197E+02  0.34778021681E+01  0.23891386678E+02  0.00000000000E+00 0.  1.
</event>
<event>
 7    1  0.4875579E-009  0.4778727E+02  0.7816164E-02  0.1312668E+00
        -11   -1    0    0    0    0  0.00000000000E+00  0.00000000000E+00  0.45593999997E+02  0.45594000000E+02  0.51100000000E-03 0. -1.
         11   -1    0    0    0    0 -0.00000000000E+00 -0.00000000000E+00 -0.45593999997E+02  0.45594000000E+02  0.51100000000E-03 0.  1.
    9900012    2    1    2    0    0 -0.35721152374E+02 -0.20223064470E+02  0.14094331786E+02  0.47787271297E+02  0.20000001151E+02 0.  0.
         12    1    1    2    0    0  0.35721152374E+02  0.20223064470E+02 -0.14094331786E+02  0.43400728703E+02  0.00000000000E+00 0. -1.
         11    1    3    3    0    0 -0.86578163970E+01 -0.63976463252E+01  0.69553097128E+01  0.12816551671E+02  0.51100000000E-03 0. -1.
        -11    1    3    3    0    0 -0.11025727406E+02 -0.13766220634E+02  0.68776769157E+01  0.18930872547E+02  0.51100000000E-03 0.  1.
        -12    1    3    3    0    0 -0.16037608571E+02 -0.59197510639E-01  0.26134515700E+00  0.16039847079E+02  0.00000000000E+00 0.  1.
</event>
<event>
 7    1  0.4875579E-009  0.4778728E+02  0.7816164E-02  0.1312668E+00
        -11   -1    0    0    0    0  0.00000000000E+00  0.00000000000E+00  0.45593999997E+02  0.45594000000E+02  0.51100000000E-03 0.  1.
         11   -1    0    0    0    0 -0.00000000000E+00 -0.00000000000E+00 -0.45593999997E+02  0.45594000000E+02  0.51100000000E-03 0. -1.
    9900012    2    1    2    0    0 -0.15145192469E+02  0.23207459119E+02  0.33401494751E+02  0.47787275752E+02  0.20000021462E+02 0.  0.
         12    1    1    2    0    0  0.15145192469E+02 -0.23207459119E+02 -0.33401494751E+02  0.43400724248E+02  0.00000000000E+00 0. -1.
         11    1    3    3    0    0  0.18371820394E+00  0.18425764733E+01  0.10495210322E+02  0.10657311124E+02  0.51100000000E-03 0. -1.
        -11    1    3    3    0    0 -0.20877549386E+01 -0.19105176517E+00 -0.10005711466E+01  0.23230076068E+01  0.51100000000E-03 0.  1.
        -12    1    3    3    0    0 -0.13241155734E+02  0.21555934411E+02  0.23906855576E+02  0.34806957021E+02  0.00000000000E+00 0.  1.
</event>
<event>
 7    1  0.4875579E-009  0.4778727E+02  0.7816164E-02  0.1312668E+00
        -11   -1    0    0    0    0  0.00000000000E+00  0.00000000000E+00  0.45593999997E+02  0.45594000000E+02  0.51100000000E-03 0.  1.
         11   -1    0    0    0    0 -0.00000000000E+00 -0.00000000000E+00 -0.45593999997E+02  0.45594000000E+02  0.51100000000E-03 0. -1.
    9900012    2    1    2    0    0  0.36657780260E+02 -0.14578857095E+02  0.18091081024E+02  0.47787272582E+02  0.20000007012E+02 0.  0.
         12    1    1    2    0    0 -0.36657780260E+02  0.14578857095E+02 -0.18091081024E+02  0.43400727418E+02  0.00000000000E+00 0. -1.
         11    1    3    3    0    0  0.43570679690E+01  0.24531449295E+01  0.43294509233E+01  0.66140839797E+01  0.51100000000E-03 0. -1.
        -11    1    3    3    0    0  0.16754404374E+02 -0.14559264086E+02  0.37324567500E+01  0.22508075669E+02  0.51100000000E-03 0.  1.
         12    1    3    3    0    0  0.15546307916E+02 -0.24727379389E+01  0.10029173351E+02  0.18665112934E+02  0.00000000000E+00 0. -1.
</event>
<event>
 7    1  0.4875579E-009  0.4778727E+02  0.7816164E-02  0.1312668E+00
        -11   -1    0    0    0    0  0.00000000000E+00  0.00000000000E+00  0.45593999997E+02  0.45594000000E+02  0.51100000000E-03 0.  1.
         11   -1    0    0    0    0 -0.00000000000E+00 -0.00000000000E+00 -0.45593999997E+02  0.45594000000E+02  0.51100000000E-03 0. -1.
    9900012    2    1    2    0    0 -0.10820904579E+02 -0.40917807672E+02  0.96054262286E+01  0.47787272199E+02  0.20000005265E+02 0.  0.
         12    1    1    2    0    0  0.10820904579E+02  0.40917807672E+02 -0.96054262286E+01  0.43400727801E+02  0.00000000000E+00 0. -1.
         11    1    3    3    0    0  0.28591267439E+01 -0.12307701188E+02  0.15876777675E+01  0.12734788386E+02  0.51100000000E-03 0. -1.
        -11    1    3    3    0    0 -0.33971318065E+01 -0.20467700152E+02  0.27970927596E+01  0.20935400216E+02  0.51100000000E-03 0.  1.
        -12    1    3    3    0    0 -0.10282899517E+02 -0.81424063317E+01  0.52206557015E+01  0.14117083597E+02  0.00000000000E+00 0.  1.
</event>
<event>
 7    1  0.4875579E-009  0.4778728E+02  0.7816164E-02  0.1312668E+00
        -11   -1    0    0    0    0  0.00000000000E+00  0.00000000000E+00  0.45593999997E+02  0.45594000000E+02  0.51100000000E-03 0. -1.
         11   -1    0    0    0    0 -0.00000000000E+00 -0.00000000000E+00 -0.45593999997E+02  0.45594000000E+02  0.51100000000E-03 0.  1.
    9900012    2    1    2    0    0  0.84567192007E+01  0.13984331257E+02 -0.40206282381E+02  0.47787276927E+02  0.20000026821E+02 0.  0.
         12    1    1    2    0    0 -0.84567192007E+01 -0.13984331257E+02  0.40206282381E+02  0.43400723073E+02  0.00000000000E+00 0. -1.
         11    1    3    3    0    0  0.35558277448E+01 -0.13868226938E+01 -0.86190406154E+01  0.94262956417E+01  0.51100000000E-03 0. -1.
        -11    1    3    3    0    0 -0.14375796964E+01 -0.12607853805E+01  0.20746941331E+00  0.19233457770E+01  0.51100000000E-03 0.  1.
        -12    1    3    3    0    0  0.63384711523E+01  0.16631939331E+02 -0.31794711179E+02  0.36437635508E+02  0.00000000000E+00 0.  1.
</event>
<event>
 7    1  0.4875579E-009  0.4778727E+02  0.7816164E-02  0.1312668E+00
        -11   -1    0    0    0    0  0.00000000000E+00  0.00000000000E+00  0.45593999997E+02  0.45594000000E+02  0.51100000000E-03 0. -1.
         11   -1    0    0    0    0 -0.00000000000E+00 -0.00000000000E+00 -0.45593999997E+02  0.45594000000E+02  0.51100000000E-03 0.  1.
    9900012    2    1    2    0    0  0.15351542688E+02 -0.86404415499E+01 -0.39664798934E+02  0.47787269965E+02  0.19999995078E+02 0.  0.
         12    1    1    2    0    0 -0.15351542688E+02  0.86404415499E+01  0.39664798934E+02  0.43400730035E+02  0.00000000000E+00 0. -1.
         11    1    3    3    0    0  0.45046294445E+01 -0.14734115771E+01 -0.13586211488E+01  0.49303630490E+01  0.51100000000E-03 0. -1.
        -11    1    3    3    0    0  0.11527389702E+02  0.47029456708E+00 -0.23806211067E+02  0.26454443407E+02  0.51100000000E-03 0.  1.
         12    1    3    3    0    0 -0.68047645884E+00 -0.76373245398E+01 -0.14499966718E+02  0.16402463509E+02  0.00000000000E+00 0. -1.
</event>
<event>
 7    1  0.4875579E-009  0.4778727E+02  0.7816164E-02  0.1312668E+00
        -11   -1    0    0    0    0  0.00000000000E+00  0.00000000000E+00  0.45593999997E+02  0.45594000000E+02  0.51100000000E-03 0. -1.
         11   -1    0    0    0    0 -0.00000000000E+00 -0.00000000000E+00 -0.45593999997E+02  0.45594000000E+02  0.51100000000E-03 0.  1.
    9900012    2    1    2    0    0  0.13664413316E+01 -0.33256374156E+02 -0.27852644257E+02  0.47787269867E+02  0.19999994633E+02 0.  0.
         12    1    1    2    0    0 -0.13664413316E+01  0.33256374156E+02  0.27852644257E+02  0.43400730133E+02  0.00000000000E+00 0. -1.
         11    1    3    3    0    0 -0.50596360770E+01 -0.19045957501E+02 -0.23870739978E+02  0.30954170022E+02  0.51100000000E-03 0.  1.
        -11    1    3    3    0    0  0.79069786485E+00 -0.58251669913E+01 -0.32169048472E+01  0.67012126251E+01  0.51100000000E-03 0. -1.
         12    1    3    3    0    0  0.56353795437E+01 -0.83852496634E+01 -0.76499943231E+00  0.10131887221E+02  0.00000000000E+00 0. -1.
</event>
<event>
 7    1  0.4875579E-009  0.4778724E+02  0.7816164E-02  0.1312668E+00
        -11   -1    0    0    0    0  0.00000000000E+00  0.00000000000E+00  0.45593999997E+02  0.45594000000E+02  0.51100000000E-03 0.  1.
         11   -1    0    0    0    0 -0.00000000000E+00 -0.00000000000E+00 -0.45593999997E+02  0.45594000000E+02  0.51100000000E-03 0. -1.
    9900012    2    1    2    0    0  0.36369054212E+01 -0.37078695469E+02  0.22261377596E+02  0.47787243426E+02  0.19999874075E+02 0.  0.
         12    1    1    2    0    0 -0.36369054212E+01  0.37078695469E+02 -0.22261377596E+02  0.43400756574E+02  0.00000000000E+00 0. -1.
         11    1    3    3    0    0 -0.37278531112E+01 -0.80457954189E+00  0.76576009499E+00  0.38898105150E+01  0.51100000000E-03 0. -1.
        -11    1    3    3    0    0 -0.25954119768E+00 -0.22439287492E+02  0.11662456153E+02  0.25290351294E+02  0.51100000000E-03 0.  1.
         12    1    3    3    0    0  0.76242997301E+01 -0.13834828435E+02  0.98331613483E+01  0.18607081617E+02  0.00000000000E+00 0. -1.
</event>
<event>
 7    1  0.4875579E-009  0.4778727E+02  0.7816164E-02  0.1312668E+00
        -11   -1    0    0    0    0  0.00000000000E+00  0.00000000000E+00  0.45593999997E+02  0.45594000000E+02  0.51100000000E-03 0.  1.
         11   -1    0    0    0    0 -0.00000000000E+00 -0.00000000000E+00 -0.45593999997E+02  0.45594000000E+02  0.51100000000E-03 0. -1.
    9900012    2    1    2    0    0  0.11374066811E+01 -0.42462438423E+02  0.89034358396E+01  0.47787267973E+02  0.19999985994E+02 0.  0.
         12    1    1    2    0    0 -0.11374066811E+01  0.42462438423E+02 -0.89034358396E+01  0.43400732027E+02  0.00000000000E+00 0. -1.
         11    1    3    3    0    0  0.23887349397E+01 -0.30712461950E+02  0.93782159378E+01  0.32201122777E+02  0.51100000000E-03 0.  1.
        -11    1    3    3    0    0  0.33050128180E+01 -0.97878499770E+01 -0.17160617443E+01  0.10472343819E+02  0.51100000000E-03 0. -1.
         12    1    3    3    0    0 -0.45563410766E+01 -0.19621264956E+01  0.12412816460E+01  0.51138013763E+01  0.00000000000E+00 0. -1.
</event>
<event>
 7    1  0.4875579E-009  0.4778726E+02  0.7816164E-02  0.1312668E+00
        -11   -1    0    0    0    0  0.00000000000E+00  0.00000000000E+00  0.45593999997E+02  0.45594000000E+02  0.51100000000E-03 0.  1.
         11   -1    0    0    0    0 -0.00000000000E+00 -0.00000000000E+00 -0.45593999997E+02  0.45594000000E+02  0.51100000000E-03 0. -1.
    9900012    2    1    2    0    0 -0.29256890437E+02  0.75265336516E+01  0.31161024966E+02  0.47787264709E+02  0.19999971114E+02 0.  0.
         12    1    1    2    0    0  0.29256890437E+02 -0.75265336516E+01 -0.31161024966E+02  0.43400735291E+02  0.00000000000E+00 0. -1.
         11    1    3    3    0    0  0.10890947554E+01 -0.27682387352E+01  0.33415952531E+01  0.44738721683E+01  0.51100000000E-03 0. -1.
        -11    1    3    3    0    0 -0.21508179645E+01  0.17791814029E+01 -0.11366201274E-01  0.27913498227E+01  0.51100000000E-03 0.  1.
        -12    1    3    3    0    0 -0.28195167228E+02  0.85155909840E+01  0.27830795915E+02  0.40522042718E+02  0.00000000000E+00 0.  1.
</event>
<event>
 7    1  0.4875579E-009  0.4778728E+02  0.7816164E-02  0.1312668E+00
        -11   -1    0    0    0    0  0.00000000000E+00  0.00000000000E+00  0.45593999997E+02  0.45594000000E+02  0.51100000000E-03 0.  1.
         11   -1    0    0    0    0 -0.00000000000E+00 -0.00000000000E+00 -0.45593999997E+02  0.45594000000E+02  0.51100000000E-03 0. -1.
    9900012    2    1    2    0    0 -0.67395709905E+01 -0.22659604511E+02  0.36397022121E+02  0.47787277506E+02  0.20000029460E+02 0.  0.
         12    1    1    2    0    0  0.67395709905E+01  0.22659604511E+02 -0.36397022121E+02  0.43400722494E+02  0.00000000000E+00 0. -1.
         11    1    3    3    0    0 -0.31219239369E+01 -0.41155885762E+01  0.35440246634E+01  0.62645502211E+01  0.51100000000E-03 0. -1.
        -11    1    3    3    0    0 -0.27118507927E+01 -0.16879818067E+02  0.12741094036E+02  0.21321769866E+02  0.51100000000E-03 0.  1.
         12    1    3    3    0    0 -0.90579626086E+00 -0.16641978672E+01  0.20111903422E+02  0.20200957419E+02  0.00000000000E+00 0. -1.
</event>
<event>
 7    1  0.4875579E-009  0.4778727E+02  0.7816164E-02  0.1312668E+00
        -11   -1    0    0    0    0  0.00000000000E+00  0.00000000000E+00  0.45593999997E+02  0.45594000000E+02  0.51100000000E-03 0. -1.
         11   -1    0    0    0    0 -0.00000000000E+00 -0.00000000000E+00 -0.45593999997E+02  0.45594000000E+02  0.51100000000E-03 0.  1.
    9900012    2    1    2    0    0 -0.10235600263E+02 -0.38246111502E+02  0.17778941007E+02  0.47787270731E+02  0.19999998571E+02 0.  0.
         12    1    1    2    0    0  0.10235600263E+02  0.38246111502E+02 -0.17778941007E+02  0.43400729269E+02  0.00000000000E+00 0. -1.
         11    1    3    3    0    0 -0.21905131802E+01 -0.77241208965E+01  0.10009385343E+02  0.12831530962E+02  0.51100000000E-03 0. -1.
        -11    1    3    3    0    0  0.29629840952E+01 -0.61488619140E+01  0.40977813614E+01  0.79611299407E+01  0.51100000000E-03 0.  1.
         12    1    3    3    0    0 -0.11008071178E+02 -0.24373128691E+02  0.36717743027E+01  0.26994609828E+02  0.00000000000E+00 0. -1.
</event>
<event>
 7    1  0.4875579E-009  0.4778727E+02  0.7816164E-02  0.1312668E+00
        -11   -1    0    0    0    0  0.00000000000E+00  0.00000000000E+00  0.45593999997E+02  0.45594000000E+02  0.51100000000E-03 0. -1.
         11   -1    0    0    0    0 -0.00000000000E+00 -0.00000000000E+00 -0.45593999997E+02  0.45594000000E+02  0.51100000000E-03 0.  1.
    9900012    2    1    2    0    0  0.30571013489E+01  0.43109555045E+02 -0.39804664651E+01  0.47787265926E+02  0.19999976664E+02 0.  0.
         12    1    1    2    0    0 -0.30571013489E+01 -0.43109555045E+02  0.39804664651E+01  0.43400734074E+02  0.00000000000E+00 0. -1.
         11    1    3    3    0    0  0.30120571908E+01  0.81238286021E+01 -0.50727397737E+01  0.10040008404E+02  0.51100000000E-03 0. -1.
        -11    1    3    3    0    0  0.20052548928E+01  0.13096461646E+01 -0.29197887741E+01  0.37764251624E+01  0.51100000000E-03 0.  1.
        -12    1    3    3    0    0 -0.19602107347E+01  0.33676080279E+02  0.40120620827E+01  0.33970832360E+02  0.00000000000E+00 0.  1.
</event>
<event>
 7    1  0.4875579E-009  0.4778727E+02  0.7816164E-02  0.1312668E+00
        -11   -1    0    0    0    0  0.00000000000E+00  0.00000000000E+00  0.45593999997E+02  0.45594000000E+02  0.51100000000E-03 0. -1.
         11   -1    0    0    0    0 -0.00000000000E+00 -0.00000000000E+00 -0.45593999997E+02  0.45594000000E+02  0.51100000000E-03 0.  1.
    9900012    2    1    2    0    0  0.25527859887E+02 -0.17664097689E+02 -0.30330364418E+02  0.47787274392E+02  0.20000015263E+02 0.  0.
         12    1    1    2    0    0 -0.25527859887E+02  0.17664097689E+02  0.30330364418E+02  0.43400725608E+02  0.00000000000E+00 0. -1.
         11    1    3    3    0    0  0.80049806953E+01 -0.62409495633E+01  0.61223881447E+00  0.10168775935E+02  0.51100000000E-03 0. -1.
        -11    1    3    3    0    0  0.11637773537E+02 -0.52449818723E+01 -0.16769544344E+02  0.21075227769E+02  0.51100000000E-03 0.  1.
        -12    1    3    3    0    0  0.58851056553E+01 -0.61781662537E+01 -0.14173058888E+02  0.16543270688E+02  0.00000000000E+00 0.  1.
</event>
<event>
 7    1  0.4875579E-009  0.4778727E+02  0.7816164E-02  0.1312668E+00
        -11   -1    0    0    0    0  0.00000000000E+00  0.00000000000E+00  0.45593999997E+02  0.45594000000E+02  0.51100000000E-03 0.  1.
         11   -1    0    0    0    0 -0.00000000000E+00 -0.00000000000E+00 -0.45593999997E+02  0.45594000000E+02  0.51100000000E-03 0. -1.
    9900012    2    1    2    0    0 -0.28017853814E+02  0.10365881843E+02  0.31482878469E+02  0.47787271026E+02  0.19999999918E+02 0.  0.
         12    1    1    2    0    0  0.28017853814E+02 -0.10365881843E+02 -0.31482878469E+02  0.43400728974E+02  0.00000000000E+00 0. -1.
         11    1    3    3    0    0 -0.13686809359E+02 -0.13878399380E+01  0.20866459249E+02  0.24993278535E+02  0.51100000000E-03 0. -1.
        -11    1    3    3    0    0 -0.83495062147E+00  0.26924894748E+01  0.47279506644E+01  0.55045580983E+01  0.51100000000E-03 0.  1.
         12    1    3    3    0    0 -0.13496093834E+02  0.90612323060E+01  0.58884685565E+01  0.17289434393E+02  0.00000000000E+00 0. -1.
</event>
<event>
 7    1  0.4875579E-009  0.4778727E+02  0.7816164E-02  0.1312668E+00
        -11   -1    0    0    0    0  0.00000000000E+00  0.00000000000E+00  0.45593999997E+02  0.45594000000E+02  0.51100000000E-03 0. -1.
         11   -1    0    0    0    0 -0.00000000000E+00 -0.00000000000E+00 -0.45593999997E+02  0.45594000000E+02  0.51100000000E-03 0.  1.
    9900012    2    1    2    0    0  0.26268917302E+02 -0.28768592854E+02 -0.19129434807E+02  0.47787271584E+02  0.20000002459E+02 0.  0.
         12    1    1    2    0    0 -0.26268917302E+02  0.28768592854E+02  0.19129434807E+02  0.43400728416E+02  0.00000000000E+00 0. -1.
         11    1    3    3    0    0 -0.13590951220E+01 -0.34728205386E+01 -0.12127004364E+01  0.39215130566E+01  0.51100000000E-03 0. -1.
        -11    1    3    3    0    0  0.53278370329E+01 -0.18686175498E+00 -0.64767010422E+01  0.83885887619E+01  0.51100000000E-03 0.  1.
        -12    1    3    3    0    0  0.22300175391E+02 -0.25108910560E+02 -0.11440033329E+02  0.35477169765E+02  0.00000000000E+00 0.  1.
</event>
<event>
 7    1  0.4875579E-009  0.4778726E+02  0.7816164E-02  0.1312668E+00
        -11   -1    0    0    0    0  0.00000000000E+00  0.00000000000E+00  0.45593999997E+02  0.45594000000E+02  0.51100000000E-03 0. -1.
         11   -1    0    0    0    0 -0.00000000000E+00 -0.00000000000E+00 -0.45593999997E+02  0.45594000000E+02  0.51100000000E-03 0.  1.
    9900012    2    1    2    0    0 -0.28006312864E+02 -0.31660318530E+02  0.98435305028E+01  0.47787257813E+02  0.19999939673E+02 0.  0.
         12    1    1    2    0    0  0.28006312864E+02  0.31660318530E+02 -0.98435305028E+01  0.43400742187E+02  0.00000000000E+00 0. -1.
         11    1    3    3    0    0  0.51381180558E+00 -0.56942040376E+01 -0.88237459857E+00  0.57850278639E+01  0.51100000000E-03 0. -1.
        -11    1    3    3    0    0 -0.84368328393E+01 -0.12110482100E+02 -0.12691922639E+01  0.14814006019E+02  0.51100000000E-03 0.  1.
         12    1    3    3    0    0 -0.20083291830E+02 -0.13855632392E+02  0.11995097365E+02  0.27188223931E+02  0.00000000000E+00 0. -1.
</event>
<event>
 7    1  0.4875579E-009  0.4778728E+02  0.7816164E-02  0.1312668E+00
        -11   -1    0    0    0    0  0.00000000000E+00  0.00000000000E+00  0.45593999997E+02  0.45594000000E+02  0.51100000000E-03 0.  1.
         11   -1    0    0    0    0 -0.00000000000E+00 -0.00000000000E+00 -0.45593999997E+02  0.45594000000E+02  0.51100000000E-03 0. -1.
    9900012    2    1    2    0    0 -0.25709076278E+02 -0.28353894923E+02  0.20462711872E+02  0.47787279527E+02  0.20000038676E+02 0.  0.
         12    1    1    2    0    0  0.25709076278E+02  0.28353894923E+02 -0.20462711872E+02  0.43400720473E+02  0.00000000000E+00 0. -1.
         11    1    3    3    0    0 -0.14816432869E+02 -0.13521794448E+02  0.90613392463E+01  0.22010758217E+02  0.51100000000E-03 0. -1.
        -11    1    3    3    0    0 -0.71593107131E+01 -0.14337992245E+02  0.13935399215E+02  0.21237445775E+02  0.51100000000E-03 0.  1.
         12    1    3    3    0    0 -0.37333326960E+01 -0.49410822966E+00 -0.25340265890E+01  0.45390755353E+01  0.00000000000E+00 0. -1.
</event>
<event>
 7    1  0.4875579E-009  0.4778728E+02  0.7816164E-02  0.1312668E+00
        -11   -1    0    0    0    0  0.00000000000E+00  0.00000000000E+00  0.45593999997E+02  0.45594000000E+02  0.51100000000E-03 0.  1.
         11   -1    0    0    0    0 -0.00000000000E+00 -0.00000000000E+00 -0.45593999997E+02  0.45594000000E+02  0.51100000000E-03 0. -1.
    9900012    2    1    2    0    0 -0.18126171782E+02 -0.64683422781E+01  0.38900196966E+02  0.47787275590E+02  0.20000020724E+02 0.  0.
         12    1    1    2    0    0  0.18126171782E+02  0.64683422781E+01 -0.38900196966E+02  0.43400724410E+02  0.00000000000E+00 0. -1.
         11    1    3    3    0    0 -0.11527872816E+00 -0.66935386665E+01  0.13614517589E+02  0.15171415178E+02  0.51100000000E-03 0. -1.
        -11    1    3    3    0    0 -0.10736795476E+02 -0.20686338164E+01  0.21455331370E+02  0.24080890087E+02  0.51100000000E-03 0.  1.
         12    1    3    3    0    0 -0.72740975778E+01  0.22938302047E+01  0.38303480082E+01  0.85349703247E+01  0.00000000000E+00 0. -1.
</event>
<event>
 7    1  0.4875579E-009  0.4778727E+02  0.7816164E-02  0.1312668E+00
        -11   -1    0    0    0    0  0.00000000000E+00  0.00000000000E+00  0.45593999997E+02  0.45594000000E+02  0.51100000000E-03 0. -1.
         11   -1    0    0    0    0 -0.00000000000E+00 -0.00000000000E+00 -0.45593999997E+02  0.45594000000E+02  0.51100000000E-03 0.  1.
    9900012    2    1    2    0    0  0.15107891485E+01 -0.26864596887E+02 -0.34053402014E+02  0.47787271452E+02  0.20000001858E+02 0.  0.
         12    1    1    2    0    0 -0.15107891485E+01  0.26864596887E+02  0.34053402014E+02  0.43400728548E+02  0.00000000000E+00 0. -1.
         11    1    3    3    0    0  0.78771659625E+00  0.16153123090E+01 -0.29327420527E+01  0.34395795528E+01  0.51100000000E-03 0. -1.
        -11    1    3    3    0    0 -0.55727674867E+01 -0.58520247444E+01 -0.87683782613E+01  0.11924193418E+02  0.51100000000E-03 0.  1.
         12    1    3    3    0    0  0.62958400390E+01 -0.22627884452E+02 -0.22352281700E+02  0.32423498481E+02  0.00000000000E+00 0. -1.
</event>
<event>
 7    1  0.4875579E-009  0.4778729E+02  0.7816164E-02  0.1312668E+00
        -11   -1    0    0    0    0  0.00000000000E+00  0.00000000000E+00  0.45593999997E+02  0.45594000000E+02  0.51100000000E-03 0.  1.
         11   -1    0    0    0    0 -0.00000000000E+00 -0.00000000000E+00 -0.45593999997E+02  0.45594000000E+02  0.51100000000E-03 0. -1.
    9900012    2    1    2    0    0  0.37645915864E+02 -0.96796245819E+01  0.19305736745E+02  0.47787290506E+02  0.20000088735E+02 0.  0.
         12    1    1    2    0    0 -0.37645915864E+02  0.96796245819E+01 -0.19305736745E+02  0.43400709494E+02  0.00000000000E+00 0. -1.
         11    1    3    3    0    0  0.15160050284E+02 -0.96160162829E+01  0.16504759191E+02  0.24386512050E+02  0.51100000000E-03 0. -1.
        -11    1    3    3    0    0  0.16248363350E+02 -0.64005183950E+00  0.45713912801E+01  0.16891317190E+02  0.51100000000E-03 0.  1.
         12    1    3    3    0    0  0.62375022291E+01  0.57644354046E+00 -0.17704137256E+01  0.65094612660E+01  0.00000000000E+00 0. -1.
</event>
<event>
 7    1  0.4875579E-009  0.4778727E+02  0.7816164E-02  0.1312668E+00
        -11   -1    0    0    0    0  0.00000000000E+00  0.00000000000E+00  0.45593999997E+02  0.45594000000E+02  0.51100000000E-03 0.  1.
         11   -1    0    0    0    0 -0.00000000000E+00 -0.00000000000E+00 -0.45593999997E+02  0.45594000000E+02  0.51100000000E-03 0. -1.
    9900012    2    1    2    0    0 -0.37947701531E+01 -0.45430700394E+01  0.42995154156E+02  0.47787273660E+02  0.20000011927E+02 0.  0.
         12    1    1    2    0    0  0.37947701531E+01  0.45430700394E+01 -0.42995154156E+02  0.43400726340E+02  0.00000000000E+00 0. -1.
         11    1    3    3    0    0 -0.35227363466E+01 -0.46149891597E+01  0.85842856139E+01  0.10363288864E+02  0.51100000000E-03 0. -1.
        -11    1    3    3    0    0 -0.11184190905E+00  0.24401074675E+01 -0.44883685277E+00  0.24835635380E+01  0.51100000000E-03 0.  1.
        -12    1    3    3    0    0 -0.16019189742E+00 -0.23681883473E+01  0.34859705395E+02  0.34940421258E+02  0.00000000000E+00 0.  1.
</event>
<event>
 7    1  0.4875579E-009  0.4778727E+02  0.7816164E-02  0.1312668E+00
        -11   -1    0    0    0    0  0.00000000000E+00  0.00000000000E+00  0.45593999997E+02  0.45594000000E+02  0.51100000000E-03 0. -1.
         11   -1    0    0    0    0 -0.00000000000E+00 -0.00000000000E+00 -0.45593999997E+02  0.45594000000E+02  0.51100000000E-03 0.  1.
    9900012    2    1    2    0    0 -0.17014000276E+02  0.16784275174E+02 -0.36227548916E+02  0.47787269604E+02  0.19999993431E+02 0.  0.
         12    1    1    2    0    0  0.17014000276E+02 -0.16784275174E+02  0.36227548916E+02  0.43400730396E+02  0.00000000000E+00 0. -1.
         11    1    3    3    0    0 -0.47554573689E+01  0.59307027796E+01 -0.11600305736E+02  0.13869199821E+02  0.51100000000E-03 0.  1.
        -11    1    3    3    0    0 -0.10109894382E+02 -0.10211101991E+01 -0.62394168759E+01  0.11924049382E+02  0.51100000000E-03 0. -1.
         12    1    3    3    0    0 -0.21486485245E+01  0.11874682594E+02 -0.18387826304E+02  0.21994020400E+02  0.00000000000E+00 0. -1.
</event>
<event>
 7    1  0.4875579E-009  0.4778727E+02  0.7816164E-02  0.1312668E+00
        -11   -1    0    0    0    0  0.00000000000E+00  0.00000000000E+00  0.45593999997E+02  0.45594000000E+02  0.51100000000E-03 0.  1.
         11   -1    0    0    0    0 -0.00000000000E+00 -0.00000000000E+00 -0.45593999997E+02  0.45594000000E+02  0.51100000000E-03 0. -1.
    9900012    2    1    2    0    0 -0.39064540492E+02 -0.13101478162E+02  0.13635846402E+02  0.47787270041E+02  0.19999995427E+02 0.  0.
         12    1    1    2    0    0  0.39064540492E+02  0.13101478162E+02 -0.13635846402E+02  0.43400729959E+02  0.00000000000E+00 0. -1.
         11    1    3    3    0    0 -0.31077288210E+01 -0.54537255424E+01  0.36694362459E+00  0.62877459079E+01  0.51100000000E-03 0. -1.
        -11    1    3    3    0    0 -0.32928167708E+01  0.24564698721E+01 -0.13357560885E+01  0.43198531350E+01  0.51100000000E-03 0.  1.
        -12    1    3    3    0    0 -0.32663994900E+02 -0.10104222491E+02  0.14604658866E+02  0.37179670999E+02  0.00000000000E+00 0.  1.
</event>
<event>
 7    1  0.4875579E-009  0.4778727E+02  0.7816164E-02  0.1312668E+00
        -11   -1    0    0    0    0  0.00000000000E+00  0.00000000000E+00  0.45593999997E+02  0.45594000000E+02  0.51100000000E-03 0. -1.
         11   -1    0    0    0    0 -0.00000000000E+00 -0.00000000000E+00 -0.45593999997E+02  0.45594000000E+02  0.51100000000E-03 0.  1.
    9900012    2    1    2    0    0 -0.74708134150E+00  0.12083661575E+02 -0.41677933895E+02  0.47787272111E+02  0.20000004862E+02 0.  0.
         12    1    1    2    0    0  0.74708134150E+00 -0.12083661575E+02  0.41677933895E+02  0.43400727889E+02  0.00000000000E+00 0. -1.
         11    1    3    3    0    0 -0.19530698661E+01  0.91184233572E+00 -0.32316327166E+01  0.38845062264E+01  0.51100000000E-03 0. -1.
        -11    1    3    3    0    0  0.57559714963E+00  0.46715250562E+00 -0.30615896373E+02  0.30624869869E+02  0.51100000000E-03 0.  1.
         12    1    3    3    0    0  0.63039137495E+00  0.10704666734E+02 -0.78304048053E+01  0.13277896015E+02  0.00000000000E+00 0. -1.
</event>
<event>
 7    1  0.4875579E-009  0.4778729E+02  0.7816164E-02  0.1312668E+00
        -11   -1    0    0    0    0  0.00000000000E+00  0.00000000000E+00  0.45593999997E+02  0.45594000000E+02  0.51100000000E-03 0.  1.
         11   -1    0    0    0    0 -0.00000000000E+00 -0.00000000000E+00 -0.45593999997E+02  0.45594000000E+02  0.51100000000E-03 0. -1.
    9900012    2    1    2    0    0  0.38268633664E+02 -0.15247631549E+01  0.20415895017E+02  0.47787285783E+02  0.20000067199E+02 0.  0.
         12    1    1    2    0    0 -0.38268633664E+02  0.15247631549E+01 -0.20415895017E+02  0.43400714217E+02  0.00000000000E+00 0. -1.
         11    1    3    3    0    0  0.11662394082E+00  0.29782176729E+00 -0.17376897396E+01  0.17668799736E+01  0.51100000000E-03 0. -1.
        -11    1    3    3    0    0  0.15313860243E+02 -0.39274048129E+01  0.28956235199E+01  0.16072444118E+02  0.51100000000E-03 0.  1.
        -12    1    3    3    0    0  0.22838149480E+02  0.21048198907E+01  0.19257961237E+02  0.29947961691E+02  0.00000000000E+00 0.  1.
</event>
<event>
 7    1  0.4875579E-009  0.4778727E+02  0.7816164E-02  0.1312668E+00
        -11   -1    0    0    0    0  0.00000000000E+00  0.00000000000E+00  0.45593999997E+02  0.45594000000E+02  0.51100000000E-03 0.  1.
         11   -1    0    0    0    0 -0.00000000000E+00 -0.00000000000E+00 -0.45593999997E+02  0.45594000000E+02  0.51100000000E-03 0. -1.
    9900012    2    1    2    0    0  0.32414289695E+02 -0.25701353792E+02  0.13129259513E+02  0.47787271682E+02  0.20000002907E+02 0.  0.
         12    1    1    2    0    0 -0.32414289695E+02  0.25701353792E+02 -0.13129259513E+02  0.43400728318E+02  0.00000000000E+00 0. -1.
         11    1    3    3    0    0  0.13092156116E+02 -0.83162992080E+01  0.59309154043E+01  0.16605455190E+02  0.51100000000E-03 0. -1.
        -11    1    3    3    0    0  0.20197101498E+02 -0.13835170202E+02  0.10131088207E+02  0.26494788016E+02  0.51100000000E-03 0.  1.
         12    1    3    3    0    0 -0.87496791984E+00 -0.35498843821E+01 -0.29327440986E+01  0.46870284760E+01  0.00000000000E+00 0. -1.
</event>
<event>
 7    1  0.4875579E-009  0.4778727E+02  0.7816164E-02  0.1312668E+00
        -11   -1    0    0    0    0  0.00000000000E+00  0.00000000000E+00  0.45593999997E+02  0.45594000000E+02  0.51100000000E-03 0. -1.
         11   -1    0    0    0    0 -0.00000000000E+00 -0.00000000000E+00 -0.45593999997E+02  0.45594000000E+02  0.51100000000E-03 0.  1.
    9900012    2    1    2    0    0 -0.12589744806E+02  0.30119800518E+02 -0.28599288870E+02  0.47787269806E+02  0.19999994352E+02 0.  0.
         12    1    1    2    0    0  0.12589744806E+02 -0.30119800518E+02  0.28599288870E+02  0.43400730194E+02  0.00000000000E+00 0. -1.
         11    1    3    3    0    0 -0.89424934399E+00 -0.17774402123E+01 -0.33669885093E+01  0.39109573611E+01  0.51100000000E-03 0. -1.
        -11    1    3    3    0    0 -0.56036872201E+01  0.30081517464E+01 -0.48862408133E+01  0.80203264857E+01  0.51100000000E-03 0.  1.
         12    1    3    3    0    0 -0.60918082419E+01  0.28889088984E+02 -0.20346059547E+02  0.35855985959E+02  0.00000000000E+00 0. -1.
</event>
<event>
 7    1  0.4875579E-009  0.4778727E+02  0.7816164E-02  0.1312668E+00
        -11   -1    0    0    0    0  0.00000000000E+00  0.00000000000E+00  0.45593999997E+02  0.45594000000E+02  0.51100000000E-03 0.  1.
         11   -1    0    0    0    0 -0.00000000000E+00 -0.00000000000E+00 -0.45593999997E+02  0.45594000000E+02  0.51100000000E-03 0. -1.
    9900012    2    1    2    0    0 -0.30275877769E+02  0.12200167556E+02  0.28603329256E+02  0.47787270656E+02  0.19999998230E+02 0.  0.
         12    1    1    2    0    0  0.30275877769E+02 -0.12200167556E+02 -0.28603329256E+02  0.43400729344E+02  0.00000000000E+00 0. -1.
         11    1    3    3    0    0 -0.69929226975E+01  0.73234500848E+01  0.15594769368E+02  0.18593835562E+02  0.51100000000E-03 0. -1.
        -11    1    3    3    0    0 -0.13997890634E+02  0.12288750864E+01  0.13108854110E+02  0.19217001132E+02  0.51100000000E-03 0.  1.
         12    1    3    3    0    0 -0.92850644375E+01  0.36478423848E+01 -0.10029422217E+00  0.99764339623E+01  0.00000000000E+00 0. -1.
</event>
<event>
 7    1  0.4875579E-009  0.4778727E+02  0.7816164E-02  0.1312668E+00
        -11   -1    0    0    0    0  0.00000000000E+00  0.00000000000E+00  0.45593999997E+02  0.45594000000E+02  0.51100000000E-03 0.  1.
         11   -1    0    0    0    0 -0.00000000000E+00 -0.00000000000E+00 -0.45593999997E+02  0.45594000000E+02  0.51100000000E-03 0. -1.
    9900012    2    1    2    0    0 -0.51316135861E+01 -0.10828863572E+01  0.43082676737E+02  0.47787272637E+02  0.20000007259E+02 0.  0.
         12    1    1    2    0    0  0.51316135861E+01  0.10828863572E+01 -0.43082676737E+02  0.43400727363E+02  0.00000000000E+00 0. -1.
         11    1    3    3    0    0  0.16971266628E+01 -0.68666669179E+00  0.22307891504E+02  0.22382890200E+02  0.51100000000E-03 0. -1.
        -11    1    3    3    0    0  0.26540547713E+01 -0.50511821136E+00  0.12592331418E+02  0.12878895991E+02  0.51100000000E-03 0.  1.
         12    1    3    3    0    0 -0.94827950201E+01  0.10889854595E+00  0.81824538143E+01  0.12525486446E+02  0.00000000000E+00 0. -1.
</event>
<event>
 7    1  0.4875579E-009  0.4778727E+02  0.7816164E-02  0.1312668E+00
        -11   -1    0    0    0    0  0.00000000000E+00  0.00000000000E+00  0.45593999997E+02  0.45594000000E+02  0.51100000000E-03 0.  1.
         11   -1    0    0    0    0 -0.00000000000E+00 -0.00000000000E+00 -0.45593999997E+02  0.45594000000E+02  0.51100000000E-03 0. -1.
    9900012    2    1    2    0    0 -0.34966554761E+02  0.19170955129E+02  0.17130018967E+02  0.47787273943E+02  0.20000013218E+02 0.  0.
         12    1    1    2    0    0  0.34966554761E+02 -0.19170955129E+02 -0.17130018967E+02  0.43400726057E+02  0.00000000000E+00 0. -1.
         11    1    3    3    0    0 -0.25677686332E+01 -0.97112980951E+00  0.42899108680E+01  0.50931193170E+01  0.51100000000E-03 0. -1.
        -11    1    3    3    0    0 -0.12070183239E+02  0.56257319610E+01  0.11638165124E+02  0.17685730723E+02  0.51100000000E-03 0.  1.
         12    1    3    3    0    0 -0.20328602890E+02  0.14516352977E+02  0.12019429753E+01  0.25008423903E+02  0.00000000000E+00 0. -1.
</event>
<event>
 7    1  0.4875579E-009  0.4778727E+02  0.7816164E-02  0.1312668E+00
        -11   -1    0    0    0    0  0.00000000000E+00  0.00000000000E+00  0.45593999997E+02  0.45594000000E+02  0.51100000000E-03 0. -1.
         11   -1    0    0    0    0 -0.00000000000E+00 -0.00000000000E+00 -0.45593999997E+02  0.45594000000E+02  0.51100000000E-03 0.  1.
    9900012    2    1    2    0    0  0.17415726000E+02  0.39720065293E+02 -0.16224589076E+01  0.47787268763E+02  0.19999989600E+02 0.  0.
         12    1    1    2    0    0 -0.17415726000E+02 -0.39720065293E+02  0.16224589076E+01  0.43400731237E+02  0.00000000000E+00 0. -1.
         11    1    3    3    0    0  0.27862085808E+01  0.42151058153E+01 -0.67019248581E+01  0.83932039386E+01  0.51100000000E-03 0. -1.
        -11    1    3    3    0    0  0.77544362842E+01  0.10314495467E+02  0.75256955272E+00  0.12926192789E+02  0.51100000000E-03 0.  1.
        -12    1    3    3    0    0  0.68750811353E+01  0.25190464010E+02  0.43268963977E+01  0.26467872036E+02  0.00000000000E+00 0.  1.
</event>
<event>
 7    1  0.4875579E-009  0.4778726E+02  0.7816164E-02  0.1312668E+00
        -11   -1    0    0    0    0  0.00000000000E+00  0.00000000000E+00  0.45593999997E+02  0.45594000000E+02  0.51100000000E-03 0.  1.
         11   -1    0    0    0    0 -0.00000000000E+00 -0.00000000000E+00 -0.45593999997E+02  0.45594000000E+02  0.51100000000E-03 0. -1.
    9900012    2    1    2    0    0  0.52368528828E+01  0.20603574944E+01  0.43034340392E+02  0.47787260904E+02  0.19999953766E+02 0.  0.
         12    1    1    2    0    0 -0.52368528828E+01 -0.20603574944E+01 -0.43034340392E+02  0.43400739096E+02  0.00000000000E+00 0. -1.
         11    1    3    3    0    0 -0.25888934399E+01 -0.98047712300E+00  0.53067511481E+01  0.59854250176E+01  0.51100000000E-03 0. -1.
        -11    1    3    3    0    0  0.99185141526E+01  0.75355394070E+00  0.10747576771E+02  0.14644288076E+02  0.51100000000E-03 0.  1.
        -12    1    3    3    0    0 -0.20927678299E+01  0.22872806767E+01  0.26980012472E+02  0.27157547810E+02  0.00000000000E+00 0.  1.
</event>
<event>
 7    1  0.4875579E-009  0.4778733E+02  0.7816164E-02  0.1312667E+00
        -11   -1    0    0    0    0  0.00000000000E+00  0.00000000000E+00  0.45593999997E+02  0.45594000000E+02  0.51100000000E-03 0. -1.
         11   -1    0    0    0    0 -0.00000000000E+00 -0.00000000000E+00 -0.45593999997E+02  0.45594000000E+02  0.51100000000E-03 0.  1.
    9900012    2    1    2    0    0  0.11691139843E+00  0.13206630321E+01 -0.43380412409E+02  0.47787331804E+02  0.20000277025E+02 0.  0.
         12    1    1    2    0    0 -0.11691139843E+00 -0.13206630321E+01  0.43380412409E+02  0.43400668196E+02  0.00000000000E+00 0. -1.
         11    1    3    3    0    0 -0.23424085984E+01  0.21505813356E+01 -0.45504610054E+01  0.55514478963E+01  0.51100000000E-03 0. -1.
        -11    1    3    3    0    0  0.88266513329E+01  0.10781158861E+01 -0.14457414831E+02  0.16973183304E+02  0.51100000000E-03 0.  1.
        -12    1    3    3    0    0 -0.63673313360E+01 -0.19080341896E+01 -0.24372536573E+02  0.25262700604E+02  0.00000000000E+00 0.  1.
</event>
<event>
 7    1  0.4875579E-009  0.4778731E+02  0.7816164E-02  0.1312668E+00
        -11   -1    0    0    0    0  0.00000000000E+00  0.00000000000E+00  0.45593999997E+02  0.45594000000E+02  0.51100000000E-03 0. -1.
         11   -1    0    0    0    0 -0.00000000000E+00 -0.00000000000E+00 -0.45593999997E+02  0.45594000000E+02  0.51100000000E-03 0.  1.
    9900012    2    1    2    0    0 -0.68804322288E+01 -0.36978748740E+02 -0.21652983495E+02  0.47787309910E+02  0.20000177202E+02 0.  0.
         12    1    1    2    0    0  0.68804322288E+01  0.36978748740E+02  0.21652983495E+02  0.43400690090E+02  0.00000000000E+00 0. -1.
         11    1    3    3    0    0 -0.66755900036E+01 -0.16182701068E+02 -0.84970492134E+01  0.19458755390E+02  0.51100000000E-03 0. -1.
        -11    1    3    3    0    0  0.14384398039E+01 -0.17396295839E+02 -0.32877558430E+01  0.17762588683E+02  0.51100000000E-03 0.  1.
         12    1    3    3    0    0 -0.16432820291E+01 -0.33997518340E+01 -0.98681784389E+01  0.10565965837E+02  0.00000000000E+00 0. -1.
</event>
<event>
 7    1  0.4875579E-009  0.4778727E+02  0.7816164E-02  0.1312668E+00
        -11   -1    0    0    0    0  0.00000000000E+00  0.00000000000E+00  0.45593999997E+02  0.45594000000E+02  0.51100000000E-03 0. -1.
         11   -1    0    0    0    0 -0.00000000000E+00 -0.00000000000E+00 -0.45593999997E+02  0.45594000000E+02  0.51100000000E-03 0.  1.
    9900012    2    1    2    0    0 -0.16120481127E+02 -0.75243699726E-02 -0.40295825869E+02  0.47787267854E+02  0.19999985453E+02 0.  0.
         12    1    1    2    0    0  0.16120481127E+02  0.75243699726E-02  0.40295825869E+02  0.43400732146E+02  0.00000000000E+00 0. -1.
         11    1    3    3    0    0 -0.74686722744E+01 -0.79855138826E+00 -0.12203906612E+02  0.14330180973E+02  0.51100000000E-03 0. -1.
        -11    1    3    3    0    0 -0.59389922297E+01  0.44903827879E+01 -0.27888361762E+02  0.28865132744E+02  0.51100000000E-03 0.  1.
         12    1    3    3    0    0 -0.27128166229E+01 -0.36993557696E+01 -0.20355749427E+00  0.45919541367E+01  0.00000000000E+00 0. -1.
</event>
<event>
 7    1  0.4875579E-009  0.4778727E+02  0.7816164E-02  0.1312668E+00
        -11   -1    0    0    0    0  0.00000000000E+00  0.00000000000E+00  0.45593999997E+02  0.45594000000E+02  0.51100000000E-03 0.  1.
         11   -1    0    0    0    0 -0.00000000000E+00 -0.00000000000E+00 -0.45593999997E+02  0.45594000000E+02  0.51100000000E-03 0. -1.
    9900012    2    1    2    0    0 -0.27671168004E+02 -0.71345222260E+01  0.32665397055E+02  0.47787272923E+02  0.20000008563E+02 0.  0.
         12    1    1    2    0    0  0.27671168004E+02  0.71345222260E+01 -0.32665397055E+02  0.43400727077E+02  0.00000000000E+00 0. -1.
         11    1    3    3    0    0 -0.10408126840E+02  0.69412110420E+01  0.12786279993E+02  0.17888501093E+02  0.51100000000E-03 0. -1.
        -11    1    3    3    0    0 -0.60108305076E+01 -0.59129981765E+01  0.75105644203E+01  0.11291687606E+02  0.51100000000E-03 0.  1.
         12    1    3    3    0    0 -0.11252210656E+02 -0.81627350915E+01  0.12368552642E+02  0.18607084223E+02  0.00000000000E+00 0. -1.
</event>
<event>
 7    1  0.4875579E-009  0.4778727E+02  0.7816164E-02  0.1312668E+00
        -11   -1    0    0    0    0  0.00000000000E+00  0.00000000000E+00  0.45593999997E+02  0.45594000000E+02  0.51100000000E-03 0. -1.
         11   -1    0    0    0    0 -0.00000000000E+00 -0.00000000000E+00 -0.45593999997E+02  0.45594000000E+02  0.51100000000E-03 0.  1.
    9900012    2    1    2    0    0 -0.27027272518E+02  0.24981707372E+02 -0.23001389242E+02  0.47787273393E+02  0.20000010707E+02 0.  0.
         12    1    1    2    0    0  0.27027272518E+02 -0.24981707372E+02  0.23001389242E+02  0.43400726607E+02  0.00000000000E+00 0. -1.
         11    1    3    3    0    0 -0.12529003663E+02  0.90460371278E+01 -0.27626973792E+01  0.15698382642E+02  0.51100000000E-03 0. -1.
        -11    1    3    3    0    0 -0.14949677220E+02  0.11887005012E+02 -0.11118204665E+02  0.22099959556E+02  0.51100000000E-03 0.  1.
         12    1    3    3    0    0  0.45140836620E+00  0.40486652318E+01 -0.91204871977E+01  0.99889311939E+01  0.00000000000E+00 0. -1.
</event>
<event>
 7    1  0.4875579E-009  0.4778727E+02  0.7816164E-02  0.1312668E+00
        -11   -1    0    0    0    0  0.00000000000E+00  0.00000000000E+00  0.45593999997E+02  0.45594000000E+02  0.51100000000E-03 0.  1.
         11   -1    0    0    0    0 -0.00000000000E+00 -0.00000000000E+00 -0.45593999997E+02  0.45594000000E+02  0.51100000000E-03 0. -1.
    9900012    2    1    2    0    0  0.36245541849E+02 -0.28781500865E+01  0.23698107446E+02  0.47787270186E+02  0.19999996088E+02 0.  0.
         12    1    1    2    0    0 -0.36245541849E+02  0.28781500865E+01 -0.23698107446E+02  0.43400729814E+02  0.00000000000E+00 0. -1.
         11    1    3    3    0    0 -0.83313907210E+00 -0.95681065803E+00  0.36223610891E+01  0.38381124879E+01  0.51100000000E-03 0. -1.
        -11    1    3    3    0    0  0.17239060675E+02 -0.50546822856E+01  0.14548605804E+02  0.23117027427E+02  0.51100000000E-03 0.  1.
         12    1    3    3    0    0  0.19839620246E+02  0.31333428572E+01  0.55271405535E+01  0.20832130272E+02  0.00000000000E+00 0. -1.
</event>
<event>
 7    1  0.4875579E-009  0.4778727E+02  0.7816164E-02  0.1312668E+00
        -11   -1    0    0    0    0  0.00000000000E+00  0.00000000000E+00  0.45593999997E+02  0.45594000000E+02  0.51100000000E-03 0.  1.
         11   -1    0    0    0    0 -0.00000000000E+00 -0.00000000000E+00 -0.45593999997E+02  0.45594000000E+02  0.51100000000E-03 0. -1.
    9900012    2    1    2    0    0 -0.63533665422E+01  0.87746030801E+01  0.42026949548E+02  0.47787269430E+02  0.19999992641E+02 0.  0.
         12    1    1    2    0    0  0.63533665422E+01 -0.87746030801E+01 -0.42026949548E+02  0.43400730570E+02  0.00000000000E+00 0. -1.
         11    1    3    3    0    0 -0.27715892360E+01  0.11525074777E+02  0.21292187014E+02  0.24369371834E+02  0.51100000000E-03 0. -1.
        -11    1    3    3    0    0 -0.38698604381E+01  0.14068837292E+01  0.17924909835E+02  0.18391778992E+02  0.51100000000E-03 0.  1.
         12    1    3    3    0    0  0.28808313197E+00 -0.41573554260E+01  0.28098527001E+01  0.50261186044E+01  0.00000000000E+00 0. -1.
</event>
<event>
 7    1  0.4875579E-009  0.4778727E+02  0.7816164E-02  0.1312668E+00
        -11   -1    0    0    0    0  0.00000000000E+00  0.00000000000E+00  0.45593999997E+02  0.45594000000E+02  0.51100000000E-03 0.  1.
         11   -1    0    0    0    0 -0.00000000000E+00 -0.00000000000E+00 -0.45593999997E+02  0.45594000000E+02  0.51100000000E-03 0. -1.
    9900012    2    1    2    0    0  0.24651753604E+02  0.27612894272E+02  0.22659267521E+02  0.47787270853E+02  0.19999999129E+02 0.  0.
         12    1    1    2    0    0 -0.24651753604E+02 -0.27612894272E+02 -0.22659267521E+02  0.43400729147E+02  0.00000000000E+00 0. -1.
         11    1    3    3    0    0  0.33909172483E+01 -0.11146444072E+01  0.42649521870E+01  0.55615258121E+01  0.51100000000E-03 0. -1.
        -11    1    3    3    0    0  0.45649781840E+00  0.91136996841E+01  0.67631329453E+01  0.11358163570E+02  0.51100000000E-03 0.  1.
        -12    1    3    3    0    0  0.20804338538E+02  0.19613838995E+02  0.11631182389E+02  0.30867581471E+02  0.00000000000E+00 0.  1.
</event>
<event>
 7    1  0.4875579E-009  0.4778727E+02  0.7816164E-02  0.1312668E+00
        -11   -1    0    0    0    0  0.00000000000E+00  0.00000000000E+00  0.45593999997E+02  0.45594000000E+02  0.51100000000E-03 0.  1.
         11   -1    0    0    0    0 -0.00000000000E+00 -0.00000000000E+00 -0.45593999997E+02  0.45594000000E+02  0.51100000000E-03 0. -1.
    9900012    2    1    2    0    0  0.39348117591E+02 -0.18277430569E+02  0.11333850051E+01  0.47787269733E+02  0.19999994018E+02 0.  0.
         12    1    1    2    0    0 -0.39348117591E+02  0.18277430569E+02 -0.11333850051E+01  0.43400730267E+02  0.00000000000E+00 0. -1.
         11    1    3    3    0    0  0.67159722216E+01 -0.37218341758E+01  0.28190025524E+01  0.81794320197E+01  0.51100000000E-03 0.  1.
        -11    1    3    3    0    0  0.21561426750E+02 -0.30764907309E+01  0.49490892258E+01  0.22335026375E+02  0.51100000000E-03 0. -1.
         12    1    3    3    0    0  0.11070718619E+02 -0.11479105663E+02 -0.66347067731E+01  0.17272811338E+02  0.00000000000E+00 0. -1.
</event>
<event>
 7    1  0.4875579E-009  0.4778727E+02  0.7816164E-02  0.1312668E+00
        -11   -1    0    0    0    0  0.00000000000E+00  0.00000000000E+00  0.45593999997E+02  0.45594000000E+02  0.51100000000E-03 0. -1.
         11   -1    0    0    0    0 -0.00000000000E+00 -0.00000000000E+00 -0.45593999997E+02  0.45594000000E+02  0.51100000000E-03 0.  1.
    9900012    2    1    2    0    0 -0.23724601177E+02  0.36334405832E+02 -0.75984876433E+00  0.47787272836E+02  0.20000008170E+02 0.  0.
         12    1    1    2    0    0  0.23724601177E+02 -0.36334405832E+02  0.75984876433E+00  0.43400727164E+02  0.00000000000E+00 0. -1.
         11    1    3    3    0    0 -0.16735672977E+01  0.90937428674E+01  0.35842099708E+01  0.99168315613E+01  0.51100000000E-03 0. -1.
        -11    1    3    3    0    0 -0.11230187568E+02  0.19270421919E+02  0.30820339506E+01  0.22515887886E+02  0.51100000000E-03 0.  1.
        -12    1    3    3    0    0 -0.10820846310E+02  0.79702410460E+01 -0.74260926857E+01  0.15354553389E+02  0.00000000000E+00 0.  1.
</event>
<event>
 7    1  0.4875579E-009  0.4778727E+02  0.7816164E-02  0.1312668E+00
        -11   -1    0    0    0    0  0.00000000000E+00  0.00000000000E+00  0.45593999997E+02  0.45594000000E+02  0.51100000000E-03 0.  1.
         11   -1    0    0    0    0 -0.00000000000E+00 -0.00000000000E+00 -0.45593999997E+02  0.45594000000E+02  0.51100000000E-03 0. -1.
    9900012    2    1    2    0    0  0.26560025772E+02  0.21346528524E+02  0.26879620023E+02  0.47787271647E+02  0.20000002746E+02 0.  0.
         12    1    1    2    0    0 -0.26560025772E+02 -0.21346528524E+02 -0.26879620023E+02  0.43400728353E+02  0.00000000000E+00 0. -1.
         11    1    3    3    0    0  0.58915599953E+00  0.97381698818E+01  0.34826697275E+01  0.10358959703E+02  0.51100000000E-03 0. -1.
        -11    1    3    3    0    0  0.86746023169E+01  0.70612087934E+01  0.10840863804E+02  0.15576704506E+02  0.51100000000E-03 0.  1.
        -12    1    3    3    0    0  0.17296267455E+02  0.45471498486E+01  0.12556086492E+02  0.21851607438E+02  0.00000000000E+00 0.  1.
</event>
<event>
 7    1  0.4875579E-009  0.4778727E+02  0.7816164E-02  0.1312668E+00
        -11   -1    0    0    0    0  0.00000000000E+00  0.00000000000E+00  0.45593999997E+02  0.45594000000E+02  0.51100000000E-03 0. -1.
         11   -1    0    0    0    0 -0.00000000000E+00 -0.00000000000E+00 -0.45593999997E+02  0.45594000000E+02  0.51100000000E-03 0.  1.
    9900012    2    1    2    0    0  0.11733562636E+02 -0.39460683863E+02 -0.13740503064E+02  0.47787268583E+02  0.19999988777E+02 0.  0.
         12    1    1    2    0    0 -0.11733562636E+02  0.39460683863E+02  0.13740503064E+02  0.43400731417E+02  0.00000000000E+00 0. -1.
         11    1    3    3    0    0  0.11620179341E+02 -0.31508960291E+02 -0.16613148741E+02  0.37467850991E+02  0.51100000000E-03 0.  1.
        -11    1    3    3    0    0 -0.24811377633E+00 -0.51455045878E+01 -0.12671997662E+01  0.53050516885E+01  0.51100000000E-03 0. -1.
         12    1    3    3    0    0  0.36149707140E+00 -0.28062189841E+01  0.41398454429E+01  0.50143659031E+01  0.00000000000E+00 0. -1.
</event>
<event>
 7    1  0.4875579E-009  0.4778727E+02  0.7816164E-02  0.1312668E+00
        -11   -1    0    0    0    0  0.00000000000E+00  0.00000000000E+00  0.45593999997E+02  0.45594000000E+02  0.51100000000E-03 0.  1.
         11   -1    0    0    0    0 -0.00000000000E+00 -0.00000000000E+00 -0.45593999997E+02  0.45594000000E+02  0.51100000000E-03 0. -1.
    9900012    2    1    2    0    0 -0.17546178972E+02  0.13862354410E+01  0.39671568960E+02  0.47787269257E+02  0.19999991853E+02 0.  0.
         12    1    1    2    0    0  0.17546178972E+02 -0.13862354410E+01 -0.39671568960E+02  0.43400730743E+02  0.00000000000E+00 0. -1.
         11    1    3    3    0    0 -0.65350393108E+00 -0.48965537608E+00 -0.59426747955E+00  0.10099425101E+01  0.51100000000E-03 0. -1.
        -11    1    3    3    0    0 -0.12184541206E+02  0.89486204955E+01  0.22831028996E+02  0.27382416592E+02  0.51100000000E-03 0.  1.
        -12    1    3    3    0    0 -0.47081338352E+01 -0.70727296784E+01  0.17434807444E+02  0.19394910155E+02  0.00000000000E+00 0.  1.
</event>
<event>
 7    1  0.4875579E-009  0.4778727E+02  0.7816164E-02  0.1312668E+00
        -11   -1    0    0    0    0  0.00000000000E+00  0.00000000000E+00  0.45593999997E+02  0.45594000000E+02  0.51100000000E-03 0. -1.
         11   -1    0    0    0    0 -0.00000000000E+00 -0.00000000000E+00 -0.45593999997E+02  0.45594000000E+02  0.51100000000E-03 0.  1.
    9900012    2    1    2    0    0 -0.36436807747E+02  0.55062196627E+01 -0.22927354793E+02  0.47787274067E+02  0.20000013779E+02 0.  0.
         12    1    1    2    0    0  0.36436807747E+02 -0.55062196627E+01  0.22927354793E+02  0.43400725933E+02  0.00000000000E+00 0. -1.
         11    1    3    3    0    0 -0.14716244566E+02  0.67004480582E+01 -0.60711868177E+01  0.17272034274E+02  0.51100000000E-03 0. -1.
        -11    1    3    3    0    0 -0.74995495451E+01  0.48514430516E+01 -0.10555235908E+02  0.13827246595E+02  0.51100000000E-03 0.  1.
         12    1    3    3    0    0 -0.14221013635E+02 -0.60456714470E+01 -0.63009320673E+01  0.16687993198E+02  0.00000000000E+00 0. -1.
</event>
<event>
 7    1  0.4875579E-009  0.4778725E+02  0.7816164E-02  0.1312668E+00
        -11   -1    0    0    0    0  0.00000000000E+00  0.00000000000E+00  0.45593999997E+02  0.45594000000E+02  0.51100000000E-03 0.  1.
         11   -1    0    0    0    0 -0.00000000000E+00 -0.00000000000E+00 -0.45593999997E+02  0.45594000000E+02  0.51100000000E-03 0. -1.
    9900012    2    1    2    0    0  0.16412176026E+02  0.12140073444E+02  0.38299928927E+02  0.47787245848E+02  0.19999885119E+02 0.  0.
         12    1    1    2    0    0 -0.16412176026E+02 -0.12140073444E+02 -0.38299928927E+02  0.43400754152E+02  0.00000000000E+00 0. -1.
         11    1    3    3    0    0 -0.56035653029E+00 -0.22427992266E+01  0.33594878118E+01  0.40780272719E+01  0.51100000000E-03 0. -1.
        -11    1    3    3    0    0  0.35233781979E+00  0.85021015284E+01  0.94572625353E+01  0.12722015849E+02  0.51100000000E-03 0.  1.
         12    1    3    3    0    0  0.16620194737E+02  0.58807711421E+01  0.25483178580E+02  0.30987202727E+02  0.00000000000E+00 0. -1.
</event>
<event>
 7    1  0.4875579E-009  0.4778727E+02  0.7816164E-02  0.1312668E+00
        -11   -1    0    0    0    0  0.00000000000E+00  0.00000000000E+00  0.45593999997E+02  0.45594000000E+02  0.51100000000E-03 0.  1.
         11   -1    0    0    0    0 -0.00000000000E+00 -0.00000000000E+00 -0.45593999997E+02  0.45594000000E+02  0.51100000000E-03 0. -1.
    9900012    2    1    2    0    0  0.58680425910E+01 -0.27070055742E+02  0.33412595349E+02  0.47787269941E+02  0.19999994969E+02 0.  0.
         12    1    1    2    0    0 -0.58680425910E+01  0.27070055742E+02 -0.33412595349E+02  0.43400730059E+02  0.00000000000E+00 0. -1.
         11    1    3    3    0    0 -0.10416623364E+01  0.37185612041E+00  0.48364971125E+00  0.12071680503E+01  0.51100000000E-03 0. -1.
        -11    1    3    3    0    0  0.20315044822E+01 -0.27617461942E+01  0.15744650700E+02  0.16113605383E+02  0.51100000000E-03 0.  1.
        -12    1    3    3    0    0  0.48782004453E+01 -0.24680165668E+02  0.17184294937E+02  0.30466496508E+02  0.00000000000E+00 0.  1.
</event>
<event>
 7    1  0.4875579E-009  0.4778727E+02  0.7816164E-02  0.1312668E+00
        -11   -1    0    0    0    0  0.00000000000E+00  0.00000000000E+00  0.45593999997E+02  0.45594000000E+02  0.51100000000E-03 0. -1.
         11   -1    0    0    0    0 -0.00000000000E+00 -0.00000000000E+00 -0.45593999997E+02  0.45594000000E+02  0.51100000000E-03 0.  1.
    9900012    2    1    2    0    0  0.14438886223E+02  0.20061725336E+02 -0.35674486353E+02  0.47787271488E+02  0.20000002022E+02 0.  0.
         12    1    1    2    0    0 -0.14438886223E+02 -0.20061725336E+02  0.35674486353E+02  0.43400728512E+02  0.00000000000E+00 0. -1.
         11    1    3    3    0    0 -0.29429371334E+01  0.12915015473E+01 -0.69263150838E+01  0.76356202184E+01  0.51100000000E-03 0. -1.
        -11    1    3    3    0    0  0.86121900549E+01  0.73552387923E+01 -0.20862616996E+02  0.23738537095E+02  0.51100000000E-03 0.  1.
        -12    1    3    3    0    0  0.87696333014E+01  0.11414984996E+02 -0.78855542738E+01  0.16413114175E+02  0.00000000000E+00 0.  1.
</event>
<event>
 7    1  0.4875579E-009  0.4778728E+02  0.7816164E-02  0.1312668E+00
        -11   -1    0    0    0    0  0.00000000000E+00  0.00000000000E+00  0.45593999997E+02  0.45594000000E+02  0.51100000000E-03 0.  1.
         11   -1    0    0    0    0 -0.00000000000E+00 -0.00000000000E+00 -0.45593999997E+02  0.45594000000E+02  0.51100000000E-03 0. -1.
    9900012    2    1    2    0    0  0.33119390868E+01  0.34174443355E+02  0.26547339418E+02  0.47787277088E+02  0.20000027554E+02 0.  0.
         12    1    1    2    0    0 -0.33119390868E+01 -0.34174443355E+02 -0.26547339418E+02  0.43400722912E+02  0.00000000000E+00 0. -1.
         11    1    3    3    0    0  0.19642558190E+01 -0.58613788081E+00 -0.24160645930E+00  0.20640330618E+01  0.51100000000E-03 0. -1.
        -11    1    3    3    0    0  0.11968755257E+01  0.19563326762E+01 -0.12113731254E+01  0.25936795627E+01  0.51100000000E-03 0.  1.
        -12    1    3    3    0    0  0.15080774203E+00  0.32804248560E+02  0.28000319003E+02  0.43129564463E+02  0.00000000000E+00 0.  1.
</event>
<event>
 7    1  0.4875579E-009  0.4778728E+02  0.7816164E-02  0.1312668E+00
        -11   -1    0    0    0    0  0.00000000000E+00  0.00000000000E+00  0.45593999997E+02  0.45594000000E+02  0.51100000000E-03 0.  1.
         11   -1    0    0    0    0 -0.00000000000E+00 -0.00000000000E+00 -0.45593999997E+02  0.45594000000E+02  0.51100000000E-03 0. -1.
    9900012    2    1    2    0    0  0.17529227984E+02  0.80733737601E+01  0.38873765026E+02  0.47787276447E+02  0.20000024633E+02 0.  0.
         12    1    1    2    0    0 -0.17529227984E+02 -0.80733737601E+01 -0.38873765026E+02  0.43400723553E+02  0.00000000000E+00 0. -1.
         11    1    3    3    0    0  0.39925702112E+01  0.24638213702E+01  0.14115584716E+01  0.48993397735E+01  0.51100000000E-03 0. -1.
        -11    1    3    3    0    0  0.59669665961E+01 -0.19968779187E+01  0.33517140640E+01  0.71292495544E+01  0.51100000000E-03 0.  1.
        -12    1    3    3    0    0  0.75696911768E+01  0.76064303086E+01  0.34110492491E+02  0.35758687119E+02  0.00000000000E+00 0.  1.
</event>
<event>
 7    1  0.4875579E-009  0.4778727E+02  0.7816164E-02  0.1312668E+00
        -11   -1    0    0    0    0  0.00000000000E+00  0.00000000000E+00  0.45593999997E+02  0.45594000000E+02  0.51100000000E-03 0.  1.
         11   -1    0    0    0    0 -0.00000000000E+00 -0.00000000000E+00 -0.45593999997E+02  0.45594000000E+02  0.51100000000E-03 0. -1.
    9900012    2    1    2    0    0  0.20564806674E+02  0.19346880564E+01  0.38170268738E+02  0.47787266055E+02  0.19999977253E+02 0.  0.
         12    1    1    2    0    0 -0.20564806674E+02 -0.19346880564E+01 -0.38170268738E+02  0.43400733945E+02  0.00000000000E+00 0. -1.
         11    1    3    3    0    0  0.10645117771E+02  0.75341352520E+00  0.12550108377E+02  0.16473960812E+02  0.51100000000E-03 0. -1.
        -11    1    3    3    0    0  0.66276317150E+01 -0.48829021818E+01  0.51472998510E+01  0.97089099225E+01  0.51100000000E-03 0.  1.
         12    1    3    3    0    0  0.32920571882E+01  0.60641767130E+01  0.20472860510E+02  0.21604395321E+02  0.00000000000E+00 0. -1.
</event>
<event>
 7    1  0.4875579E-009  0.4778726E+02  0.7816164E-02  0.1312668E+00
        -11   -1    0    0    0    0  0.00000000000E+00  0.00000000000E+00  0.45593999997E+02  0.45594000000E+02  0.51100000000E-03 0.  1.
         11   -1    0    0    0    0 -0.00000000000E+00 -0.00000000000E+00 -0.45593999997E+02  0.45594000000E+02  0.51100000000E-03 0. -1.
    9900012    2    1    2    0    0  0.23877918068E+02 -0.23951705485E+02  0.27198986266E+02  0.47787262440E+02  0.19999960767E+02 0.  0.
         12    1    1    2    0    0 -0.23877918068E+02  0.23951705485E+02 -0.27198986266E+02  0.43400737560E+02  0.00000000000E+00 0. -1.
         11    1    3    3    0    0  0.68241762227E+01 -0.88489106566E+01  0.49952845237E+01  0.12240321428E+02  0.51100000000E-03 0. -1.
        -11    1    3    3    0    0  0.93789856877E+01 -0.17383515937E+02  0.15693555218E+02  0.25227756034E+02  0.51100000000E-03 0.  1.
         12    1    3    3    0    0  0.76747561572E+01  0.22807211081E+01  0.65101465242E+01  0.10319184978E+02  0.00000000000E+00 0. -1.
</event>
<event>
 7    1  0.4875579E-009  0.4778727E+02  0.7816164E-02  0.1312668E+00
        -11   -1    0    0    0    0  0.00000000000E+00  0.00000000000E+00  0.45593999997E+02  0.45594000000E+02  0.51100000000E-03 0.  1.
         11   -1    0    0    0    0 -0.00000000000E+00 -0.00000000000E+00 -0.45593999997E+02  0.45594000000E+02  0.51100000000E-03 0. -1.
    9900012    2    1    2    0    0 -0.14184452478E+02 -0.22817874964E+02  0.34084733231E+02  0.47787272478E+02  0.20000006537E+02 0.  0.
         12    1    1    2    0    0  0.14184452478E+02  0.22817874964E+02 -0.34084733231E+02  0.43400727522E+02  0.00000000000E+00 0. -1.
         11    1    3    3    0    0 -0.72239041664E+01 -0.11621704473E+02  0.48942279090E+01  0.14532799915E+02  0.51100000000E-03 0. -1.
        -11    1    3    3    0    0  0.71283148191E+00  0.80550503780E+00  0.42789958029E+00  0.11576119382E+01  0.51100000000E-03 0.  1.
        -12    1    3    3    0    0 -0.76733797931E+01 -0.12001675529E+02  0.28762605742E+02  0.32096860625E+02  0.00000000000E+00 0.  1.
</event>
<event>
 7    1  0.4875579E-009  0.4778727E+02  0.7816164E-02  0.1312668E+00
        -11   -1    0    0    0    0  0.00000000000E+00  0.00000000000E+00  0.45593999997E+02  0.45594000000E+02  0.51100000000E-03 0. -1.
         11   -1    0    0    0    0 -0.00000000000E+00 -0.00000000000E+00 -0.45593999997E+02  0.45594000000E+02  0.51100000000E-03 0.  1.
    9900012    2    1    2    0    0  0.22182778630E+02 -0.37303405641E+02  0.61229926711E-01  0.47787268563E+02  0.19999988686E+02 0.  0.
         12    1    1    2    0    0 -0.22182778630E+02  0.37303405641E+02 -0.61229926711E-01  0.43400731437E+02  0.00000000000E+00 0. -1.
         11    1    3    3    0    0  0.65349095413E+01 -0.15157357034E+01 -0.87317908636E-01  0.67089583479E+01  0.51100000000E-03 0. -1.
        -11    1    3    3    0    0  0.91138026684E+01 -0.12854443462E+02  0.54072904307E+01  0.16659438942E+02  0.51100000000E-03 0.  1.
         12    1    3    3    0    0  0.65340664206E+01 -0.22933226475E+02 -0.52587425953E+01  0.24418871273E+02  0.00000000000E+00 0. -1.
</event>
<event>
 7    1  0.4875579E-009  0.4778727E+02  0.7816164E-02  0.1312668E+00
        -11   -1    0    0    0    0  0.00000000000E+00  0.00000000000E+00  0.45593999997E+02  0.45594000000E+02  0.51100000000E-03 0.  1.
         11   -1    0    0    0    0 -0.00000000000E+00 -0.00000000000E+00 -0.45593999997E+02  0.45594000000E+02  0.51100000000E-03 0. -1.
    9900012    2    1    2    0    0  0.16976705918E+00 -0.12518328875E+02  0.41555821772E+02  0.47787266114E+02  0.19999977521E+02 0.  0.
         12    1    1    2    0    0 -0.16976705918E+00  0.12518328875E+02 -0.41555821772E+02  0.43400733886E+02  0.00000000000E+00 0. -1.
         11    1    3    3    0    0  0.23889393179E+01  0.37552702634E+01  0.11006210105E+02  0.11872057402E+02  0.51100000000E-03 0. -1.
        -11    1    3    3    0    0 -0.33343216732E+00 -0.54569301195E+01  0.19831722800E+02  0.20571497097E+02  0.51100000000E-03 0.  1.
         12    1    3    3    0    0 -0.18857400914E+01 -0.10816669019E+02  0.10717888867E+02  0.15343711615E+02  0.00000000000E+00 0. -1.
</event>
<event>
 7    1  0.4875579E-009  0.4778727E+02  0.7816164E-02  0.1312668E+00
        -11   -1    0    0    0    0  0.00000000000E+00  0.00000000000E+00  0.45593999997E+02  0.45594000000E+02  0.51100000000E-03 0. -1.
         11   -1    0    0    0    0 -0.00000000000E+00 -0.00000000000E+00 -0.45593999997E+02  0.45594000000E+02  0.51100000000E-03 0.  1.
    9900012    2    1    2    0    0 -0.35143238205E+02  0.47994567307E+01 -0.25010823620E+02  0.47787271036E+02  0.19999999961E+02 0.  0.
         12    1    1    2    0    0  0.35143238205E+02 -0.47994567307E+01  0.25010823620E+02  0.43400728964E+02  0.00000000000E+00 0. -1.
         11    1    3    3    0    0 -0.39308930331E+00 -0.15906996302E+01 -0.30987089149E+01  0.35052591508E+01  0.51100000000E-03 0. -1.
        -11    1    3    3    0    0 -0.21384372161E+01  0.45401530565E+01 -0.12807438016E+00  0.50201899179E+01  0.51100000000E-03 0.  1.
        -12    1    3    3    0    0 -0.32611711686E+02  0.18500033044E+01 -0.21784040325E+02  0.39261821967E+02  0.00000000000E+00 0.  1.
</event>
<event>
 7    1  0.4875579E-009  0.4778728E+02  0.7816164E-02  0.1312668E+00
        -11   -1    0    0    0    0  0.00000000000E+00  0.00000000000E+00  0.45593999997E+02  0.45594000000E+02  0.51100000000E-03 0.  1.
         11   -1    0    0    0    0 -0.00000000000E+00 -0.00000000000E+00 -0.45593999997E+02  0.45594000000E+02  0.51100000000E-03 0. -1.
    9900012    2    1    2    0    0 -0.15707958976E+02  0.18380290994E+02  0.36042302482E+02  0.47787278343E+02  0.20000033275E+02 0.  0.
         12    1    1    2    0    0  0.15707958976E+02 -0.18380290994E+02 -0.36042302482E+02  0.43400721657E+02  0.00000000000E+00 0. -1.
         11    1    3    3    0    0 -0.45243906569E+01  0.34229010869E+00  0.52339770237E+01  0.69268888457E+01  0.51100000000E-03 0. -1.
        -11    1    3    3    0    0 -0.12356377026E+02  0.19994672354E+02  0.23634206747E+02  0.33332307219E+02  0.51100000000E-03 0.  1.
        -12    1    3    3    0    0  0.11728087070E+01 -0.19566714687E+01  0.71741187113E+01  0.75280822779E+01  0.00000000000E+00 0.  1.
</event>
<event>
 7    1  0.4875579E-009  0.4778727E+02  0.7816164E-02  0.1312668E+00
        -11   -1    0    0    0    0  0.00000000000E+00  0.00000000000E+00  0.45593999997E+02  0.45594000000E+02  0.51100000000E-03 0.  1.
         11   -1    0    0    0    0 -0.00000000000E+00 -0.00000000000E+00 -0.45593999997E+02  0.45594000000E+02  0.51100000000E-03 0. -1.
    9900012    2    1    2    0    0  0.11205624474E+02 -0.31912385050E+02  0.27196634098E+02  0.47787271369E+02  0.20000001480E+02 0.  0.
         12    1    1    2    0    0 -0.11205624474E+02  0.31912385050E+02 -0.27196634098E+02  0.43400728631E+02  0.00000000000E+00 0. -1.
         11    1    3    3    0    0 -0.55554842763E+01 -0.10637543806E+02  0.79371540142E+01  0.14388160337E+02  0.51100000000E-03 0. -1.
        -11    1    3    3    0    0  0.96117693613E+01 -0.13406620964E+02  0.99265087247E+01  0.19252510788E+02  0.51100000000E-03 0.  1.
         12    1    3    3    0    0  0.71493393886E+01 -0.78682202802E+01  0.93329713593E+01  0.14146600244E+02  0.00000000000E+00 0. -1.
</event>
<event>
 7    1  0.4875579E-009  0.4778727E+02  0.7816164E-02  0.1312668E+00
        -11   -1    0    0    0    0  0.00000000000E+00  0.00000000000E+00  0.45593999997E+02  0.45594000000E+02  0.51100000000E-03 0.  1.
         11   -1    0    0    0    0 -0.00000000000E+00 -0.00000000000E+00 -0.45593999997E+02  0.45594000000E+02  0.51100000000E-03 0. -1.
    9900012    2    1    2    0    0 -0.12049334463E+02  0.30528616461E+02  0.28397888812E+02  0.47787274511E+02  0.20000015803E+02 0.  0.
         12    1    1    2    0    0  0.12049334463E+02 -0.30528616461E+02 -0.28397888812E+02  0.43400725489E+02  0.00000000000E+00 0. -1.
         11    1    3    3    0    0  0.91161186340E+00 -0.69600786988E+00  0.26774546077E+01  0.29127695724E+01  0.51100000000E-03 0. -1.
        -11    1    3    3    0    0 -0.80932852609E+00  0.19106099621E+02  0.99021516869E+01  0.21534870877E+02  0.51100000000E-03 0.  1.
        -12    1    3    3    0    0 -0.12151617801E+02  0.12118524710E+02  0.15818282517E+02  0.23339634061E+02  0.00000000000E+00 0.  1.
</event>
<event>
 7    1  0.4875579E-009  0.4778727E+02  0.7816164E-02  0.1312668E+00
        -11   -1    0    0    0    0  0.00000000000E+00  0.00000000000E+00  0.45593999997E+02  0.45594000000E+02  0.51100000000E-03 0.  1.
         11   -1    0    0    0    0 -0.00000000000E+00 -0.00000000000E+00 -0.45593999997E+02  0.45594000000E+02  0.51100000000E-03 0. -1.
    9900012    2    1    2    0    0  0.25969949958E+02 -0.35092993222E+01  0.34595812645E+02  0.47787265730E+02  0.19999975772E+02 0.  0.
         12    1    1    2    0    0 -0.25969949958E+02  0.35092993222E+01 -0.34595812645E+02  0.43400734270E+02  0.00000000000E+00 0. -1.
         11    1    3    3    0    0 -0.85803988390E+00 -0.16178674531E+01  0.78166686034E+00  0.19911631977E+01  0.51100000000E-03 0. -1.
        -11    1    3    3    0    0  0.16164406202E+02 -0.77976149081E+01  0.24904003253E+02  0.30696908711E+02  0.51100000000E-03 0.  1.
         12    1    3    3    0    0  0.10663583640E+02  0.59061830390E+01  0.89101425320E+01  0.15099193822E+02  0.00000000000E+00 0. -1.
</event>
<event>
 7    1  0.4875579E-009  0.4778727E+02  0.7816164E-02  0.1312668E+00
        -11   -1    0    0    0    0  0.00000000000E+00  0.00000000000E+00  0.45593999997E+02  0.45594000000E+02  0.51100000000E-03 0.  1.
         11   -1    0    0    0    0 -0.00000000000E+00 -0.00000000000E+00 -0.45593999997E+02  0.45594000000E+02  0.51100000000E-03 0. -1.
    9900012    2    1    2    0    0 -0.32565928234E+02 -0.20624517812E+02  0.19942745179E+02  0.47787268416E+02  0.19999988017E+02 0.  0.
         12    1    1    2    0    0  0.32565928234E+02  0.20624517812E+02 -0.19942745179E+02  0.43400731584E+02  0.00000000000E+00 0. -1.
         11    1    3    3    0    0 -0.32683352097E+01  0.26040025660E+01  0.62735514087E+01  0.75379235832E+01  0.51100000000E-03 0. -1.
        -11    1    3    3    0    0 -0.97561338794E+01 -0.45411825576E+01  0.48996995468E+01  0.11824193131E+02  0.51100000000E-03 0.  1.
        -12    1    3    3    0    0 -0.19541459145E+02 -0.18687337821E+02  0.87694942233E+01  0.28425151702E+02  0.00000000000E+00 0.  1.
</event>
<event>
 7    1  0.4875579E-009  0.4778727E+02  0.7816164E-02  0.1312668E+00
        -11   -1    0    0    0    0  0.00000000000E+00  0.00000000000E+00  0.45593999997E+02  0.45594000000E+02  0.51100000000E-03 0. -1.
         11   -1    0    0    0    0 -0.00000000000E+00 -0.00000000000E+00 -0.45593999997E+02  0.45594000000E+02  0.51100000000E-03 0.  1.
    9900012    2    1    2    0    0 -0.89118490856E+01  0.40984457118E+02 -0.11156908766E+02  0.47787269676E+02  0.19999993763E+02 0.  0.
         12    1    1    2    0    0  0.89118490856E+01 -0.40984457118E+02  0.11156908766E+02  0.43400730324E+02  0.00000000000E+00 0. -1.
         11    1    3    3    0    0 -0.88943983055E+00  0.11386508710E+02  0.35741813742E+01  0.11967391386E+02  0.51100000000E-03 0. -1.
        -11    1    3    3    0    0  0.77730843160E+00  0.16277402301E+02 -0.46799859095E+01  0.16954654300E+02  0.51100000000E-03 0.  1.
        -12    1    3    3    0    0 -0.87997176867E+01  0.13320546107E+02 -0.10051104231E+02  0.18865223991E+02  0.00000000000E+00 0.  1.
</event>
<event>
 7    1  0.4875579E-009  0.4778727E+02  0.7816164E-02  0.1312668E+00
        -11   -1    0    0    0    0  0.00000000000E+00  0.00000000000E+00  0.45593999997E+02  0.45594000000E+02  0.51100000000E-03 0.  1.
         11   -1    0    0    0    0 -0.00000000000E+00 -0.00000000000E+00 -0.45593999997E+02  0.45594000000E+02  0.51100000000E-03 0. -1.
    9900012    2    1    2    0    0 -0.61658438044E+01 -0.26348204994E+02  0.33931957703E+02  0.47787270861E+02  0.19999999163E+02 0.  0.
         12    1    1    2    0    0  0.61658438044E+01  0.26348204994E+02 -0.33931957703E+02  0.43400729139E+02  0.00000000000E+00 0. -1.
         11    1    3    3    0    0  0.62084431178E+01 -0.31043653342E+01  0.56859917074E+01  0.89728675480E+01  0.51100000000E-03 0. -1.
        -11    1    3    3    0    0 -0.17362967422E+00 -0.28326428597E+01  0.28016932130E+01  0.39879190006E+01  0.51100000000E-03 0.  1.
         12    1    3    3    0    0 -0.12200657248E+02 -0.20411196800E+02  0.25444272783E+02  0.34826484312E+02  0.00000000000E+00 0. -1.
</event>
<event>
 7    1  0.4875579E-009  0.4778727E+02  0.7816164E-02  0.1312668E+00
        -11   -1    0    0    0    0  0.00000000000E+00  0.00000000000E+00  0.45593999997E+02  0.45594000000E+02  0.51100000000E-03 0.  1.
         11   -1    0    0    0    0 -0.00000000000E+00 -0.00000000000E+00 -0.45593999997E+02  0.45594000000E+02  0.51100000000E-03 0. -1.
    9900012    2    1    2    0    0 -0.23907462541E+02 -0.86904055596E+01  0.35164372907E+02  0.47787273787E+02  0.20000012503E+02 0.  0.
         12    1    1    2    0    0  0.23907462541E+02  0.86904055596E+01 -0.35164372907E+02  0.43400726213E+02  0.00000000000E+00 0. -1.
         11    1    3    3    0    0 -0.11386664329E+02 -0.11612721649E+01  0.13630859399E+02  0.17799016990E+02  0.51100000000E-03 0. -1.
        -11    1    3    3    0    0 -0.12515212891E+02 -0.11709787091E+01  0.19704248329E+02  0.23372187474E+02  0.51100000000E-03 0.  1.
         12    1    3    3    0    0 -0.55853212599E-02 -0.63581546855E+01  0.18292651788E+01  0.66160693236E+01  0.00000000000E+00 0. -1.
</event>
<event>
 7    1  0.4875579E-009  0.4778727E+02  0.7816164E-02  0.1312668E+00
        -11   -1    0    0    0    0  0.00000000000E+00  0.00000000000E+00  0.45593999997E+02  0.45594000000E+02  0.51100000000E-03 0.  1.
         11   -1    0    0    0    0 -0.00000000000E+00 -0.00000000000E+00 -0.45593999997E+02  0.45594000000E+02  0.51100000000E-03 0. -1.
    9900012    2    1    2    0    0  0.48264753959E+01 -0.12813895348E+02  0.41184128817E+02  0.47787271376E+02  0.20000001511E+02 0.  0.
         12    1    1    2    0    0 -0.48264753959E+01  0.12813895348E+02 -0.41184128817E+02  0.43400728624E+02  0.00000000000E+00 0. -1.
         11    1    3    3    0    0 -0.62009218307E+01 -0.84144977372E+01  0.24150007021E+02  0.26314977544E+02  0.51100000000E-03 0. -1.
        -11    1    3    3    0    0  0.10022438130E+01  0.16627105071E-01 -0.22763141790E+00  0.10279034220E+01  0.51100000000E-03 0.  1.
        -12    1    3    3    0    0  0.10025153414E+02 -0.44160247156E+01  0.17261753213E+02  0.20444390410E+02  0.00000000000E+00 0.  1.
</event>
<event>
 7    1  0.4875579E-009  0.4778727E+02  0.7816164E-02  0.1312668E+00
        -11   -1    0    0    0    0  0.00000000000E+00  0.00000000000E+00  0.45593999997E+02  0.45594000000E+02  0.51100000000E-03 0.  1.
         11   -1    0    0    0    0 -0.00000000000E+00 -0.00000000000E+00 -0.45593999997E+02  0.45594000000E+02  0.51100000000E-03 0. -1.
    9900012    2    1    2    0    0  0.19669906484E+01  0.38362211061E+02  0.20201367504E+02  0.47787267993E+02  0.19999986086E+02 0.  0.
         12    1    1    2    0    0 -0.19669906484E+01 -0.38362211061E+02 -0.20201367504E+02  0.43400732007E+02  0.00000000000E+00 0. -1.
         11    1    3    3    0    0 -0.32536665565E+01  0.65209653206E+01  0.42633068393E+01  0.84430515953E+01  0.51100000000E-03 0. -1.
        -11    1    3    3    0    0  0.36824021738E+01  0.32214849740E+02  0.11129047866E+02  0.34281370104E+02  0.51100000000E-03 0.  1.
        -12    1    3    3    0    0  0.15382550312E+01 -0.37360399913E+00  0.48090127995E+01  0.50628462938E+01  0.00000000000E+00 0.  1.
</event>
<event>
 7    1  0.4875579E-009  0.4778726E+02  0.7816164E-02  0.1312668E+00
        -11   -1    0    0    0    0  0.00000000000E+00  0.00000000000E+00  0.45593999997E+02  0.45594000000E+02  0.51100000000E-03 0. -1.
         11   -1    0    0    0    0 -0.00000000000E+00 -0.00000000000E+00 -0.45593999997E+02  0.45594000000E+02  0.51100000000E-03 0.  1.
    9900012    2    1    2    0    0  0.26842912038E+02 -0.18230298129E+02 -0.28822538621E+02  0.47787257736E+02  0.19999939319E+02 0.  0.
         12    1    1    2    0    0 -0.26842912038E+02  0.18230298129E+02  0.28822538621E+02  0.43400742264E+02  0.00000000000E+00 0. -1.
         11    1    3    3    0    0  0.69370043519E+01 -0.68962586033E+01 -0.39176588173E+01  0.10537004459E+02  0.51100000000E-03 0. -1.
        -11    1    3    3    0    0  0.11869466938E+02 -0.12686161812E+02 -0.23099190792E+02  0.28903210244E+02  0.51100000000E-03 0.  1.
         12    1    3    3    0    0  0.80364407487E+01  0.13521222861E+01 -0.18056890119E+01  0.83470430328E+01  0.00000000000E+00 0. -1.
</event>
<event>
 7    1  0.4875579E-009  0.4778727E+02  0.7816164E-02  0.1312668E+00
        -11   -1    0    0    0    0  0.00000000000E+00  0.00000000000E+00  0.45593999997E+02  0.45594000000E+02  0.51100000000E-03 0.  1.
         11   -1    0    0    0    0 -0.00000000000E+00 -0.00000000000E+00 -0.45593999997E+02  0.45594000000E+02  0.51100000000E-03 0. -1.
    9900012    2    1    2    0    0 -0.15722026237E+02  0.19747879137E+02  0.35305276400E+02  0.47787269810E+02  0.19999994370E+02 0.  0.
         12    1    1    2    0    0  0.15722026237E+02 -0.19747879137E+02 -0.35305276400E+02  0.43400730190E+02  0.00000000000E+00 0. -1.
         11    1    3    3    0    0 -0.10186889272E+02  0.71966116702E+01  0.14617572230E+02  0.19215549712E+02  0.51100000000E-03 0. -1.
        -11    1    3    3    0    0 -0.10845794291E+01  0.34207663160E+01  0.17590151828E+02  0.17952476050E+02  0.51100000000E-03 0.  1.
         12    1    3    3    0    0 -0.44505575353E+01  0.91305011505E+01  0.30975523423E+01  0.10619244048E+02  0.00000000000E+00 0. -1.
</event>
<event>
 7    1  0.4875579E-009  0.4778727E+02  0.7816164E-02  0.1312668E+00
        -11   -1    0    0    0    0  0.00000000000E+00  0.00000000000E+00  0.45593999997E+02  0.45594000000E+02  0.51100000000E-03 0.  1.
         11   -1    0    0    0    0 -0.00000000000E+00 -0.00000000000E+00 -0.45593999997E+02  0.45594000000E+02  0.51100000000E-03 0. -1.
    9900012    2    1    2    0    0  0.20447787453E+02  0.24486052702E+02  0.29426932427E+02  0.47787272579E+02  0.20000006997E+02 0.  0.
         12    1    1    2    0    0 -0.20447787453E+02 -0.24486052702E+02 -0.29426932427E+02  0.43400727421E+02  0.00000000000E+00 0. -1.
         11    1    3    3    0    0  0.92384445348E-01  0.74755830001E+00 -0.10428110709E+01  0.12864033148E+01  0.51100000000E-03 0. -1.
        -11    1    3    3    0    0  0.46427554781E+01  0.10024218926E+02  0.20278392596E+01  0.11231753016E+02  0.51100000000E-03 0.  1.
        -12    1    3    3    0    0  0.15712647529E+02  0.13714275476E+02  0.28441904238E+02  0.35269116248E+02  0.00000000000E+00 0.  1.
</event>
<event>
 7    1  0.4875579E-009  0.4778727E+02  0.7816164E-02  0.1312668E+00
        -11   -1    0    0    0    0  0.00000000000E+00  0.00000000000E+00  0.45593999997E+02  0.45594000000E+02  0.51100000000E-03 0.  1.
         11   -1    0    0    0    0 -0.00000000000E+00 -0.00000000000E+00 -0.45593999997E+02  0.45594000000E+02  0.51100000000E-03 0. -1.
    9900012    2    1    2    0    0  0.27945302966E+01 -0.15409655542E+02  0.40476612708E+02  0.47787273510E+02  0.20000011244E+02 0.  0.
         12    1    1    2    0    0 -0.27945302966E+01  0.15409655542E+02 -0.40476612708E+02  0.43400726490E+02  0.00000000000E+00 0. -1.
         11    1    3    3    0    0 -0.26136160150E+01 -0.58503299644E+01  0.64436116680E+01  0.90872152475E+01  0.51100000000E-03 0. -1.
        -11    1    3    3    0    0  0.59461512074E+00 -0.12403901485E+02  0.19387708143E+02  0.23023760911E+02  0.51100000000E-03 0.  1.
        -12    1    3    3    0    0  0.48135311908E+01  0.28445759078E+01  0.14645292897E+02  0.15676297352E+02  0.00000000000E+00 0.  1.
</event>
<event>
 7    1  0.4875579E-009  0.4778727E+02  0.7816164E-02  0.1312668E+00
        -11   -1    0    0    0    0  0.00000000000E+00  0.00000000000E+00  0.45593999997E+02  0.45594000000E+02  0.51100000000E-03 0. -1.
         11   -1    0    0    0    0 -0.00000000000E+00 -0.00000000000E+00 -0.45593999997E+02  0.45594000000E+02  0.51100000000E-03 0.  1.
    9900012    2    1    2    0    0  0.36424074310E+02  0.21720842607E+02 -0.92257964039E+01  0.47787268299E+02  0.19999987482E+02 0.  0.
         12    1    1    2    0    0 -0.36424074310E+02 -0.21720842607E+02  0.92257964039E+01  0.43400731701E+02  0.00000000000E+00 0. -1.
         11    1    3    3    0    0  0.15102108980E+01  0.19926612301E+01  0.29266037484E+00  0.25173569653E+01  0.51100000000E-03 0. -1.
        -11    1    3    3    0    0  0.24786488662E+01  0.85742205087E+01  0.18893850548E+01  0.91230879465E+01  0.51100000000E-03 0.  1.
         12    1    3    3    0    0  0.32435214546E+02  0.11153960868E+02 -0.11407841834E+02  0.36146823387E+02  0.00000000000E+00 0. -1.
</event>
<event>
 7    1  0.4875579E-009  0.4778727E+02  0.7816164E-02  0.1312668E+00
        -11   -1    0    0    0    0  0.00000000000E+00  0.00000000000E+00  0.45593999997E+02  0.45594000000E+02  0.51100000000E-03 0. -1.
         11   -1    0    0    0    0 -0.00000000000E+00 -0.00000000000E+00 -0.45593999997E+02  0.45594000000E+02  0.51100000000E-03 0.  1.
    9900012    2    1    2    0    0  0.41527866481E+02  0.10039849583E+02 -0.76328827830E+01  0.47787272199E+02  0.20000005264E+02 0.  0.
         12    1    1    2    0    0 -0.41527866481E+02 -0.10039849583E+02  0.76328827830E+01  0.43400727801E+02  0.00000000000E+00 0. -1.
         11    1    3    3    0    0  0.94164243007E+01  0.69114758874E+01 -0.33332501244E+01  0.12146937977E+02  0.51100000000E-03 0. -1.
        -11    1    3    3    0    0  0.14916811336E+02  0.86049463137E+01 -0.35256836707E+01  0.17578020569E+02  0.51100000000E-03 0.  1.
         12    1    3    3    0    0  0.17194630844E+02 -0.54765726183E+01 -0.77394898787E+00  0.18062313654E+02  0.00000000000E+00 0. -1.
</event>
<event>
 7    1  0.4875579E-009  0.4778727E+02  0.7816164E-02  0.1312668E+00
        -11   -1    0    0    0    0  0.00000000000E+00  0.00000000000E+00  0.45593999997E+02  0.45594000000E+02  0.51100000000E-03 0.  1.
         11   -1    0    0    0    0 -0.00000000000E+00 -0.00000000000E+00 -0.45593999997E+02  0.45594000000E+02  0.51100000000E-03 0. -1.
    9900012    2    1    2    0    0  0.40405223578E+02 -0.15229372880E+02 -0.43712248000E+01  0.47787268474E+02  0.19999988282E+02 0.  0.
         12    1    1    2    0    0 -0.40405223578E+02  0.15229372880E+02  0.43712248000E+01  0.43400731526E+02  0.00000000000E+00 0. -1.
         11    1    3    3    0    0  0.21180074934E+02  0.16042069728E+01 -0.18783413319E+00  0.21241570943E+02  0.51100000000E-03 0. -1.
        -11    1    3    3    0    0  0.85905507036E+01 -0.45592419508E+01  0.18765187815E+00  0.97272535716E+01  0.51100000000E-03 0.  1.
        -12    1    3    3    0    0  0.10634597941E+02 -0.12274337902E+02 -0.43710425449E+01  0.16818443960E+02  0.00000000000E+00 0.  1.
</event>
<event>
 7    1  0.4875579E-009  0.4778725E+02  0.7816164E-02  0.1312668E+00
        -11   -1    0    0    0    0  0.00000000000E+00  0.00000000000E+00  0.45593999997E+02  0.45594000000E+02  0.51100000000E-03 0.  1.
         11   -1    0    0    0    0 -0.00000000000E+00 -0.00000000000E+00 -0.45593999997E+02  0.45594000000E+02  0.51100000000E-03 0. -1.
    9900012    2    1    2    0    0 -0.28180484493E+02 -0.32641802803E+02  0.48987744521E+01  0.47787251301E+02  0.19999909982E+02 0.  0.
         12    1    1    2    0    0  0.28180484493E+02  0.32641802803E+02 -0.48987744521E+01  0.43400748699E+02  0.00000000000E+00 0. -1.
         11    1    3    3    0    0 -0.52539099540E+01 -0.87278294331E+01 -0.66185503786E+00  0.10208654601E+02  0.51100000000E-03 0. -1.
        -11    1    3    3    0    0  0.25423445004E+01 -0.40588503097E+01  0.15648120300E+01  0.50384936584E+01  0.51100000000E-03 0.  1.
        -12    1    3    3    0    0 -0.25468919039E+02 -0.19855123060E+02  0.39958174599E+01  0.32540103041E+02  0.00000000000E+00 0.  1.
</event>
<event>
 7    1  0.4875579E-009  0.4778727E+02  0.7816164E-02  0.1312668E+00
        -11   -1    0    0    0    0  0.00000000000E+00  0.00000000000E+00  0.45593999997E+02  0.45594000000E+02  0.51100000000E-03 0.  1.
         11   -1    0    0    0    0 -0.00000000000E+00 -0.00000000000E+00 -0.45593999997E+02  0.45594000000E+02  0.51100000000E-03 0. -1.
    9900012    2    1    2    0    0 -0.17390403894E+02  0.92304323856E+01  0.38678114381E+02  0.47787267728E+02  0.19999984879E+02 0.  0.
         12    1    1    2    0    0  0.17390403894E+02 -0.92304323856E+01 -0.38678114381E+02  0.43400732272E+02  0.00000000000E+00 0. -1.
         11    1    3    3    0    0 -0.67484194444E+01  0.52902855044E+01  0.80974366486E+01  0.11793929212E+02  0.51100000000E-03 0. -1.
        -11    1    3    3    0    0 -0.88166009915E+01  0.95796775546E+01  0.19967383044E+02  0.23836926417E+02  0.51100000000E-03 0.  1.
        -12    1    3    3    0    0 -0.18253834584E+01 -0.56395306734E+01  0.10613294688E+02  0.12156412099E+02  0.00000000000E+00 0.  1.
</event>
<event>
 7    1  0.4875579E-009  0.4778727E+02  0.7816164E-02  0.1312668E+00
        -11   -1    0    0    0    0  0.00000000000E+00  0.00000000000E+00  0.45593999997E+02  0.45594000000E+02  0.51100000000E-03 0. -1.
         11   -1    0    0    0    0 -0.00000000000E+00 -0.00000000000E+00 -0.45593999997E+02  0.45594000000E+02  0.51100000000E-03 0.  1.
    9900012    2    1    2    0    0 -0.37091886061E+02 -0.21502892084E+02  0.67409931072E+01  0.47787269965E+02  0.19999995078E+02 0.  0.
         12    1    1    2    0    0  0.37091886061E+02  0.21502892084E+02 -0.67409931072E+01  0.43400730035E+02  0.00000000000E+00 0. -1.
         11    1    3    3    0    0 -0.18311152772E+02 -0.11116509411E+02  0.94369532188E+01  0.23407929931E+02  0.51100000000E-03 0. -1.
        -11    1    3    3    0    0 -0.15506356674E+02 -0.90824306309E+01  0.24556505807E+01  0.18137471254E+02  0.51100000000E-03 0.  1.
         12    1    3    3    0    0 -0.32743766151E+01 -0.13039520421E+01 -0.51516106923E+01  0.62418687803E+01  0.00000000000E+00 0. -1.
</event>
<event>
 7    1  0.4875579E-009  0.4778727E+02  0.7816164E-02  0.1312668E+00
        -11   -1    0    0    0    0  0.00000000000E+00  0.00000000000E+00  0.45593999997E+02  0.45594000000E+02  0.51100000000E-03 0.  1.
         11   -1    0    0    0    0 -0.00000000000E+00 -0.00000000000E+00 -0.45593999997E+02  0.45594000000E+02  0.51100000000E-03 0. -1.
    9900012    2    1    2    0    0 -0.32717699989E+02 -0.57810463186E+01  0.27924094544E+02  0.47787269071E+02  0.19999991002E+02 0.  0.
         12    1    1    2    0    0  0.32717699989E+02  0.57810463186E+01 -0.27924094544E+02  0.43400730929E+02  0.00000000000E+00 0. -1.
         11    1    3    3    0    0 -0.12371962981E+01 -0.22377543738E+01 -0.17235628674E+01  0.30836453325E+01  0.51100000000E-03 0. -1.
        -11    1    3    3    0    0 -0.10889923080E+02 -0.36504896763E+01  0.48394401874E+01  0.12463413704E+02  0.51100000000E-03 0.  1.
         12    1    3    3    0    0 -0.20590580610E+02  0.10719773149E+00  0.24808217224E+02  0.32240210034E+02  0.00000000000E+00 0. -1.
</event>
<event>
 7    1  0.4875579E-009  0.4778727E+02  0.7816164E-02  0.1312668E+00
        -11   -1    0    0    0    0  0.00000000000E+00  0.00000000000E+00  0.45593999997E+02  0.45594000000E+02  0.51100000000E-03 0.  1.
         11   -1    0    0    0    0 -0.00000000000E+00 -0.00000000000E+00 -0.45593999997E+02  0.45594000000E+02  0.51100000000E-03 0. -1.
    9900012    2    1    2    0    0  0.30303165685E+02 -0.15153423968E+02  0.27124072751E+02  0.47787269233E+02  0.19999991739E+02 0.  0.
         12    1    1    2    0    0 -0.30303165685E+02  0.15153423968E+02 -0.27124072751E+02  0.43400730767E+02  0.00000000000E+00 0. -1.
         11    1    3    3    0    0  0.70665111861E+01 -0.31008541658E+01  0.29845866268E+01  0.82739733197E+01  0.51100000000E-03 0. -1.
        -11    1    3    3    0    0  0.55195030027E+01 -0.22996374548E+01  0.17073537777E+02  0.18090299564E+02  0.51100000000E-03 0.  1.
        -12    1    3    3    0    0  0.17717151497E+02 -0.97529323475E+01  0.70659483476E+01  0.21422996349E+02  0.00000000000E+00 0.  1.
</event>
<event>
 7    1  0.4875579E-009  0.4778726E+02  0.7816164E-02  0.1312668E+00
        -11   -1    0    0    0    0  0.00000000000E+00  0.00000000000E+00  0.45593999997E+02  0.45594000000E+02  0.51100000000E-03 0.  1.
         11   -1    0    0    0    0 -0.00000000000E+00 -0.00000000000E+00 -0.45593999997E+02  0.45594000000E+02  0.51100000000E-03 0. -1.
    9900012    2    1    2    0    0  0.67844867219E+01 -0.28269830567E+02  0.32224400596E+02  0.47787256065E+02  0.19999931703E+02 0.  0.
         12    1    1    2    0    0 -0.67844867219E+01  0.28269830567E+02 -0.32224400596E+02  0.43400743935E+02  0.00000000000E+00 0. -1.
         11    1    3    3    0    0 -0.28378317635E+01 -0.10914481017E+02  0.18608136129E+02  0.21758720446E+02  0.51100000000E-03 0. -1.
        -11    1    3    3    0    0 -0.13802367036E+01 -0.45363729890E+00 -0.35358073594E+00  0.14952791562E+01  0.51100000000E-03 0.  1.
        -12    1    3    3    0    0  0.11002555189E+02 -0.16901712250E+02  0.13969845203E+02  0.24533256463E+02  0.00000000000E+00 0.  1.
</event>
<event>
 7    1  0.4875579E-009  0.4778726E+02  0.7816164E-02  0.1312668E+00
        -11   -1    0    0    0    0  0.00000000000E+00  0.00000000000E+00  0.45593999997E+02  0.45594000000E+02  0.51100000000E-03 0. -1.
         11   -1    0    0    0    0 -0.00000000000E+00 -0.00000000000E+00 -0.45593999997E+02  0.45594000000E+02  0.51100000000E-03 0.  1.
    9900012    2    1    2    0    0  0.41448698251E+01 -0.13662995920E+02 -0.40984954788E+02  0.47787263573E+02  0.19999965937E+02 0.  0.
         12    1    1    2    0    0 -0.41448698251E+01  0.13662995920E+02  0.40984954788E+02  0.43400736427E+02  0.00000000000E+00 0. -1.
         11    1    3    3    0    0 -0.49347635359E+01 -0.67665293131E+00 -0.97810436638E+01  0.10976272854E+02  0.51100000000E-03 0. -1.
        -11    1    3    3    0    0 -0.82208518030E+00 -0.73386748464E+01 -0.17444223421E+02  0.18942885302E+02  0.51100000000E-03 0.  1.
        -12    1    3    3    0    0  0.99017185414E+01 -0.56476681420E+01 -0.13759687703E+02  0.17868105417E+02  0.00000000000E+00 0.  1.
</event>
<event>
 7    1  0.4875579E-009  0.4778727E+02  0.7816164E-02  0.1312668E+00
        -11   -1    0    0    0    0  0.00000000000E+00  0.00000000000E+00  0.45593999997E+02  0.45594000000E+02  0.51100000000E-03 0.  1.
         11   -1    0    0    0    0 -0.00000000000E+00 -0.00000000000E+00 -0.45593999997E+02  0.45594000000E+02  0.51100000000E-03 0. -1.
    9900012    2    1    2    0    0 -0.42689570513E+02  0.51237628322E+01  0.59136174347E+01  0.47787271351E+02  0.20000001396E+02 0.  0.
         12    1    1    2    0    0  0.42689570513E+02 -0.51237628322E+01 -0.59136174347E+01  0.43400728649E+02  0.00000000000E+00 0. -1.
         11    1    3    3    0    0 -0.51914703526E+01 -0.33490134993E+01  0.17758610091E+01  0.64281364659E+01  0.51100000000E-03 0. -1.
        -11    1    3    3    0    0 -0.19883181396E+02 -0.10056277176E+01  0.71022787220E+01  0.21137515295E+02  0.51100000000E-03 0.  1.
         12    1    3    3    0    0 -0.17614918764E+02  0.94784040491E+01 -0.29645222963E+01  0.20221619590E+02  0.00000000000E+00 0. -1.
</event>
<event>
 7    1  0.4875579E-009  0.4778727E+02  0.7816164E-02  0.1312668E+00
        -11   -1    0    0    0    0  0.00000000000E+00  0.00000000000E+00  0.45593999997E+02  0.45594000000E+02  0.51100000000E-03 0.  1.
         11   -1    0    0    0    0 -0.00000000000E+00 -0.00000000000E+00 -0.45593999997E+02  0.45594000000E+02  0.51100000000E-03 0. -1.
    9900012    2    1    2    0    0 -0.12831391897E+02 -0.20469983770E+02  0.36054942959E+02  0.47787265383E+02  0.19999974186E+02 0.  0.
         12    1    1    2    0    0  0.12831391897E+02  0.20469983770E+02 -0.36054942959E+02  0.43400734617E+02  0.00000000000E+00 0. -1.
         11    1    3    3    0    0  0.12210232779E+01  0.47770562130E+00  0.28511564657E+01  0.31381832258E+01  0.51100000000E-03 0. -1.
        -11    1    3    3    0    0 -0.14179998746E+01 -0.15011859312E+02  0.22376887744E+02  0.26983175296E+02  0.51100000000E-03 0.  1.
         12    1    3    3    0    0 -0.12634415301E+02 -0.59358300784E+01  0.10826898749E+02  0.17665906861E+02  0.00000000000E+00 0. -1.
</event>
<event>
 7    1  0.4875579E-009  0.4778727E+02  0.7816164E-02  0.1312668E+00
        -11   -1    0    0    0    0  0.00000000000E+00  0.00000000000E+00  0.45593999997E+02  0.45594000000E+02  0.51100000000E-03 0.  1.
         11   -1    0    0    0    0 -0.00000000000E+00 -0.00000000000E+00 -0.45593999997E+02  0.45594000000E+02  0.51100000000E-03 0. -1.
    9900012    2    1    2    0    0  0.31359063832E+02 -0.28129635322E+02  0.10438199757E+02  0.47787270951E+02  0.19999999575E+02 0.  0.
         12    1    1    2    0    0 -0.31359063832E+02  0.28129635322E+02 -0.10438199757E+02  0.43400729049E+02  0.00000000000E+00 0. -1.
         11    1    3    3    0    0  0.47399441316E+01  0.10126770313E+01 -0.10977454897E+01  0.49696710718E+01  0.51100000000E-03 0. -1.
        -11    1    3    3    0    0  0.31238684005E+00 -0.59923969988E+01  0.26144225345E+00  0.60062267392E+01  0.51100000000E-03 0.  1.
        -12    1    3    3    0    0  0.26306732861E+02 -0.23149915354E+02  0.11274502994E+02  0.36811373140E+02  0.00000000000E+00 0.  1.
</event>
<event>
 7    1  0.4875579E-009  0.4778728E+02  0.7816164E-02  0.1312668E+00
        -11   -1    0    0    0    0  0.00000000000E+00  0.00000000000E+00  0.45593999997E+02  0.45594000000E+02  0.51100000000E-03 0.  1.
         11   -1    0    0    0    0 -0.00000000000E+00 -0.00000000000E+00 -0.45593999997E+02  0.45594000000E+02  0.51100000000E-03 0. -1.
    9900012    2    1    2    0    0 -0.13620335299E+02  0.41162788524E+02 -0.19323167922E+01  0.47787279488E+02  0.20000038498E+02 0.  0.
         12    1    1    2    0    0  0.13620335299E+02 -0.41162788524E+02  0.19323167922E+01  0.43400720512E+02  0.00000000000E+00 0. -1.
         11    1    3    3    0    0 -0.14786041240E+01  0.43229252457E+01 -0.32538340725E+00  0.45803741614E+01  0.51100000000E-03 0. -1.
        -11    1    3    3    0    0 -0.13398390848E+02  0.27025557092E+02  0.59637189308E+01  0.30748391132E+02  0.51100000000E-03 0.  1.
         12    1    3    3    0    0  0.12566596730E+01  0.98143061866E+01 -0.75706523158E+01  0.12458514195E+02  0.00000000000E+00 0. -1.
</event>
<event>
 7    1  0.4875579E-009  0.4778727E+02  0.7816164E-02  0.1312668E+00
        -11   -1    0    0    0    0  0.00000000000E+00  0.00000000000E+00  0.45593999997E+02  0.45594000000E+02  0.51100000000E-03 0.  1.
         11   -1    0    0    0    0 -0.00000000000E+00 -0.00000000000E+00 -0.45593999997E+02  0.45594000000E+02  0.51100000000E-03 0. -1.
    9900012    2    1    2    0    0 -0.37663702270E+02  0.11019619230E+02  0.18537438710E+02  0.47787272926E+02  0.20000008578E+02 0.  0.
         12    1    1    2    0    0  0.37663702270E+02 -0.11019619230E+02 -0.18537438710E+02  0.43400727074E+02  0.00000000000E+00 0. -1.
         11    1    3    3    0    0 -0.78729327980E+01 -0.39832560367E+00  0.74912677245E+00  0.79185178734E+01  0.51100000000E-03 0.  1.
        -11    1    3    3    0    0 -0.15174880362E+02  0.19966412147E+01  0.44945879758E+00  0.15312269055E+02  0.51100000000E-03 0. -1.
         12    1    3    3    0    0 -0.14615889110E+02  0.94213036192E+01  0.17338853140E+02  0.24556485998E+02  0.00000000000E+00 0. -1.
</event>
<event>
 7    1  0.4875579E-009  0.4778727E+02  0.7816164E-02  0.1312668E+00
        -11   -1    0    0    0    0  0.00000000000E+00  0.00000000000E+00  0.45593999997E+02  0.45594000000E+02  0.51100000000E-03 0.  1.
         11   -1    0    0    0    0 -0.00000000000E+00 -0.00000000000E+00 -0.45593999997E+02  0.45594000000E+02  0.51100000000E-03 0. -1.
    9900012    2    1    2    0    0  0.26615347409E+02  0.14344642932E+02  0.31136439674E+02  0.47787269890E+02  0.19999994735E+02 0.  0.
         12    1    1    2    0    0 -0.26615347409E+02 -0.14344642932E+02 -0.31136439674E+02  0.43400730110E+02  0.00000000000E+00 0. -1.
         11    1    3    3    0    0  0.18452043623E+01 -0.11075682526E+01  0.31116464280E+01  0.37833623044E+01  0.51100000000E-03 0.  1.
        -11    1    3    3    0    0  0.29228496590E+01  0.69354444347E+01  0.82861957265E-01  0.75266397549E+01  0.51100000000E-03 0. -1.
         12    1    3    3    0    0  0.21847293388E+02  0.85167667497E+01  0.27941931289E+02  0.36477267830E+02  0.00000000000E+00 0. -1.
</event>
<event>
 7    1  0.4875579E-009  0.4778727E+02  0.7816164E-02  0.1312668E+00
        -11   -1    0    0    0    0  0.00000000000E+00  0.00000000000E+00  0.45593999997E+02  0.45594000000E+02  0.51100000000E-03 0.  1.
         11   -1    0    0    0    0 -0.00000000000E+00 -0.00000000000E+00 -0.45593999997E+02  0.45594000000E+02  0.51100000000E-03 0. -1.
    9900012    2    1    2    0    0 -0.10563432541E+02  0.11007017789E+02  0.40631058476E+02  0.47787268894E+02  0.19999990196E+02 0.  0.
         12    1    1    2    0    0  0.10563432541E+02 -0.11007017789E+02 -0.40631058476E+02  0.43400731106E+02  0.00000000000E+00 0. -1.
         11    1    3    3    0    0  0.34820041162E+01 -0.15766455822E-01  0.28447995976E+01  0.44963859108E+01  0.51100000000E-03 0. -1.
        -11    1    3    3    0    0 -0.32441047552E+01  0.29377022359E+01  0.15810182110E+01  0.46533782281E+01  0.51100000000E-03 0.  1.
        -12    1    3    3    0    0 -0.10801331902E+02  0.80850820089E+01  0.36205240667E+02  0.38637504755E+02  0.00000000000E+00 0.  1.
</event>
<event>
 7    1  0.4875579E-009  0.4778727E+02  0.7816164E-02  0.1312668E+00
        -11   -1    0    0    0    0  0.00000000000E+00  0.00000000000E+00  0.45593999997E+02  0.45594000000E+02  0.51100000000E-03 0.  1.
         11   -1    0    0    0    0 -0.00000000000E+00 -0.00000000000E+00 -0.45593999997E+02  0.45594000000E+02  0.51100000000E-03 0. -1.
    9900012    2    1    2    0    0  0.16582429601E+02  0.35219572044E+02  0.19189278107E+02  0.47787267049E+02  0.19999981784E+02 0.  0.
         12    1    1    2    0    0 -0.16582429601E+02 -0.35219572044E+02 -0.19189278107E+02  0.43400732951E+02  0.00000000000E+00 0. -1.
         11    1    3    3    0    0  0.56408257073E+01  0.77286706942E+00  0.36797757023E+01  0.67791583288E+01  0.51100000000E-03 0. -1.
        -11    1    3    3    0    0  0.62634278659E+01  0.12426354674E+02  0.44864585254E+00  0.13922862582E+02  0.51100000000E-03 0.  1.
         12    1    3    3    0    0  0.46781760276E+01  0.22020350300E+02  0.15060856552E+02  0.27085246138E+02  0.00000000000E+00 0. -1.
</event>
<event>
 7    1  0.4875579E-009  0.4778727E+02  0.7816164E-02  0.1312668E+00
        -11   -1    0    0    0    0  0.00000000000E+00  0.00000000000E+00  0.45593999997E+02  0.45594000000E+02  0.51100000000E-03 0.  1.
         11   -1    0    0    0    0 -0.00000000000E+00 -0.00000000000E+00 -0.45593999997E+02  0.45594000000E+02  0.51100000000E-03 0. -1.
    9900012    2    1    2    0    0 -0.11120556912E+02 -0.23958654191E+02  0.34437471738E+02  0.47787270094E+02  0.19999995665E+02 0.  0.
         12    1    1    2    0    0  0.11120556912E+02  0.23958654191E+02 -0.34437471738E+02  0.43400729906E+02  0.00000000000E+00 0. -1.
         11    1    3    3    0    0 -0.24987955254E+00 -0.20885643645E+01  0.43849666745E+01  0.48633809118E+01  0.51100000000E-03 0.  1.
        -11    1    3    3    0    0 -0.12119412319E+01 -0.20773995055E+02  0.22196421628E+02  0.30425463110E+02  0.51100000000E-03 0. -1.
         12    1    3    3    0    0 -0.96587361276E+01 -0.10960947717E+01  0.78560834353E+01  0.12498426072E+02  0.00000000000E+00 0. -1.
</event>
<event>
 7    1  0.4875579E-009  0.4778731E+02  0.7816164E-02  0.1312668E+00
        -11   -1    0    0    0    0  0.00000000000E+00  0.00000000000E+00  0.45593999997E+02  0.45594000000E+02  0.51100000000E-03 0.  1.
         11   -1    0    0    0    0 -0.00000000000E+00 -0.00000000000E+00 -0.45593999997E+02  0.45594000000E+02  0.51100000000E-03 0. -1.
    9900012    2    1    2    0    0  0.12548329529E+02 -0.21506977818E+02  0.35547279649E+02  0.47787311535E+02  0.20000184611E+02 0.  0.
         12    1    1    2    0    0 -0.12548329529E+02  0.21506977818E+02 -0.35547279649E+02  0.43400688465E+02  0.00000000000E+00 0. -1.
         11    1    3    3    0    0 -0.45825952214E+00 -0.42887435087E+00 -0.76549902508E+00  0.98991111570E+00  0.51100000000E-03 0. -1.
        -11    1    3    3    0    0  0.38853523418E+00 -0.37453949160E+01  0.18630133334E+02  0.19006862208E+02  0.51100000000E-03 0.  1.
        -12    1    3    3    0    0  0.12618053817E+02 -0.17332708551E+02  0.17682645340E+02  0.27790538211E+02  0.00000000000E+00 0.  1.
</event>
<event>
 7    1  0.4875579E-009  0.4778727E+02  0.7816164E-02  0.1312668E+00
        -11   -1    0    0    0    0  0.00000000000E+00  0.00000000000E+00  0.45593999997E+02  0.45594000000E+02  0.51100000000E-03 0.  1.
         11   -1    0    0    0    0 -0.00000000000E+00 -0.00000000000E+00 -0.45593999997E+02  0.45594000000E+02  0.51100000000E-03 0. -1.
    9900012    2    1    2    0    0 -0.31807818136E+01 -0.41338702671E+01  0.43086158019E+02  0.47787271098E+02  0.20000000245E+02 0.  0.
         12    1    1    2    0    0  0.31807818136E+01  0.41338702671E+01 -0.43086158019E+02  0.43400728902E+02  0.00000000000E+00 0. -1.
         11    1    3    3    0    0  0.31587362512E+01  0.20966173664E+01  0.17194852998E+02  0.17607850209E+02  0.51100000000E-03 0.  1.
        -11    1    3    3    0    0 -0.70067157306E+00 -0.57860832944E+01  0.23189907730E+02  0.23911117108E+02  0.51100000000E-03 0. -1.
         12    1    3    3    0    0 -0.56388464917E+01 -0.44440433913E+00  0.27013972907E+01  0.62683037814E+01  0.00000000000E+00 0. -1.
</event>
<event>
 7    1  0.4875579E-009  0.4778727E+02  0.7816164E-02  0.1312668E+00
        -11   -1    0    0    0    0  0.00000000000E+00  0.00000000000E+00  0.45593999997E+02  0.45594000000E+02  0.51100000000E-03 0.  1.
         11   -1    0    0    0    0 -0.00000000000E+00 -0.00000000000E+00 -0.45593999997E+02  0.45594000000E+02  0.51100000000E-03 0. -1.
    9900012    2    1    2    0    0 -0.43365588095E+02  0.59826837124E+00 -0.16405105046E+01  0.47787269239E+02  0.19999991770E+02 0.  0.
         12    1    1    2    0    0  0.43365588095E+02 -0.59826837124E+00  0.16405105046E+01  0.43400730761E+02  0.00000000000E+00 0. -1.
         11    1    3    3    0    0 -0.65721824041E+01 -0.78462232472E-01 -0.47380137945E+01  0.81023769878E+01  0.51100000000E-03 0. -1.
        -11    1    3    3    0    0 -0.26570676002E+02  0.14185310700E+01 -0.44211305391E+01  0.26973309939E+02  0.51100000000E-03 0.  1.
        -12    1    3    3    0    0 -0.10222729689E+02 -0.74180046633E+00  0.75186338290E+01  0.12711582312E+02  0.00000000000E+00 0.  1.
</event>
<event>
 7    1  0.4875579E-009  0.4778726E+02  0.7816164E-02  0.1312668E+00
        -11   -1    0    0    0    0  0.00000000000E+00  0.00000000000E+00  0.45593999997E+02  0.45594000000E+02  0.51100000000E-03 0. -1.
         11   -1    0    0    0    0 -0.00000000000E+00 -0.00000000000E+00 -0.45593999997E+02  0.45594000000E+02  0.51100000000E-03 0.  1.
    9900012    2    1    2    0    0  0.21939773891E+02  0.26689038046E+02 -0.26267195880E+02  0.47787262568E+02  0.19999961353E+02 0.  0.
         12    1    1    2    0    0 -0.21939773891E+02 -0.26689038046E+02  0.26267195880E+02  0.43400737432E+02  0.00000000000E+00 0. -1.
         11    1    3    3    0    0  0.33089571640E+01  0.49904058034E+01 -0.37836367649E+00  0.59997089037E+01  0.51100000000E-03 0. -1.
        -11    1    3    3    0    0  0.20781964682E+02  0.20368450829E+02 -0.26302438549E+02  0.39224764105E+02  0.51100000000E-03 0.  1.
        -12    1    3    3    0    0 -0.21511479548E+01  0.13301814134E+01  0.41360634536E+00  0.25627895592E+01  0.00000000000E+00 0.  1.
</event>
<event>
 7    1  0.4875579E-009  0.4778727E+02  0.7816164E-02  0.1312668E+00
        -11   -1    0    0    0    0  0.00000000000E+00  0.00000000000E+00  0.45593999997E+02  0.45594000000E+02  0.51100000000E-03 0. -1.
         11   -1    0    0    0    0 -0.00000000000E+00 -0.00000000000E+00 -0.45593999997E+02  0.45594000000E+02  0.51100000000E-03 0.  1.
    9900012    2    1    2    0    0  0.32431304402E+02  0.11200650673E+02 -0.26577796436E+02  0.47787270235E+02  0.19999996311E+02 0.  0.
         12    1    1    2    0    0 -0.32431304402E+02 -0.11200650673E+02  0.26577796436E+02  0.43400729765E+02  0.00000000000E+00 0. -1.
         11    1    3    3    0    0  0.54514392691E+01  0.56403678002E+01 -0.92789833119E+01  0.12150369154E+02  0.51100000000E-03 0. -1.
        -11    1    3    3    0    0  0.54735828535E+01  0.69741160574E+01 -0.16886972552E+01  0.90249710646E+01  0.51100000000E-03 0.  1.
        -12    1    3    3    0    0  0.21506282279E+02 -0.14138331842E+01 -0.15610115869E+02  0.26611930016E+02  0.00000000000E+00 0.  1.
</event>
<event>
 7    1  0.4875579E-009  0.4778727E+02  0.7816164E-02  0.1312668E+00
        -11   -1    0    0    0    0  0.00000000000E+00  0.00000000000E+00  0.45593999997E+02  0.45594000000E+02  0.51100000000E-03 0.  1.
         11   -1    0    0    0    0 -0.00000000000E+00 -0.00000000000E+00 -0.45593999997E+02  0.45594000000E+02  0.51100000000E-03 0. -1.
    9900012    2    1    2    0    0  0.26249863318E+02  0.34520550477E+02 -0.17028137666E+01  0.47787270696E+02  0.19999998409E+02 0.  0.
         12    1    1    2    0    0 -0.26249863318E+02 -0.34520550477E+02  0.17028137666E+01  0.43400729304E+02  0.00000000000E+00 0. -1.
         11    1    3    3    0    0  0.10645911933E+02  0.56412679110E+01  0.42494359494E+01  0.12775642867E+02  0.51100000000E-03 0. -1.
        -11    1    3    3    0    0 -0.11487134956E+01  0.69515461723E+00 -0.13483117743E+01  0.19028209423E+01  0.51100000000E-03 0.  1.
        -12    1    3    3    0    0  0.16752664880E+02  0.28184127949E+02 -0.46039379417E+01  0.33108806886E+02  0.00000000000E+00 0.  1.
</event>
<event>
 7    1  0.4875579E-009  0.4778727E+02  0.7816164E-02  0.1312668E+00
        -11   -1    0    0    0    0  0.00000000000E+00  0.00000000000E+00  0.45593999997E+02  0.45594000000E+02  0.51100000000E-03 0. -1.
         11   -1    0    0    0    0 -0.00000000000E+00 -0.00000000000E+00 -0.45593999997E+02  0.45594000000E+02  0.51100000000E-03 0.  1.
    9900012    2    1    2    0    0 -0.30590851144E+02 -0.30739596633E+02  0.17031689081E+01  0.47787265454E+02  0.19999974510E+02 0.  0.
         12    1    1    2    0    0  0.30590851144E+02  0.30739596633E+02 -0.17031689081E+01  0.43400734546E+02  0.00000000000E+00 0. -1.
         11    1    3    3    0    0 -0.10273416862E+02 -0.14025779279E+02  0.15458936910E+01  0.17454379564E+02  0.51100000000E-03 0.  1.
        -11    1    3    3    0    0 -0.20684000638E+02 -0.97285396501E+01 -0.21713960359E+01  0.22960560253E+02  0.51100000000E-03 0. -1.
         12    1    3    3    0    0  0.36656635656E+00 -0.69852777035E+01  0.23286712529E+01  0.73723256367E+01  0.00000000000E+00 0. -1.
</event>
<event>
 7    1  0.4875579E-009  0.4778727E+02  0.7816164E-02  0.1312668E+00
        -11   -1    0    0    0    0  0.00000000000E+00  0.00000000000E+00  0.45593999997E+02  0.45594000000E+02  0.51100000000E-03 0.  1.
         11   -1    0    0    0    0 -0.00000000000E+00 -0.00000000000E+00 -0.45593999997E+02  0.45594000000E+02  0.51100000000E-03 0. -1.
    9900012    2    1    2    0    0  0.58378759854E+01 -0.22821722526E+02  0.36451500658E+02  0.47787265960E+02  0.19999976816E+02 0.  0.
         12    1    1    2    0    0 -0.58378759854E+01  0.22821722526E+02 -0.36451500658E+02  0.43400734040E+02  0.00000000000E+00 0. -1.
         11    1    3    3    0    0 -0.41149307193E+01 -0.18920636825E+02  0.19148559989E+02  0.27232159345E+02  0.51100000000E-03 0. -1.
        -11    1    3    3    0    0  0.12727348971E+01  0.27439689263E+00  0.10958431633E+01  0.17017697473E+01  0.51100000000E-03 0.  1.
         12    1    3    3    0    0  0.86800718076E+01 -0.41754825933E+01  0.16207097506E+02  0.18853336867E+02  0.00000000000E+00 0. -1.
</event>
<event>
 7    1  0.4875579E-009  0.4778727E+02  0.7816164E-02  0.1312668E+00
        -11   -1    0    0    0    0  0.00000000000E+00  0.00000000000E+00  0.45593999997E+02  0.45594000000E+02  0.51100000000E-03 0.  1.
         11   -1    0    0    0    0 -0.00000000000E+00 -0.00000000000E+00 -0.45593999997E+02  0.45594000000E+02  0.51100000000E-03 0. -1.
    9900012    2    1    2    0    0  0.23625676165E+02  0.28739192517E+02  0.22349708088E+02  0.47787271753E+02  0.20000003229E+02 0.  0.
         12    1    1    2    0    0 -0.23625676165E+02 -0.28739192517E+02 -0.22349708088E+02  0.43400728247E+02  0.00000000000E+00 0. -1.
         11    1    3    3    0    0  0.85547085973E+01  0.11126205458E+02  0.98682058276E+01  0.17156834603E+02  0.51100000000E-03 0.  1.
        -11    1    3    3    0    0  0.89679425209E+01  0.17739075185E+02  0.41561492451E+01  0.20306953447E+02  0.51100000000E-03 0. -1.
         12    1    3    3    0    0  0.61030250467E+01 -0.12608812618E+00  0.83253530152E+01  0.10323483703E+02  0.00000000000E+00 0. -1.
</event>
<event>
 7    1  0.4875579E-009  0.4778725E+02  0.7816164E-02  0.1312668E+00
        -11   -1    0    0    0    0  0.00000000000E+00  0.00000000000E+00  0.45593999997E+02  0.45594000000E+02  0.51100000000E-03 0.  1.
         11   -1    0    0    0    0 -0.00000000000E+00 -0.00000000000E+00 -0.45593999997E+02  0.45594000000E+02  0.51100000000E-03 0. -1.
    9900012    2    1    2    0    0 -0.85379548829E+01 -0.40951536117E+01  0.42355145971E+02  0.47787247162E+02  0.19999891111E+02 0.  0.
         12    1    1    2    0    0  0.85379548829E+01  0.40951536117E+01 -0.42355145971E+02  0.43400752838E+02  0.00000000000E+00 0. -1.
         11    1    3    3    0    0  0.21901791683E+01  0.66456006314E-01  0.10102708241E+01  0.24128714407E+01  0.51100000000E-03 0. -1.
        -11    1    3    3    0    0 -0.17237565744E+00 -0.75838682572E+01  0.17545934360E+02  0.19115558688E+02  0.51100000000E-03 0.  1.
        -12    1    3    3    0    0 -0.10555758394E+02  0.34222586392E+01  0.23798940786E+02  0.26258817034E+02  0.00000000000E+00 0.  1.
</event>
<event>
 7    1  0.4875579E-009  0.4778727E+02  0.7816164E-02  0.1312668E+00
        -11   -1    0    0    0    0  0.00000000000E+00  0.00000000000E+00  0.45593999997E+02  0.45594000000E+02  0.51100000000E-03 0.  1.
         11   -1    0    0    0    0 -0.00000000000E+00 -0.00000000000E+00 -0.45593999997E+02  0.45594000000E+02  0.51100000000E-03 0. -1.
    9900012    2    1    2    0    0 -0.38376659391E+02  0.20268477805E+02  0.21005240265E+00  0.47787270737E+02  0.19999998597E+02 0.  0.
         12    1    1    2    0    0  0.38376659391E+02 -0.20268477805E+02 -0.21005240265E+00  0.43400729263E+02  0.00000000000E+00 0. -1.
         11    1    3    3    0    0 -0.92230251949E+00 -0.17860268455E+01 -0.10271552087E+00  0.20127306252E+01  0.51100000000E-03 0. -1.
        -11    1    3    3    0    0 -0.81744502336E+01  0.12601126961E+01  0.48313873471E+01  0.95787172726E+01  0.51100000000E-03 0.  1.
        -12    1    3    3    0    0 -0.29279906638E+02  0.20794391955E+02 -0.45186194236E+01  0.36195822839E+02  0.00000000000E+00 0.  1.
</event>
<event>
 7    1  0.4875579E-009  0.4778727E+02  0.7816164E-02  0.1312668E+00
        -11   -1    0    0    0    0  0.00000000000E+00  0.00000000000E+00  0.45593999997E+02  0.45594000000E+02  0.51100000000E-03 0.  1.
         11   -1    0    0    0    0 -0.00000000000E+00 -0.00000000000E+00 -0.45593999997E+02  0.45594000000E+02  0.51100000000E-03 0. -1.
    9900012    2    1    2    0    0 -0.40766900266E+02 -0.12312929739E+02  0.83710933995E+01  0.47787267279E+02  0.19999982832E+02 0.  0.
         12    1    1    2    0    0  0.40766900266E+02  0.12312929739E+02 -0.83710933995E+01  0.43400732721E+02  0.00000000000E+00 0. -1.
         11    1    3    3    0    0  0.13712010778E+00 -0.17318725342E+01  0.36399739097E+01  0.40333106405E+01  0.51100000000E-03 0. -1.
        -11    1    3    3    0    0 -0.84807736829E+01 -0.67426866638E+01  0.71299327920E+00  0.10857978881E+02  0.51100000000E-03 0.  1.
        -12    1    3    3    0    0 -0.32423246690E+02 -0.38383705410E+01  0.40181262107E+01  0.32895977757E+02  0.00000000000E+00 0.  1.
</event>
<event>
 7    1  0.4875579E-009  0.4778727E+02  0.7816164E-02  0.1312668E+00
        -11   -1    0    0    0    0  0.00000000000E+00  0.00000000000E+00  0.45593999997E+02  0.45594000000E+02  0.51100000000E-03 0. -1.
         11   -1    0    0    0    0 -0.00000000000E+00 -0.00000000000E+00 -0.45593999997E+02  0.45594000000E+02  0.51100000000E-03 0.  1.
    9900012    2    1    2    0    0  0.26354555742E+02 -0.29095837454E+02  0.18506564721E+02  0.47787270706E+02  0.19999998457E+02 0.  0.
         12    1    1    2    0    0 -0.26354555742E+02  0.29095837454E+02 -0.18506564721E+02  0.43400729294E+02  0.00000000000E+00 0. -1.
         11    1    3    3    0    0  0.64482392412E+01 -0.14590541413E+02  0.14120391066E+02  0.21303735169E+02  0.51100000000E-03 0. -1.
        -11    1    3    3    0    0  0.67077544743E+01 -0.67636021359E+01  0.57412526238E+01  0.11122152035E+02  0.51100000000E-03 0.  1.
        -12    1    3    3    0    0  0.13198562026E+02 -0.77416939051E+01 -0.13550789689E+01  0.15361383502E+02  0.00000000000E+00 0.  1.
</event>
<event>
 7    1  0.4875579E-009  0.4778727E+02  0.7816164E-02  0.1312668E+00
        -11   -1    0    0    0    0  0.00000000000E+00  0.00000000000E+00  0.45593999997E+02  0.45594000000E+02  0.51100000000E-03 0.  1.
         11   -1    0    0    0    0 -0.00000000000E+00 -0.00000000000E+00 -0.45593999997E+02  0.45594000000E+02  0.51100000000E-03 0. -1.
    9900012    2    1    2    0    0  0.14208271934E+01 -0.15040414460E+02  0.40686490306E+02  0.47787270623E+02  0.19999998080E+02 0.  0.
         12    1    1    2    0    0 -0.14208271934E+01  0.15040414460E+02 -0.40686490306E+02  0.43400729377E+02  0.00000000000E+00 0. -1.
         11    1    3    3    0    0  0.21919445109E+01  0.20526654148E+01  0.76959148570E+01  0.82610629940E+01  0.51100000000E-03 0. -1.
        -11    1    3    3    0    0 -0.12562348160E+01 -0.77578580744E+01  0.27682520918E+02  0.28776456565E+02  0.51100000000E-03 0.  1.
         12    1    3    3    0    0  0.48511749854E+00 -0.93352218000E+01  0.53080545310E+01  0.10749751064E+02  0.00000000000E+00 0. -1.
</event>
<event>
 7    1  0.4875579E-009  0.4778727E+02  0.7816164E-02  0.1312668E+00
        -11   -1    0    0    0    0  0.00000000000E+00  0.00000000000E+00  0.45593999997E+02  0.45594000000E+02  0.51100000000E-03 0. -1.
         11   -1    0    0    0    0 -0.00000000000E+00 -0.00000000000E+00 -0.45593999997E+02  0.45594000000E+02  0.51100000000E-03 0.  1.
    9900012    2    1    2    0    0 -0.84083702954E+01  0.39758670098E+02 -0.15237157976E+02  0.47787268184E+02  0.19999986960E+02 0.  0.
         12    1    1    2    0    0  0.84083702954E+01 -0.39758670098E+02  0.15237157976E+02  0.43400731816E+02  0.00000000000E+00 0. -1.
         11    1    3    3    0    0 -0.87152337134E+01  0.93075410372E+01 -0.20601904316E+01  0.12916268955E+02  0.51100000000E-03 0. -1.
        -11    1    3    3    0    0 -0.46972845383E+01  0.19064526396E+02 -0.99972652956E+01  0.22033292137E+02  0.51100000000E-03 0.  1.
         12    1    3    3    0    0  0.50041479562E+01  0.11386602665E+02 -0.31797022488E+01  0.12837707093E+02  0.00000000000E+00 0. -1.
</event>
<event>
 7    1  0.4875579E-009  0.4778727E+02  0.7816164E-02  0.1312668E+00
        -11   -1    0    0    0    0  0.00000000000E+00  0.00000000000E+00  0.45593999997E+02  0.45594000000E+02  0.51100000000E-03 0.  1.
         11   -1    0    0    0    0 -0.00000000000E+00 -0.00000000000E+00 -0.45593999997E+02  0.45594000000E+02  0.51100000000E-03 0. -1.
    9900012    2    1    2    0    0  0.13650292379E+02  0.21434053632E+02  0.35183432077E+02  0.47787273855E+02  0.20000012817E+02 0.  0.
         12    1    1    2    0    0 -0.13650292379E+02 -0.21434053632E+02 -0.35183432077E+02  0.43400726145E+02  0.00000000000E+00 0. -1.
         11    1    3    3    0    0 -0.24469814760E+01  0.51173998326E+01  0.13981424048E+02  0.15088264249E+02  0.51100000000E-03 0. -1.
        -11    1    3    3    0    0  0.19488994682E+01  0.75210748951E+01  0.98231771439E+01  0.12524359711E+02  0.51100000000E-03 0.  1.
        -12    1    3    3    0    0  0.14148374387E+02  0.87955789046E+01  0.11378830885E+02  0.20174649895E+02  0.00000000000E+00 0.  1.
</event>
<event>
 7    1  0.4875579E-009  0.4778727E+02  0.7816164E-02  0.1312668E+00
        -11   -1    0    0    0    0  0.00000000000E+00  0.00000000000E+00  0.45593999997E+02  0.45594000000E+02  0.51100000000E-03 0. -1.
         11   -1    0    0    0    0 -0.00000000000E+00 -0.00000000000E+00 -0.45593999997E+02  0.45594000000E+02  0.51100000000E-03 0.  1.
    9900012    2    1    2    0    0  0.11083903265E+02  0.34038446078E+02 -0.24538836254E+02  0.47787271806E+02  0.20000003474E+02 0.  0.
         12    1    1    2    0    0 -0.11083903265E+02 -0.34038446078E+02  0.24538836254E+02  0.43400728194E+02  0.00000000000E+00 0. -1.
         11    1    3    3    0    0  0.67397289507E+01  0.76293601718E+01 -0.12194296138E+02  0.15884959601E+02  0.51100000000E-03 0. -1.
        -11    1    3    3    0    0  0.34646609016E+01  0.29667597331E+01 -0.61180035036E+01  0.76312191430E+01  0.51100000000E-03 0.  1.
        -12    1    3    3    0    0  0.87951341295E+00  0.23442326174E+02 -0.62265366128E+01  0.24271093063E+02  0.00000000000E+00 0.  1.
</event>
<event>
 7    1  0.4875579E-009  0.4778727E+02  0.7816164E-02  0.1312668E+00
        -11   -1    0    0    0    0  0.00000000000E+00  0.00000000000E+00  0.45593999997E+02  0.45594000000E+02  0.51100000000E-03 0.  1.
         11   -1    0    0    0    0 -0.00000000000E+00 -0.00000000000E+00 -0.45593999997E+02  0.45594000000E+02  0.51100000000E-03 0. -1.
    9900012    2    1    2    0    0 -0.71389437471E+01  0.10202502129E+01  0.42797406270E+02  0.47787269456E+02  0.19999992757E+02 0.  0.
         12    1    1    2    0    0  0.71389437471E+01 -0.10202502129E+01 -0.42797406270E+02  0.43400730544E+02  0.00000000000E+00 0. -1.
         11    1    3    3    0    0 -0.33019573901E+01 -0.16761612708E+01  0.55850944293E+01  0.67011729762E+01  0.51100000000E-03 0. -1.
        -11    1    3    3    0    0 -0.10103738393E+02  0.17469242569E+01  0.28675222094E+02  0.30453335389E+02  0.51100000000E-03 0.  1.
         12    1    3    3    0    0  0.62667520360E+01  0.94948722679E+00  0.85370897466E+01  0.10632761091E+02  0.00000000000E+00 0. -1.
</event>
<event>
 7    1  0.4875579E-009  0.4778727E+02  0.7816164E-02  0.1312668E+00
        -11   -1    0    0    0    0  0.00000000000E+00  0.00000000000E+00  0.45593999997E+02  0.45594000000E+02  0.51100000000E-03 0. -1.
         11   -1    0    0    0    0 -0.00000000000E+00 -0.00000000000E+00 -0.45593999997E+02  0.45594000000E+02  0.51100000000E-03 0.  1.
    9900012    2    1    2    0    0  0.32820111781E+02  0.23165212496E+02  0.16426710936E+02  0.47787266833E+02  0.19999980797E+02 0.  0.
         12    1    1    2    0    0 -0.32820111781E+02 -0.23165212496E+02 -0.16426710936E+02  0.43400733167E+02  0.00000000000E+00 0. -1.
         11    1    3    3    0    0  0.13962609992E+02  0.57426152201E+01  0.89224392713E+00  0.15123762985E+02  0.51100000000E-03 0. -1.
        -11    1    3    3    0    0  0.14446092115E+02  0.15459625674E+02  0.60271787363E+01  0.22000374704E+02  0.51100000000E-03 0.  1.
         12    1    3    3    0    0  0.44114096743E+01  0.19629716022E+01  0.95072882725E+01  0.10663129143E+02  0.00000000000E+00 0. -1.
</event>
<event>
 7    1  0.4875579E-009  0.4778727E+02  0.7816164E-02  0.1312668E+00
        -11   -1    0    0    0    0  0.00000000000E+00  0.00000000000E+00  0.45593999997E+02  0.45594000000E+02  0.51100000000E-03 0. -1.
         11   -1    0    0    0    0 -0.00000000000E+00 -0.00000000000E+00 -0.45593999997E+02  0.45594000000E+02  0.51100000000E-03 0.  1.
    9900012    2    1    2    0    0 -0.91472568997E+01 -0.37052805807E+01 -0.42263717753E+02  0.47787271305E+02  0.20000001187E+02 0.  0.
         12    1    1    2    0    0  0.91472568997E+01  0.37052805807E+01  0.42263717753E+02  0.43400728695E+02  0.00000000000E+00 0. -1.
         11    1    3    3    0    0  0.94721796734E+00  0.52728130768E+00 -0.17035826938E+01  0.20192676174E+01  0.51100000000E-03 0. -1.
        -11    1    3    3    0    0  0.93491688148E+00 -0.69958094597E+01 -0.27777426895E+02  0.28660091848E+02  0.51100000000E-03 0.  1.
         12    1    3    3    0    0 -0.11029391749E+02  0.27632475713E+01 -0.12782708164E+02  0.17107911839E+02  0.00000000000E+00 0. -1.
</event>
<event>
 7    1  0.4875579E-009  0.4778727E+02  0.7816164E-02  0.1312668E+00
        -11   -1    0    0    0    0  0.00000000000E+00  0.00000000000E+00  0.45593999997E+02  0.45594000000E+02  0.51100000000E-03 0.  1.
         11   -1    0    0    0    0 -0.00000000000E+00 -0.00000000000E+00 -0.45593999997E+02  0.45594000000E+02  0.51100000000E-03 0. -1.
    9900012    2    1    2    0    0  0.34920956492E+02  0.17515188542E+02  0.18904190311E+02  0.47787269093E+02  0.19999991102E+02 0.  0.
         12    1    1    2    0    0 -0.34920956492E+02 -0.17515188542E+02 -0.18904190311E+02  0.43400730907E+02  0.00000000000E+00 0. -1.
         11    1    3    3    0    0  0.15634541967E+02  0.25863910460E+01  0.77259954868E+01  0.17630068851E+02  0.51100000000E-03 0. -1.
        -11    1    3    3    0    0  0.20595846402E+02  0.13520583402E+02  0.12687917670E+02  0.27712421756E+02  0.51100000000E-03 0.  1.
        -12    1    3    3    0    0 -0.13094318773E+01  0.14082140941E+01 -0.15097228452E+01  0.24447784860E+01  0.00000000000E+00 0.  1.
</event>
<event>
 7    1  0.4875579E-009  0.4778728E+02  0.7816164E-02  0.1312668E+00
        -11   -1    0    0    0    0  0.00000000000E+00  0.00000000000E+00  0.45593999997E+02  0.45594000000E+02  0.51100000000E-03 0. -1.
         11   -1    0    0    0    0 -0.00000000000E+00 -0.00000000000E+00 -0.45593999997E+02  0.45594000000E+02  0.51100000000E-03 0.  1.
    9900012    2    1    2    0    0 -0.31406921355E+02 -0.23415927426E+02  0.18679468326E+02  0.47787275316E+02  0.20000019474E+02 0.  0.
         12    1    1    2    0    0  0.31406921355E+02  0.23415927426E+02 -0.18679468326E+02  0.43400724684E+02  0.00000000000E+00 0. -1.
         11    1    3    3    0    0 -0.16648862502E+02 -0.71908175872E+01  0.84253288602E+01  0.19996965941E+02  0.51100000000E-03 0.  1.
        -11    1    3    3    0    0 -0.10685120816E+02 -0.42827638306E+01 -0.31329298200E-01  0.11511509661E+02  0.51100000000E-03 0. -1.
        -12    1    3    3    0    0 -0.40729380361E+01 -0.11942346008E+02  0.10285468764E+02  0.16278799713E+02  0.00000000000E+00 0.  1.
</event>
<event>
 7    1  0.4875579E-009  0.4778727E+02  0.7816164E-02  0.1312668E+00
        -11   -1    0    0    0    0  0.00000000000E+00  0.00000000000E+00  0.45593999997E+02  0.45594000000E+02  0.51100000000E-03 0.  1.
         11   -1    0    0    0    0 -0.00000000000E+00 -0.00000000000E+00 -0.45593999997E+02  0.45594000000E+02  0.51100000000E-03 0. -1.
    9900012    2    1    2    0    0 -0.23843393945E+02 -0.86076051338E+01  0.35228181100E+02  0.47787273686E+02  0.20000012043E+02 0.  0.
         12    1    1    2    0    0  0.23843393945E+02  0.86076051338E+01 -0.35228181100E+02  0.43400726314E+02  0.00000000000E+00 0. -1.
         11    1    3    3    0    0 -0.34403451159E+01  0.45826206877E+01  0.38916615917E+01  0.69268619944E+01  0.51100000000E-03 0. -1.
        -11    1    3    3    0    0 -0.98515421661E+00 -0.36002605717E+01  0.15704557252E+01  0.40495353388E+01  0.51100000000E-03 0.  1.
         12    1    3    3    0    0 -0.19417894613E+02 -0.95899652498E+01  0.29766063783E+02  0.36810876353E+02  0.00000000000E+00 0. -1.
</event>
<event>
 7    1  0.4875579E-009  0.4778727E+02  0.7816164E-02  0.1312668E+00
        -11   -1    0    0    0    0  0.00000000000E+00  0.00000000000E+00  0.45593999997E+02  0.45594000000E+02  0.51100000000E-03 0. -1.
         11   -1    0    0    0    0 -0.00000000000E+00 -0.00000000000E+00 -0.45593999997E+02  0.45594000000E+02  0.51100000000E-03 0.  1.
    9900012    2    1    2    0    0  0.13703381615E+02 -0.36673333287E+02 -0.18732512198E+02  0.47787273562E+02  0.20000011480E+02 0.  0.
         12    1    1    2    0    0 -0.13703381615E+02  0.36673333287E+02  0.18732512198E+02  0.43400726438E+02  0.00000000000E+00 0. -1.
         11    1    3    3    0    0  0.59343137669E+01 -0.27411411455E+01 -0.43996996641E+01  0.78795489756E+01  0.51100000000E-03 0. -1.
        -11    1    3    3    0    0 -0.19796653338E+01 -0.58440835535E+01 -0.69088357983E+01  0.92630664341E+01  0.51100000000E-03 0.  1.
        -12    1    3    3    0    0  0.97487331819E+01 -0.28088108588E+02 -0.74239767353E+01  0.30644658153E+02  0.00000000000E+00 0.  1.
</event>
<event>
 7    1  0.4875579E-009  0.4778728E+02  0.7816164E-02  0.1312668E+00
        -11   -1    0    0    0    0  0.00000000000E+00  0.00000000000E+00  0.45593999997E+02  0.45594000000E+02  0.51100000000E-03 0.  1.
         11   -1    0    0    0    0 -0.00000000000E+00 -0.00000000000E+00 -0.45593999997E+02  0.45594000000E+02  0.51100000000E-03 0. -1.
    9900012    2    1    2    0    0  0.32369566631E+02 -0.27474141176E+02  0.90002953398E+01  0.47787278883E+02  0.20000035741E+02 0.  0.
         12    1    1    2    0    0 -0.32369566631E+02  0.27474141176E+02 -0.90002953398E+01  0.43400721117E+02  0.00000000000E+00 0. -1.
         11    1    3    3    0    0  0.17859521808E+01 -0.55773182292E+01  0.41177553948E+00  0.58707463902E+01  0.51100000000E-03 0. -1.
        -11    1    3    3    0    0  0.24222706226E+02 -0.12489795487E+02 -0.67518003064E+00  0.27261517870E+02  0.51100000000E-03 0.  1.
        -12    1    3    3    0    0  0.63609082244E+01 -0.94070274595E+01  0.92636998309E+01  0.14655014624E+02  0.00000000000E+00 0.  1.
</event>
<event>
 7    1  0.4875579E-009  0.4778726E+02  0.7816164E-02  0.1312668E+00
        -11   -1    0    0    0    0  0.00000000000E+00  0.00000000000E+00  0.45593999997E+02  0.45594000000E+02  0.51100000000E-03 0.  1.
         11   -1    0    0    0    0 -0.00000000000E+00 -0.00000000000E+00 -0.45593999997E+02  0.45594000000E+02  0.51100000000E-03 0. -1.
    9900012    2    1    2    0    0  0.42615985607E+01 -0.43067049458E+02 -0.32698734417E+01  0.47787262176E+02  0.19999959566E+02 0.  0.
         12    1    1    2    0    0 -0.42615985607E+01  0.43067049458E+02  0.32698734417E+01  0.43400737824E+02  0.00000000000E+00 0. -1.
         11    1    3    3    0    0 -0.59105605465E+00  0.94341757645E+00  0.52936797785E+00  0.12327265311E+01  0.51100000000E-03 0. -1.
        -11    1    3    3    0    0 -0.41885342455E+01 -0.12185729728E+02  0.17649660617E+01  0.13005803843E+02  0.51100000000E-03 0.  1.
         12    1    3    3    0    0  0.90411888609E+01 -0.31824737306E+02 -0.55642074813E+01  0.33548731802E+02  0.00000000000E+00 0. -1.
</event>
<event>
 7    1  0.4875579E-009  0.4778727E+02  0.7816164E-02  0.1312668E+00
        -11   -1    0    0    0    0  0.00000000000E+00  0.00000000000E+00  0.45593999997E+02  0.45594000000E+02  0.51100000000E-03 0.  1.
         11   -1    0    0    0    0 -0.00000000000E+00 -0.00000000000E+00 -0.45593999997E+02  0.45594000000E+02  0.51100000000E-03 0. -1.
    9900012    2    1    2    0    0  0.42625568777E+02  0.75292939107E+01 -0.31612876692E+01  0.47787272817E+02  0.20000008080E+02 0.  0.
         12    1    1    2    0    0 -0.42625568777E+02 -0.75292939107E+01  0.31612876692E+01  0.43400727183E+02  0.00000000000E+00 0. -1.
         11    1    3    3    0    0  0.38515146862E+01  0.60128982988E+01 -0.26465535298E+01  0.76153369707E+01  0.51100000000E-03 0. -1.
        -11    1    3    3    0    0  0.11357837871E+02  0.52258967890E+01 -0.21702249506E+00  0.12504302355E+02  0.51100000000E-03 0.  1.
        -12    1    3    3    0    0  0.27416216220E+02 -0.37095011772E+01 -0.29771164433E+00  0.27667633491E+02  0.00000000000E+00 0.  1.
</event>
<event>
 7    1  0.4875579E-009  0.4778727E+02  0.7816164E-02  0.1312668E+00
        -11   -1    0    0    0    0  0.00000000000E+00  0.00000000000E+00  0.45593999997E+02  0.45594000000E+02  0.51100000000E-03 0.  1.
         11   -1    0    0    0    0 -0.00000000000E+00 -0.00000000000E+00 -0.45593999997E+02  0.45594000000E+02  0.51100000000E-03 0. -1.
    9900012    2    1    2    0    0 -0.47554941300E+00  0.27771029380E+02  0.33349168525E+02  0.47787271189E+02  0.20000000658E+02 0.  0.
         12    1    1    2    0    0  0.47554941300E+00 -0.27771029380E+02 -0.33349168525E+02  0.43400728811E+02  0.00000000000E+00 0. -1.
         11    1    3    3    0    0  0.36259418619E+01  0.33054601472E+01 -0.69321032503E+00  0.49552055443E+01  0.51100000000E-03 0. -1.
        -11    1    3    3    0    0 -0.16109097298E+01  0.93176064337E+01  0.71058289565E+01  0.11828170832E+02  0.51100000000E-03 0.  1.
         12    1    3    3    0    0 -0.24905815451E+01  0.15147962799E+02  0.26936549893E+02  0.31003894812E+02  0.00000000000E+00 0. -1.
</event>
<event>
 7    1  0.4875579E-009  0.4778727E+02  0.7816164E-02  0.1312668E+00
        -11   -1    0    0    0    0  0.00000000000E+00  0.00000000000E+00  0.45593999997E+02  0.45594000000E+02  0.51100000000E-03 0.  1.
         11   -1    0    0    0    0 -0.00000000000E+00 -0.00000000000E+00 -0.45593999997E+02  0.45594000000E+02  0.51100000000E-03 0. -1.
    9900012    2    1    2    0    0 -0.12231419341E+02  0.11755157511E+00  0.41641350401E+02  0.47787268431E+02  0.19999988085E+02 0.  0.
         12    1    1    2    0    0  0.12231419341E+02 -0.11755157511E+00 -0.41641350401E+02  0.43400731569E+02  0.00000000000E+00 0. -1.
         11    1    3    3    0    0 -0.43137477066E+01 -0.56132165661E+00 -0.20240243572E+00  0.43548212690E+01  0.51100000000E-03 0. -1.
        -11    1    3    3    0    0  0.18227141154E+01  0.38198072911E+00  0.56031989263E+01  0.59045774186E+01  0.51100000000E-03 0.  1.
        -12    1    3    3    0    0 -0.97403857496E+01  0.29689250261E+00  0.36240553911E+02  0.37527869743E+02  0.00000000000E+00 0.  1.
</event>
<event>
 7    1  0.4875579E-009  0.4778727E+02  0.7816164E-02  0.1312668E+00
        -11   -1    0    0    0    0  0.00000000000E+00  0.00000000000E+00  0.45593999997E+02  0.45594000000E+02  0.51100000000E-03 0. -1.
         11   -1    0    0    0    0 -0.00000000000E+00 -0.00000000000E+00 -0.45593999997E+02  0.45594000000E+02  0.51100000000E-03 0.  1.
    9900012    2    1    2    0    0 -0.24084592098E+02 -0.17897820410E+02 -0.31356395591E+02  0.47787273089E+02  0.20000009322E+02 0.  0.
         12    1    1    2    0    0  0.24084592098E+02  0.17897820410E+02  0.31356395591E+02  0.43400726911E+02  0.00000000000E+00 0. -1.
         11    1    3    3    0    0  0.23160072252E+01 -0.22024348787E+01 -0.92411679856E+01  0.97782306610E+01  0.51100000000E-03 0. -1.
        -11    1    3    3    0    0 -0.53291488447E+01 -0.48856000890E+01 -0.52801476874E+01  0.89525904352E+01  0.51100000000E-03 0.  1.
         12    1    3    3    0    0 -0.21071450478E+02 -0.10809785442E+02 -0.16835079918E+02  0.29056451993E+02  0.00000000000E+00 0. -1.
</event>
<event>
 7    1  0.4875579E-009  0.4778727E+02  0.7816164E-02  0.1312668E+00
        -11   -1    0    0    0    0  0.00000000000E+00  0.00000000000E+00  0.45593999997E+02  0.45594000000E+02  0.51100000000E-03 0.  1.
         11   -1    0    0    0    0 -0.00000000000E+00 -0.00000000000E+00 -0.45593999997E+02  0.45594000000E+02  0.51100000000E-03 0. -1.
    9900012    2    1    2    0    0 -0.16289086785E+02 -0.16478202986E+02  0.36698197390E+02  0.47787271738E+02  0.20000003164E+02 0.  0.
         12    1    1    2    0    0  0.16289086785E+02  0.16478202986E+02 -0.36698197390E+02  0.43400728262E+02  0.00000000000E+00 0. -1.
         11    1    3    3    0    0 -0.10705674857E+02 -0.18220001201E+02  0.20029603490E+02  0.29116403180E+02  0.51100000000E-03 0. -1.
        -11    1    3    3    0    0 -0.54175527859E+01 -0.47181222772E+00  0.76679404514E+01  0.94005210490E+01  0.51100000000E-03 0.  1.
         12    1    3    3    0    0 -0.16585914219E+00  0.22136104423E+01  0.90006534486E+01  0.92703475095E+01  0.00000000000E+00 0. -1.
</event>
<event>
 7    1  0.4464829E-008  0.4778727E+02  0.7816164E-02  0.1312668E+00
        -11   -1    0    0    0    0  0.00000000000E+00  0.00000000000E+00  0.45593999997E+02  0.45594000000E+02  0.51100000000E-03 0.  1.
         11   -1    0    0    0    0 -0.00000000000E+00 -0.00000000000E+00 -0.45593999997E+02  0.45594000000E+02  0.51100000000E-03 0. -1.
    9900012    2    1    2    0    0 -0.14109026150E+02 -0.44624880530E+01  0.40800063427E+02  0.47787267354E+02  0.19999983176E+02 0.  0.
         12    1    1    2    0    0  0.14109026150E+02  0.44624880530E+01 -0.40800063427E+02  0.43400732646E+02  0.00000000000E+00 0. -1.
         11    1    3    3    0    0  0.20197738580E+01 -0.11878562491E+01  0.49795573402E+01  0.55033154072E+01  0.51100000000E-03 0. -1.
        -11    1    3    3    0    0 -0.10432180057E+02 -0.13869058342E+01  0.34593074146E+02  0.36158466058E+02  0.51100000000E-03 0.  1.
        -12    1    3    3    0    0 -0.56966199515E+01 -0.18877259697E+01  0.12274319403E+01  0.61254858890E+01  0.00000000000E+00 0.  1.
</event>
<event>
 7    1  0.4875579E-009  0.4778727E+02  0.7816164E-02  0.1312668E+00
        -11   -1    0    0    0    0  0.00000000000E+00  0.00000000000E+00  0.45593999997E+02  0.45594000000E+02  0.51100000000E-03 0.  1.
         11   -1    0    0    0    0 -0.00000000000E+00 -0.00000000000E+00 -0.45593999997E+02  0.45594000000E+02  0.51100000000E-03 0. -1.
    9900012    2    1    2    0    0  0.40251757335E+01  0.27262106439E+02  0.33529069659E+02  0.47787274207E+02  0.20000014421E+02 0.  0.
         12    1    1    2    0    0 -0.40251757335E+01 -0.27262106439E+02 -0.33529069659E+02  0.43400725793E+02  0.00000000000E+00 0. -1.
         11    1    3    3    0    0 -0.53788391845E+01  0.58851909545E+01  0.84656764319E+01  0.11629061065E+02  0.51100000000E-03 0. -1.
        -11    1    3    3    0    0 -0.22166822696E+01  0.81866350477E+01  0.83550972294E+01  0.11905558520E+02  0.51100000000E-03 0.  1.
        -12    1    3    3    0    0  0.11620697188E+02  0.13190280436E+02  0.16708295997E+02  0.24252654623E+02  0.00000000000E+00 0.  1.
</event>
<event>
 7    1  0.4875579E-009  0.4778727E+02  0.7816164E-02  0.1312668E+00
        -11   -1    0    0    0    0  0.00000000000E+00  0.00000000000E+00  0.45593999997E+02  0.45594000000E+02  0.51100000000E-03 0.  1.
         11   -1    0    0    0    0 -0.00000000000E+00 -0.00000000000E+00 -0.45593999997E+02  0.45594000000E+02  0.51100000000E-03 0. -1.
    9900012    2    1    2    0    0 -0.28437443039E+02 -0.11445814598E+02  0.30723417927E+02  0.47787271348E+02  0.20000001385E+02 0.  0.
         12    1    1    2    0    0  0.28437443039E+02  0.11445814598E+02 -0.30723417927E+02  0.43400728652E+02  0.00000000000E+00 0. -1.
         11    1    3    3    0    0 -0.91891139026E+01  0.32500735550E+01  0.94909122291E+01  0.13604418680E+02  0.51100000000E-03 0. -1.
        -11    1    3    3    0    0 -0.54951353733E+01 -0.21653880392E+01  0.12083105409E+02  0.13449418378E+02  0.51100000000E-03 0.  1.
        -12    1    3    3    0    0 -0.13753193763E+02 -0.12530500114E+02  0.91494002885E+01  0.20733434289E+02  0.00000000000E+00 0.  1.
</event>
<event>
 7    1  0.4875579E-009  0.4778727E+02  0.7816164E-02  0.1312668E+00
        -11   -1    0    0    0    0  0.00000000000E+00  0.00000000000E+00  0.45593999997E+02  0.45594000000E+02  0.51100000000E-03 0. -1.
         11   -1    0    0    0    0 -0.00000000000E+00 -0.00000000000E+00 -0.45593999997E+02  0.45594000000E+02  0.51100000000E-03 0.  1.
    9900012    2    1    2    0    0  0.10129141283E+02 -0.29799509661E+02 -0.29883325171E+02  0.47787269563E+02  0.19999993247E+02 0.  0.
         12    1    1    2    0    0 -0.10129141283E+02  0.29799509661E+02  0.29883325171E+02  0.43400730437E+02  0.00000000000E+00 0. -1.
         11    1    3    3    0    0 -0.90097650644E+00 -0.23981265172E+01  0.96168546806E+00  0.27363495132E+01  0.51100000000E-03 0. -1.
        -11    1    3    3    0    0  0.88767352743E+01 -0.10649711675E+02 -0.62319700481E+01  0.15200336800E+02  0.51100000000E-03 0.  1.
        -12    1    3    3    0    0  0.21533825152E+01 -0.16751671468E+02 -0.24613040591E+02  0.29850583250E+02  0.00000000000E+00 0.  1.
</event>
<event>
 7    1  0.4875579E-009  0.4778728E+02  0.7816164E-02  0.1312668E+00
        -11   -1    0    0    0    0  0.00000000000E+00  0.00000000000E+00  0.45593999997E+02  0.45594000000E+02  0.51100000000E-03 0.  1.
         11   -1    0    0    0    0 -0.00000000000E+00 -0.00000000000E+00 -0.45593999997E+02  0.45594000000E+02  0.51100000000E-03 0. -1.
    9900012    2    1    2    0    0  0.15182985533E+02  0.13180635183E+02  0.38462584599E+02  0.47787278721E+02  0.20000035001E+02 0.  0.
         12    1    1    2    0    0 -0.15182985533E+02 -0.13180635183E+02 -0.38462584599E+02  0.43400721279E+02  0.00000000000E+00 0. -1.
         11    1    3    3    0    0  0.84597315034E+00 -0.46150699693E+01  0.75800870502E+01  0.89147216077E+01  0.51100000000E-03 0. -1.
        -11    1    3    3    0    0  0.60658415946E+01  0.36909709547E+01  0.11487499709E+02  0.13504826939E+02  0.51100000000E-03 0.  1.
        -12    1    3    3    0    0  0.82711707878E+01  0.14104734198E+02  0.19394997839E+02  0.25367730174E+02  0.00000000000E+00 0.  1.
</event>
<event>
 7    1  0.4875579E-009  0.4778727E+02  0.7816164E-02  0.1312668E+00
        -11   -1    0    0    0    0  0.00000000000E+00  0.00000000000E+00  0.45593999997E+02  0.45594000000E+02  0.51100000000E-03 0.  1.
         11   -1    0    0    0    0 -0.00000000000E+00 -0.00000000000E+00 -0.45593999997E+02  0.45594000000E+02  0.51100000000E-03 0. -1.
    9900012    2    1    2    0    0  0.34386947106E+02 -0.16239974559E+01  0.26429601664E+02  0.47787270247E+02  0.19999996363E+02 0.  0.
         12    1    1    2    0    0 -0.34386947106E+02  0.16239974559E+01 -0.26429601664E+02  0.43400729753E+02  0.00000000000E+00 0. -1.
         11    1    3    3    0    0  0.14688149404E+02 -0.70749896833E+01  0.15277732648E+02  0.22342925660E+02  0.51100000000E-03 0. -1.
        -11    1    3    3    0    0  0.17916092789E+02  0.99170241684E+00  0.98467339143E+01  0.20467731275E+02  0.51100000000E-03 0.  1.
         12    1    3    3    0    0  0.17827049125E+01  0.44592898105E+01  0.13051351024E+01  0.49766133118E+01  0.00000000000E+00 0. -1.
</event>
<event>
 7    1  0.4875579E-009  0.4778727E+02  0.7816164E-02  0.1312668E+00
        -11   -1    0    0    0    0  0.00000000000E+00  0.00000000000E+00  0.45593999997E+02  0.45594000000E+02  0.51100000000E-03 0.  1.
         11   -1    0    0    0    0 -0.00000000000E+00 -0.00000000000E+00 -0.45593999997E+02  0.45594000000E+02  0.51100000000E-03 0. -1.
    9900012    2    1    2    0    0 -0.16915422565E+02 -0.77810799079E+01  0.39203909615E+02  0.47787271272E+02  0.20000001036E+02 0.  0.
         12    1    1    2    0    0  0.16915422565E+02  0.77810799079E+01 -0.39203909615E+02  0.43400728728E+02  0.00000000000E+00 0. -1.
         11    1    3    3    0    0  0.24888126257E+01 -0.18096137193E+00  0.37367182389E+01  0.44933282500E+01  0.51100000000E-03 0. -1.
        -11    1    3    3    0    0 -0.92729474525E+01 -0.63600427163E+00  0.26483969224E+02  0.28067644754E+02  0.51100000000E-03 0.  1.
        -12    1    3    3    0    0 -0.10131287738E+02 -0.69641142643E+01  0.89832221515E+01  0.15226298268E+02  0.00000000000E+00 0.  1.
</event>
<event>
 7    1  0.4875579E-009  0.4778727E+02  0.7816164E-02  0.1312668E+00
        -11   -1    0    0    0    0  0.00000000000E+00  0.00000000000E+00  0.45593999997E+02  0.45594000000E+02  0.51100000000E-03 0.  1.
         11   -1    0    0    0    0 -0.00000000000E+00 -0.00000000000E+00 -0.45593999997E+02  0.45594000000E+02  0.51100000000E-03 0. -1.
    9900012    2    1    2    0    0  0.27907314153E+02  0.22901742802E+01  0.33159615806E+02  0.47787271874E+02  0.20000003781E+02 0.  0.
         12    1    1    2    0    0 -0.27907314153E+02 -0.22901742802E+01 -0.33159615806E+02  0.43400728126E+02  0.00000000000E+00 0. -1.
         11    1    3    3    0    0  0.15865436942E+02 -0.37796369131E+01  0.15989128177E+02  0.22839657718E+02  0.51100000000E-03 0. -1.
        -11    1    3    3    0    0  0.25030758633E+00  0.96695223166E+00  0.10355840161E+02  0.10403897164E+02  0.51100000000E-03 0.  1.
         12    1    3    3    0    0  0.11791569625E+02  0.51028589617E+01  0.68146474675E+01  0.14543716991E+02  0.00000000000E+00 0. -1.
</event>
<event>
 7    1  0.4875579E-009  0.4778727E+02  0.7816164E-02  0.1312668E+00
        -11   -1    0    0    0    0  0.00000000000E+00  0.00000000000E+00  0.45593999997E+02  0.45594000000E+02  0.51100000000E-03 0. -1.
         11   -1    0    0    0    0 -0.00000000000E+00 -0.00000000000E+00 -0.45593999997E+02  0.45594000000E+02  0.51100000000E-03 0.  1.
    9900012    2    1    2    0    0  0.34687172441E+02 -0.13193763959E+02 -0.22502177565E+02  0.47787270345E+02  0.19999996812E+02 0.  0.
         12    1    1    2    0    0 -0.34687172441E+02  0.13193763959E+02  0.22502177565E+02  0.43400729655E+02  0.00000000000E+00 0. -1.
         11    1    3    3    0    0  0.16856417309E+02 -0.96654304950E+01 -0.10945924419E+02  0.22301852228E+02  0.51100000000E-03 0. -1.
        -11    1    3    3    0    0  0.12957885302E+02 -0.57075762261E+01 -0.16794898155E+01  0.14258467806E+02  0.51100000000E-03 0.  1.
         12    1    3    3    0    0  0.48728698302E+01  0.21792427619E+01 -0.98767633304E+01  0.11226950311E+02  0.00000000000E+00 0. -1.
</event>
<event>
 7    1  0.4875579E-009  0.4778727E+02  0.7816164E-02  0.1312668E+00
        -11   -1    0    0    0    0  0.00000000000E+00  0.00000000000E+00  0.45593999997E+02  0.45594000000E+02  0.51100000000E-03 0. -1.
         11   -1    0    0    0    0 -0.00000000000E+00 -0.00000000000E+00 -0.45593999997E+02  0.45594000000E+02  0.51100000000E-03 0.  1.
    9900012    2    1    2    0    0 -0.32045615716E+02 -0.37890669715E+01 -0.29023172579E+02  0.47787273490E+02  0.20000011148E+02 0.  0.
         12    1    1    2    0    0  0.32045615716E+02  0.37890669715E+01  0.29023172579E+02  0.43400726510E+02  0.00000000000E+00 0. -1.
         11    1    3    3    0    0 -0.43812264741E+01 -0.42899856052E+01 -0.47794380541E+01  0.77744549831E+01  0.51100000000E-03 0. -1.
        -11    1    3    3    0    0 -0.14832243704E+02 -0.59904340818E+01 -0.67372576659E+01  0.17357171282E+02  0.51100000000E-03 0.  1.
        -12    1    3    3    0    0 -0.12832145537E+02  0.64913527156E+01 -0.17506476859E+02  0.22655647225E+02  0.00000000000E+00 0.  1.
</event>
<event>
 7    1  0.4875579E-009  0.4778727E+02  0.7816164E-02  0.1312668E+00
        -11   -1    0    0    0    0  0.00000000000E+00  0.00000000000E+00  0.45593999997E+02  0.45594000000E+02  0.51100000000E-03 0. -1.
         11   -1    0    0    0    0 -0.00000000000E+00 -0.00000000000E+00 -0.45593999997E+02  0.45594000000E+02  0.51100000000E-03 0.  1.
    9900012    2    1    2    0    0 -0.92729238881E+01  0.42396991946E+02 -0.36290443505E+00  0.47787265638E+02  0.19999975351E+02 0.  0.
         12    1    1    2    0    0  0.92729238881E+01 -0.42396991946E+02  0.36290443505E+00  0.43400734362E+02  0.00000000000E+00 0. -1.
         11    1    3    3    0    0 -0.10262028090E+02  0.12383593043E+02  0.46784380127E+01  0.16749638195E+02  0.51100000000E-03 0. -1.
        -11    1    3    3    0    0  0.19066339738E+01  0.35746584007E+01  0.24972302747E+00  0.40590390049E+01  0.51100000000E-03 0.  1.
        -12    1    3    3    0    0 -0.91752977192E+00  0.26438740503E+02 -0.52910654752E+01  0.26978588438E+02  0.00000000000E+00 0.  1.
</event>
<event>
 7    1  0.4875579E-009  0.4778727E+02  0.7816164E-02  0.1312668E+00
        -11   -1    0    0    0    0  0.00000000000E+00  0.00000000000E+00  0.45593999997E+02  0.45594000000E+02  0.51100000000E-03 0.  1.
         11   -1    0    0    0    0 -0.00000000000E+00 -0.00000000000E+00 -0.45593999997E+02  0.45594000000E+02  0.51100000000E-03 0. -1.
    9900012    2    1    2    0    0  0.39546526464E+02 -0.39822139650E+01  0.17430937082E+02  0.47787270156E+02  0.19999995950E+02 0.  0.
         12    1    1    2    0    0 -0.39546526464E+02  0.39822139650E+01 -0.17430937082E+02  0.43400729844E+02  0.00000000000E+00 0. -1.
         11    1    3    3    0    0  0.19545980539E+02 -0.11936183582E+01  0.61808617930E+01  0.20534681220E+02  0.51100000000E-03 0. -1.
        -11    1    3    3    0    0  0.15843066221E+02  0.90114196452E+00  0.13899066215E+02  0.21094995758E+02  0.51100000000E-03 0.  1.
        -12    1    3    3    0    0  0.41574797030E+01 -0.36897375713E+01 -0.26489909256E+01  0.61575931784E+01  0.00000000000E+00 0.  1.
</event>
<event>
 7    1  0.4875579E-009  0.4778727E+02  0.7816164E-02  0.1312668E+00
        -11   -1    0    0    0    0  0.00000000000E+00  0.00000000000E+00  0.45593999997E+02  0.45594000000E+02  0.51100000000E-03 0.  1.
         11   -1    0    0    0    0 -0.00000000000E+00 -0.00000000000E+00 -0.45593999997E+02  0.45594000000E+02  0.51100000000E-03 0. -1.
    9900012    2    1    2    0    0  0.15264018919E+02 -0.30029889961E+02  0.27364918866E+02  0.47787270177E+02  0.19999996043E+02 0.  0.
         12    1    1    2    0    0 -0.15264018919E+02  0.30029889961E+02 -0.27364918866E+02  0.43400729823E+02  0.00000000000E+00 0. -1.
         11    1    3    3    0    0  0.53629039503E+01 -0.28226269726E+01  0.43448741609E+01  0.74569359352E+01  0.51100000000E-03 0. -1.
        -11    1    3    3    0    0  0.72949154325E+01 -0.48225830904E+01  0.12999230318E+02  0.15666942521E+02  0.51100000000E-03 0.  1.
         12    1    3    3    0    0  0.26061995367E+01 -0.22384679898E+02  0.10020814387E+02  0.24663391721E+02  0.00000000000E+00 0. -1.
</event>
<event>
 7    1  0.4875579E-009  0.4778727E+02  0.7816164E-02  0.1312668E+00
        -11   -1    0    0    0    0  0.00000000000E+00  0.00000000000E+00  0.45593999997E+02  0.45594000000E+02  0.51100000000E-03 0. -1.
         11   -1    0    0    0    0 -0.00000000000E+00 -0.00000000000E+00 -0.45593999997E+02  0.45594000000E+02  0.51100000000E-03 0.  1.
    9900012    2    1    2    0    0  0.16445630013E+02  0.18179452750E+02 -0.35814412429E+02  0.47787269748E+02  0.19999994088E+02 0.  0.
         12    1    1    2    0    0 -0.16445630013E+02 -0.18179452750E+02  0.35814412429E+02  0.43400730252E+02  0.00000000000E+00 0. -1.
         11    1    3    3    0    0  0.11816825574E+02  0.15799256726E+02 -0.21804135551E+02  0.29405343173E+02  0.51100000000E-03 0. -1.
        -11    1    3    3    0    0  0.69017234384E+01  0.24897506629E+01 -0.45087450009E+01  0.86117028820E+01  0.51100000000E-03 0.  1.
         12    1    3    3    0    0 -0.22729189994E+01 -0.10955463872E+00 -0.95015318772E+01  0.97702236930E+01  0.00000000000E+00 0. -1.
</event>
<event>
 7    1  0.4875579E-009  0.4778727E+02  0.7816164E-02  0.1312668E+00
        -11   -1    0    0    0    0  0.00000000000E+00  0.00000000000E+00  0.45593999997E+02  0.45594000000E+02  0.51100000000E-03 0.  1.
         11   -1    0    0    0    0 -0.00000000000E+00 -0.00000000000E+00 -0.45593999997E+02  0.45594000000E+02  0.51100000000E-03 0. -1.
    9900012    2    1    2    0    0 -0.15722859965E+02  0.38178494578E+02  0.13372267247E+02  0.47787270686E+02  0.19999998365E+02 0.  0.
         12    1    1    2    0    0  0.15722859965E+02 -0.38178494578E+02 -0.13372267247E+02  0.43400729314E+02  0.00000000000E+00 0. -1.
         11    1    3    3    0    0 -0.10438940614E+02  0.18681764300E+02  0.73703411071E+01  0.22634083299E+02  0.51100000000E-03 0. -1.
        -11    1    3    3    0    0 -0.99526487697E+01  0.12299568145E+02  0.44421246370E+01  0.16433717341E+02  0.51100000000E-03 0.  1.
         12    1    3    3    0    0  0.46687294189E+01  0.71971621328E+01  0.15598015033E+01  0.87194700460E+01  0.00000000000E+00 0. -1.
</event>
<event>
 7    1  0.4875579E-009  0.4778727E+02  0.7816164E-02  0.1312668E+00
        -11   -1    0    0    0    0  0.00000000000E+00  0.00000000000E+00  0.45593999997E+02  0.45594000000E+02  0.51100000000E-03 0.  1.
         11   -1    0    0    0    0 -0.00000000000E+00 -0.00000000000E+00 -0.45593999997E+02  0.45594000000E+02  0.51100000000E-03 0. -1.
    9900012    2    1    2    0    0  0.10030543159E+02  0.42178687042E+02  0.19923604506E+01  0.47787274927E+02  0.20000017703E+02 0.  0.
         12    1    1    2    0    0 -0.10030543159E+02 -0.42178687042E+02 -0.19923604506E+01  0.43400725073E+02  0.00000000000E+00 0. -1.
         11    1    3    3    0    0 -0.37262120786E+01  0.13524567932E+02  0.77505821278E+00  0.14049886466E+02  0.51100000000E-03 0. -1.
        -11    1    3    3    0    0  0.40622599545E+01  0.14655390801E+02  0.55124164597E+01  0.16176191485E+02  0.51100000000E-03 0.  1.
        -12    1    3    3    0    0  0.96944952829E+01  0.13998728309E+02 -0.42951142220E+01  0.17561196976E+02  0.00000000000E+00 0.  1.
</event>
<event>
 7    1  0.4875579E-009  0.4778727E+02  0.7816164E-02  0.1312668E+00
        -11   -1    0    0    0    0  0.00000000000E+00  0.00000000000E+00  0.45593999997E+02  0.45594000000E+02  0.51100000000E-03 0. -1.
         11   -1    0    0    0    0 -0.00000000000E+00 -0.00000000000E+00 -0.45593999997E+02  0.45594000000E+02  0.51100000000E-03 0.  1.
    9900012    2    1    2    0    0  0.13306333397E+02  0.21104957310E+02 -0.35512609336E+02  0.47787272433E+02  0.20000006331E+02 0.  0.
         12    1    1    2    0    0 -0.13306333397E+02 -0.21104957310E+02  0.35512609336E+02  0.43400727567E+02  0.00000000000E+00 0. -1.
         11    1    3    3    0    0  0.86497908582E+01  0.17343384182E+02 -0.21085374306E+02  0.28639219030E+02  0.51100000000E-03 0. -1.
        -11    1    3    3    0    0  0.54545931869E+01  0.55573964359E+01 -0.15166247784E+02  0.17048528208E+02  0.51100000000E-03 0.  1.
         12    1    3    3    0    0 -0.79805064806E+00 -0.17958233081E+01  0.73901275425E+00  0.20995251943E+01  0.00000000000E+00 0. -1.
</event>
<event>
 7    1  0.4875579E-009  0.4778727E+02  0.7816164E-02  0.1312668E+00
        -11   -1    0    0    0    0  0.00000000000E+00  0.00000000000E+00  0.45593999997E+02  0.45594000000E+02  0.51100000000E-03 0.  1.
         11   -1    0    0    0    0 -0.00000000000E+00 -0.00000000000E+00 -0.45593999997E+02  0.45594000000E+02  0.51100000000E-03 0. -1.
    9900012    2    1    2    0    0  0.24223877064E+02  0.90035437845E+01  0.34867796480E+02  0.47787271296E+02  0.20000001145E+02 0.  0.
         12    1    1    2    0    0 -0.24223877064E+02 -0.90035437845E+01 -0.34867796480E+02  0.43400728704E+02  0.00000000000E+00 0. -1.
         11    1    3    3    0    0  0.78241857879E+00 -0.26647772142E+01  0.76085024055E+00  0.28796023655E+01  0.51100000000E-03 0. -1.
        -11    1    3    3    0    0  0.55019963824E+01  0.27166499392E+00  0.16217172258E+02  0.17127242696E+02  0.51100000000E-03 0.  1.
        -12    1    3    3    0    0  0.17939462103E+02  0.11396656005E+02  0.17889773981E+02  0.27780426234E+02  0.00000000000E+00 0.  1.
</event>
<event>
 7    1  0.4875579E-009  0.4778727E+02  0.7816164E-02  0.1312668E+00
        -11   -1    0    0    0    0  0.00000000000E+00  0.00000000000E+00  0.45593999997E+02  0.45594000000E+02  0.51100000000E-03 0.  1.
         11   -1    0    0    0    0 -0.00000000000E+00 -0.00000000000E+00 -0.45593999997E+02  0.45594000000E+02  0.51100000000E-03 0. -1.
    9900012    2    1    2    0    0 -0.14320460028E+02 -0.19905058704E+02  0.35809725982E+02  0.47787269449E+02  0.19999992728E+02 0.  0.
         12    1    1    2    0    0  0.14320460028E+02  0.19905058704E+02 -0.35809725982E+02  0.43400730551E+02  0.00000000000E+00 0. -1.
         11    1    3    3    0    0 -0.13545929935E+02 -0.50865228553E+01  0.21750476404E+02  0.26123708708E+02  0.51100000000E-03 0. -1.
        -11    1    3    3    0    0  0.46251626720E+00 -0.28794370052E+01  0.73618855284E+01  0.79184870751E+01  0.51100000000E-03 0.  1.
         12    1    3    3    0    0 -0.12370463607E+01 -0.11939098844E+02  0.66973640489E+01  0.13745073667E+02  0.00000000000E+00 0. -1.
</event>
<event>
 7    1  0.4875579E-009  0.4778727E+02  0.7816164E-02  0.1312668E+00
        -11   -1    0    0    0    0  0.00000000000E+00  0.00000000000E+00  0.45593999997E+02  0.45594000000E+02  0.51100000000E-03 0.  1.
         11   -1    0    0    0    0 -0.00000000000E+00 -0.00000000000E+00 -0.45593999997E+02  0.45594000000E+02  0.51100000000E-03 0. -1.
    9900012    2    1    2    0    0  0.19703729730E+02 -0.83879550149E+01  0.37749547307E+02  0.47787273319E+02  0.20000010371E+02 0.  0.
         12    1    1    2    0    0 -0.19703729730E+02  0.83879550149E+01 -0.37749547307E+02  0.43400726681E+02  0.00000000000E+00 0. -1.
         11    1    3    3    0    0  0.13201102711E+02 -0.10233847030E+02  0.13633691757E+02  0.21561036362E+02  0.51100000000E-03 0. -1.
        -11    1    3    3    0    0  0.63880523209E+01 -0.18132082734E+01  0.15970868405E+02  0.17296345700E+02  0.51100000000E-03 0.  1.
         12    1    3    3    0    0  0.11457469797E+00  0.36591002886E+01  0.81449871447E+01  0.89298912575E+01  0.00000000000E+00 0. -1.
</event>
<event>
 7    1  0.4875579E-009  0.4778728E+02  0.7816164E-02  0.1312668E+00
        -11   -1    0    0    0    0  0.00000000000E+00  0.00000000000E+00  0.45593999997E+02  0.45594000000E+02  0.51100000000E-03 0. -1.
         11   -1    0    0    0    0 -0.00000000000E+00 -0.00000000000E+00 -0.45593999997E+02  0.45594000000E+02  0.51100000000E-03 0.  1.
    9900012    2    1    2    0    0  0.13638188222E+02 -0.82057041111E+00 -0.41194040745E+02  0.47787279884E+02  0.20000040301E+02 0.  0.
         12    1    1    2    0    0 -0.13638188222E+02  0.82057041111E+00  0.41194040745E+02  0.43400720116E+02  0.00000000000E+00 0. -1.
         11    1    3    3    0    0  0.15633558937E+01 -0.41836312596E+00 -0.89564516618E+01  0.91014908661E+01  0.51100000000E-03 0.  1.
        -11    1    3    3    0    0  0.31222627706E+01  0.12879408829E+01  0.15320787091E+01  0.37087170233E+01  0.51100000000E-03 0. -1.
         12    1    3    3    0    0  0.89525695574E+01 -0.16901481680E+01 -0.33769667792E+02  0.34977071994E+02  0.00000000000E+00 0. -1.
</event>
<event>
 7    1  0.4875579E-009  0.4778729E+02  0.7816164E-02  0.1312668E+00
        -11   -1    0    0    0    0  0.00000000000E+00  0.00000000000E+00  0.45593999997E+02  0.45594000000E+02  0.51100000000E-03 0.  1.
         11   -1    0    0    0    0 -0.00000000000E+00 -0.00000000000E+00 -0.45593999997E+02  0.45594000000E+02  0.51100000000E-03 0. -1.
    9900012    2    1    2    0    0  0.29463770831E+02 -0.23421494604E+02  0.21608837489E+02  0.47787285044E+02  0.20000063829E+02 0.  0.
         12    1    1    2    0    0 -0.29463770831E+02  0.23421494604E+02 -0.21608837489E+02  0.43400714956E+02  0.00000000000E+00 0. -1.
         11    1    3    3    0    0  0.22462439865E+01  0.16473353107E+01  0.88933171141E+00  0.29240787997E+01  0.51100000000E-03 0. -1.
        -11    1    3    3    0    0  0.16300778206E+02 -0.22715279471E+02  0.18362325893E+02  0.33449578533E+02  0.51100000000E-03 0.  1.
         12    1    3    3    0    0  0.10916748638E+02 -0.23535504443E+01  0.23571798847E+01  0.11413627711E+02  0.00000000000E+00 0. -1.
</event>
<event>
 7    1  0.4875579E-009  0.4778727E+02  0.7816164E-02  0.1312668E+00
        -11   -1    0    0    0    0  0.00000000000E+00  0.00000000000E+00  0.45593999997E+02  0.45594000000E+02  0.51100000000E-03 0.  1.
         11   -1    0    0    0    0 -0.00000000000E+00 -0.00000000000E+00 -0.45593999997E+02  0.45594000000E+02  0.51100000000E-03 0. -1.
    9900012    2    1    2    0    0  0.36165940186E+01 -0.43220841004E+02  0.15819435499E+01  0.47787269652E+02  0.19999993650E+02 0.  0.
         12    1    1    2    0    0 -0.36165940186E+01  0.43220841004E+02 -0.15819435499E+01  0.43400730348E+02  0.00000000000E+00 0. -1.
         11    1    3    3    0    0  0.47662291967E+01 -0.89851081497E+01  0.63050813917E+01  0.11966752309E+02  0.51100000000E-03 0. -1.
        -11    1    3    3    0    0 -0.26886686789E+01 -0.23359931285E+01 -0.22967959429E+00  0.35691113934E+01  0.51100000000E-03 0.  1.
        -12    1    3    3    0    0  0.15390335009E+01 -0.31899739726E+02 -0.44934582475E+01  0.32251405949E+02  0.00000000000E+00 0.  1.
</event>
<event>
 7    1  0.4875579E-009  0.4778727E+02  0.7816164E-02  0.1312668E+00
        -11   -1    0    0    0    0  0.00000000000E+00  0.00000000000E+00  0.45593999997E+02  0.45594000000E+02  0.51100000000E-03 0.  1.
         11   -1    0    0    0    0 -0.00000000000E+00 -0.00000000000E+00 -0.45593999997E+02  0.45594000000E+02  0.51100000000E-03 0. -1.
    9900012    2    1    2    0    0  0.10608432020E+02 -0.41877407642E+02  0.41673929348E+01  0.47787271151E+02  0.20000000485E+02 0.  0.
         12    1    1    2    0    0 -0.10608432020E+02  0.41877407642E+02 -0.41673929348E+01  0.43400728849E+02  0.00000000000E+00 0. -1.
         11    1    3    3    0    0  0.73419824532E+00  0.12025845702E+01 -0.70252814528E-01  0.14107418017E+01  0.51100000000E-03 0. -1.
        -11    1    3    3    0    0  0.62262568985E+01 -0.14754333152E+02  0.74019825615E+01  0.17642164488E+02  0.51100000000E-03 0.  1.
        -12    1    3    3    0    0  0.36479768765E+01 -0.28325659060E+02 -0.31643368122E+01  0.28734364861E+02  0.00000000000E+00 0.  1.
</event>
<event>
 7    1  0.4875579E-009  0.4778727E+02  0.7816164E-02  0.1312668E+00
        -11   -1    0    0    0    0  0.00000000000E+00  0.00000000000E+00  0.45593999997E+02  0.45594000000E+02  0.51100000000E-03 0.  1.
         11   -1    0    0    0    0 -0.00000000000E+00 -0.00000000000E+00 -0.45593999997E+02  0.45594000000E+02  0.51100000000E-03 0. -1.
    9900012    2    1    2    0    0  0.34002429567E+02  0.26336470651E+02  0.58179517121E+01  0.47787268843E+02  0.19999989965E+02 0.  0.
         12    1    1    2    0    0 -0.34002429567E+02 -0.26336470651E+02 -0.58179517121E+01  0.43400731157E+02  0.00000000000E+00 0. -1.
         11    1    3    3    0    0 -0.23457833494E+01  0.23965498548E+01  0.11394237246E+01  0.35418127300E+01  0.51100000000E-03 0. -1.
        -11    1    3    3    0    0  0.88016218892E+01  0.29295792321E+01 -0.72100911001E-01  0.92766470861E+01  0.51100000000E-03 0.  1.
         12    1    3    3    0    0  0.27546591027E+02  0.21010341564E+02  0.47506288985E+01  0.34968809027E+02  0.00000000000E+00 0. -1.
</event>
<event>
 7    1  0.4875579E-009  0.4778727E+02  0.7816164E-02  0.1312668E+00
        -11   -1    0    0    0    0  0.00000000000E+00  0.00000000000E+00  0.45593999997E+02  0.45594000000E+02  0.51100000000E-03 0.  1.
         11   -1    0    0    0    0 -0.00000000000E+00 -0.00000000000E+00 -0.45593999997E+02  0.45594000000E+02  0.51100000000E-03 0. -1.
    9900012    2    1    2    0    0 -0.14102012917E+02 -0.41010974255E+02  0.16901450204E+01  0.47787269962E+02  0.19999995064E+02 0.  0.
         12    1    1    2    0    0  0.14102012917E+02  0.41010974255E+02 -0.16901450204E+01  0.43400730038E+02  0.00000000000E+00 0. -1.
         11    1    3    3    0    0 -0.12880921101E+02 -0.21812880830E+02 -0.29319006133E+01  0.25501292908E+02  0.51100000000E-03 0. -1.
        -11    1    3    3    0    0 -0.49122063073E+01 -0.45912416084E+01  0.17633113472E+01  0.69511536798E+01  0.51100000000E-03 0.  1.
         12    1    3    3    0    0  0.36911144918E+01 -0.14606851816E+02  0.28587342866E+01  0.15334823374E+02  0.00000000000E+00 0. -1.
</event>
<event>
 7    1  0.4875579E-009  0.4778734E+02  0.7816164E-02  0.1312667E+00
        -11   -1    0    0    0    0  0.00000000000E+00  0.00000000000E+00  0.45593999997E+02  0.45594000000E+02  0.51100000000E-03 0.  1.
         11   -1    0    0    0    0 -0.00000000000E+00 -0.00000000000E+00 -0.45593999997E+02  0.45594000000E+02  0.51100000000E-03 0. -1.
    9900012    2    1    2    0    0 -0.12529525618E+02 -0.36732336567E+02 -0.19425860553E+02  0.47787336178E+02  0.20000296970E+02 0.  0.
         12    1    1    2    0    0  0.12529525618E+02  0.36732336567E+02  0.19425860553E+02  0.43400663822E+02  0.00000000000E+00 0. -1.
         11    1    3    3    0    0 -0.14175124306E+02 -0.22585951524E+02 -0.59135342242E+01  0.27313535886E+02  0.51100000000E-03 0. -1.
        -11    1    3    3    0    0 -0.19660207350E+01 -0.66753693854E+01 -0.48775045664E+01  0.84979906459E+01  0.51100000000E-03 0.  1.
         12    1    3    3    0    0  0.36116194223E+01 -0.74710156583E+01 -0.86348217627E+01  0.11975809647E+02  0.00000000000E+00 0. -1.
</event>
<event>
 7    1  0.4875579E-009  0.4778727E+02  0.7816164E-02  0.1312668E+00
        -11   -1    0    0    0    0  0.00000000000E+00  0.00000000000E+00  0.45593999997E+02  0.45594000000E+02  0.51100000000E-03 0.  1.
         11   -1    0    0    0    0 -0.00000000000E+00 -0.00000000000E+00 -0.45593999997E+02  0.45594000000E+02  0.51100000000E-03 0. -1.
    9900012    2    1    2    0    0 -0.51092268315E+01  0.22626582168E+01  0.43039510979E+02  0.47787270440E+02  0.19999997246E+02 0.  0.
         12    1    1    2    0    0  0.51092268315E+01 -0.22626582168E+01 -0.43039510979E+02  0.43400729560E+02  0.00000000000E+00 0. -1.
         11    1    3    3    0    0  0.32464138725E+01 -0.18289373148E+01  0.22060039515E+01  0.43302042017E+01  0.51100000000E-03 0. -1.
        -11    1    3    3    0    0  0.17489461110E+01  0.93437617195E+00  0.19904090536E+02  0.20002617120E+02  0.51100000000E-03 0.  1.
         12    1    3    3    0    0 -0.10104586815E+02  0.31572193597E+01  0.20929416491E+02  0.23454449119E+02  0.00000000000E+00 0. -1.
</event>
<event>
 7    1  0.4875579E-009  0.4778727E+02  0.7816164E-02  0.1312668E+00
        -11   -1    0    0    0    0  0.00000000000E+00  0.00000000000E+00  0.45593999997E+02  0.45594000000E+02  0.51100000000E-03 0.  1.
         11   -1    0    0    0    0 -0.00000000000E+00 -0.00000000000E+00 -0.45593999997E+02  0.45594000000E+02  0.51100000000E-03 0. -1.
    9900012    2    1    2    0    0 -0.14408492159E+02 -0.40253079839E+02  0.74637900920E+01  0.47787271373E+02  0.20000001498E+02 0.  0.
         12    1    1    2    0    0  0.14408492159E+02  0.40253079839E+02 -0.74637900920E+01  0.43400728627E+02  0.00000000000E+00 0. -1.
         11    1    3    3    0    0 -0.26459744493E+01 -0.85269428122E+01  0.41186794517E+01  0.98322660255E+01  0.51100000000E-03 0. -1.
        -11    1    3    3    0    0  0.36844672814E+01 -0.11974948810E+02 -0.73707005584E+00  0.12550616346E+02  0.51100000000E-03 0.  1.
         12    1    3    3    0    0 -0.15446984991E+02 -0.19751188217E+02  0.40821806961E+01  0.25404389001E+02  0.00000000000E+00 0. -1.
</event>
<event>
 7    1  0.4875579E-009  0.4778727E+02  0.7816164E-02  0.1312668E+00
        -11   -1    0    0    0    0  0.00000000000E+00  0.00000000000E+00  0.45593999997E+02  0.45594000000E+02  0.51100000000E-03 0.  1.
         11   -1    0    0    0    0 -0.00000000000E+00 -0.00000000000E+00 -0.45593999997E+02  0.45594000000E+02  0.51100000000E-03 0. -1.
    9900012    2    1    2    0    0 -0.65750360402E+01 -0.66467558950E+01  0.42381749050E+02  0.47787272871E+02  0.20000008326E+02 0.  0.
         12    1    1    2    0    0  0.65750360402E+01  0.66467558950E+01 -0.42381749050E+02  0.43400727129E+02  0.00000000000E+00 0. -1.
         11    1    3    3    0    0 -0.22636452858E+01  0.31668417141E+01  0.47247360109E+01  0.61217731954E+01  0.51100000000E-03 0. -1.
        -11    1    3    3    0    0 -0.35846698952E+01  0.25074967971E+00  0.26002825039E+02  0.26249945598E+02  0.51100000000E-03 0.  1.
         12    1    3    3    0    0 -0.72672085929E+00 -0.10064347289E+02  0.11654188000E+02  0.15415554077E+02  0.00000000000E+00 0. -1.
</event>
<event>
 7    1  0.4875579E-009  0.4778727E+02  0.7816164E-02  0.1312668E+00
        -11   -1    0    0    0    0  0.00000000000E+00  0.00000000000E+00  0.45593999997E+02  0.45594000000E+02  0.51100000000E-03 0. -1.
         11   -1    0    0    0    0 -0.00000000000E+00 -0.00000000000E+00 -0.45593999997E+02  0.45594000000E+02  0.51100000000E-03 0.  1.
    9900012    2    1    2    0    0 -0.75690542479E+01 -0.22823270985E+02 -0.36130751785E+02  0.47787268379E+02  0.19999987849E+02 0.  0.
         12    1    1    2    0    0  0.75690542479E+01  0.22823270985E+02  0.36130751785E+02  0.43400731621E+02  0.00000000000E+00 0. -1.
         11    1    3    3    0    0 -0.49068734158E+01 -0.10184155650E+01 -0.28638524412E+01  0.57720211406E+01  0.51100000000E-03 0. -1.
        -11    1    3    3    0    0 -0.19152273480E+01 -0.12085421685E+02 -0.72282798805E+01  0.14211739633E+02  0.51100000000E-03 0.  1.
        -12    1    3    3    0    0 -0.74695348402E+00 -0.97194337351E+01 -0.26038619463E+02  0.27803507606E+02  0.00000000000E+00 0.  1.
</event>
<event>
 7    1  0.4875579E-009  0.4778728E+02  0.7816164E-02  0.1312668E+00
        -11   -1    0    0    0    0  0.00000000000E+00  0.00000000000E+00  0.45593999997E+02  0.45594000000E+02  0.51100000000E-03 0.  1.
         11   -1    0    0    0    0 -0.00000000000E+00 -0.00000000000E+00 -0.45593999997E+02  0.45594000000E+02  0.51100000000E-03 0. -1.
    9900012    2    1    2    0    0  0.11769184760E+02  0.24799104729E+02  0.33617157184E+02  0.47787279241E+02  0.20000037371E+02 0.  0.
         12    1    1    2    0    0 -0.11769184760E+02 -0.24799104729E+02 -0.33617157184E+02  0.43400720759E+02  0.00000000000E+00 0. -1.
         11    1    3    3    0    0  0.25589281963E+01  0.11686554510E+02  0.24807118636E+02  0.27541183800E+02  0.51100000000E-03 0.  1.
        -11    1    3    3    0    0  0.33453989552E+01  0.57500315373E+00  0.47183589880E+01  0.58125067395E+01  0.51100000000E-03 0. -1.
        -12    1    3    3    0    0  0.58648576080E+01  0.12537547065E+02  0.40916795599E+01  0.14433588701E+02  0.00000000000E+00 0.  1.
</event>
<event>
 7    1  0.4875579E-009  0.4778729E+02  0.7816164E-02  0.1312668E+00
        -11   -1    0    0    0    0  0.00000000000E+00  0.00000000000E+00  0.45593999997E+02  0.45594000000E+02  0.51100000000E-03 0.  1.
         11   -1    0    0    0    0 -0.00000000000E+00 -0.00000000000E+00 -0.45593999997E+02  0.45594000000E+02  0.51100000000E-03 0. -1.
    9900012    2    1    2    0    0 -0.43375101374E+02  0.14446573502E+01  0.36814905310E+00  0.47787285861E+02  0.20000067555E+02 0.  0.
         12    1    1    2    0    0  0.43375101374E+02 -0.14446573502E+01 -0.36814905310E+00  0.43400714139E+02  0.00000000000E+00 0. -1.
         11    1    3    3    0    0 -0.74297084074E+01  0.18391782310E+01  0.51590129602E+01  0.92303065262E+01  0.51100000000E-03 0. -1.
        -11    1    3    3    0    0 -0.69403048123E+00  0.15787378155E+01 -0.26805913424E+01  0.31874224077E+01  0.51100000000E-03 0.  1.
        -12    1    3    3    0    0 -0.35251362485E+02 -0.19732586963E+01 -0.21102725646E+01  0.35369556927E+02  0.00000000000E+00 0.  1.
</event>
<event>
 7    1  0.4875579E-009  0.4778725E+02  0.7816164E-02  0.1312668E+00
        -11   -1    0    0    0    0  0.00000000000E+00  0.00000000000E+00  0.45593999997E+02  0.45594000000E+02  0.51100000000E-03 0.  1.
         11   -1    0    0    0    0 -0.00000000000E+00 -0.00000000000E+00 -0.45593999997E+02  0.45594000000E+02  0.51100000000E-03 0. -1.
    9900012    2    1    2    0    0  0.67588505563E+01 -0.42339702686E+02  0.67299796889E+01  0.47787249880E+02  0.19999903502E+02 0.  0.
         12    1    1    2    0    0 -0.67588505563E+01  0.42339702686E+02 -0.67299796889E+01  0.43400750120E+02  0.00000000000E+00 0. -1.
         11    1    3    3    0    0  0.24078522401E+01 -0.39830646569E+01  0.45490038730E+01  0.65081481982E+01  0.51100000000E-03 0.  1.
        -11    1    3    3    0    0 -0.10572759037E+01 -0.37045531729E+00  0.26820009319E+01  0.29065785278E+01  0.51100000000E-03 0. -1.
        -12    1    3    3    0    0  0.54082742198E+01 -0.37986182712E+02 -0.50102511592E+00  0.38372523154E+02  0.00000000000E+00 0.  1.
</event>
<event>
 7    1  0.4875579E-009  0.4778728E+02  0.7816164E-02  0.1312668E+00
        -11   -1    0    0    0    0  0.00000000000E+00  0.00000000000E+00  0.45593999997E+02  0.45594000000E+02  0.51100000000E-03 0. -1.
         11   -1    0    0    0    0 -0.00000000000E+00 -0.00000000000E+00 -0.45593999997E+02  0.45594000000E+02  0.51100000000E-03 0.  1.
    9900012    2    1    2    0    0 -0.21677585777E+02  0.59631406718E+01  0.37123387672E+02  0.47787277840E+02  0.20000030982E+02 0.  0.
         12    1    1    2    0    0  0.21677585777E+02 -0.59631406718E+01 -0.37123387672E+02  0.43400722160E+02  0.00000000000E+00 0. -1.
         11    1    3    3    0    0 -0.21642659921E+00  0.76535406932E+01  0.10438134710E+02  0.12945199191E+02  0.51100000000E-03 0. -1.
        -11    1    3    3    0    0 -0.58563446080E+01  0.10782087382E+01  0.40170627083E+01  0.71830424831E+01  0.51100000000E-03 0.  1.
         12    1    3    3    0    0 -0.15604814570E+02 -0.27686087595E+01  0.22668190254E+02  0.27659036165E+02  0.00000000000E+00 0. -1.
</event>
<event>
 7    1  0.4875579E-009  0.4778727E+02  0.7816164E-02  0.1312668E+00
        -11   -1    0    0    0    0  0.00000000000E+00  0.00000000000E+00  0.45593999997E+02  0.45594000000E+02  0.51100000000E-03 0.  1.
         11   -1    0    0    0    0 -0.00000000000E+00 -0.00000000000E+00 -0.45593999997E+02  0.45594000000E+02  0.51100000000E-03 0. -1.
    9900012    2    1    2    0    0 -0.61420830978E+00  0.42020919159E+02 -0.10839199837E+02  0.47787272450E+02  0.20000006408E+02 0.  0.
         12    1    1    2    0    0  0.61420830978E+00 -0.42020919159E+02  0.10839199837E+02  0.43400727550E+02  0.00000000000E+00 0. -1.
         11    1    3    3    0    0 -0.52855103079E+01  0.64967105897E+01 -0.45427343417E+01  0.95278698177E+01  0.51100000000E-03 0. -1.
        -11    1    3    3    0    0 -0.91723979223E-01  0.26740607929E+02 -0.84382115529E+01  0.28040541011E+02  0.51100000000E-03 0.  1.
         12    1    3    3    0    0  0.47630259774E+01  0.87836006399E+01  0.21417460578E+01  0.10218861621E+02  0.00000000000E+00 0. -1.
</event>
<event>
 7    1  0.4875579E-009  0.4778727E+02  0.7816164E-02  0.1312668E+00
        -11   -1    0    0    0    0  0.00000000000E+00  0.00000000000E+00  0.45593999997E+02  0.45594000000E+02  0.51100000000E-03 0.  1.
         11   -1    0    0    0    0 -0.00000000000E+00 -0.00000000000E+00 -0.45593999997E+02  0.45594000000E+02  0.51100000000E-03 0. -1.
    9900012    2    1    2    0    0  0.23836268441E+02  0.59273795751E+01  0.35781583771E+02  0.47787271217E+02  0.20000000785E+02 0.  0.
         12    1    1    2    0    0 -0.23836268441E+02 -0.59273795751E+01 -0.35781583771E+02  0.43400728783E+02  0.00000000000E+00 0. -1.
         11    1    3    3    0    0  0.10465266301E+02  0.42334309819E+01  0.46295880097E+01  0.12201509006E+02  0.51100000000E-03 0. -1.
        -11    1    3    3    0    0  0.35803427701E+01 -0.31909486943E+01  0.37755542019E+01  0.61037543949E+01  0.51100000000E-03 0.  1.
        -12    1    3    3    0    0  0.97906593700E+01  0.48848972876E+01  0.27376441559E+02  0.29482007816E+02  0.00000000000E+00 0.  1.
</event>
<event>
 7    1  0.4875579E-009  0.4778727E+02  0.7816164E-02  0.1312668E+00
        -11   -1    0    0    0    0  0.00000000000E+00  0.00000000000E+00  0.45593999997E+02  0.45594000000E+02  0.51100000000E-03 0. -1.
         11   -1    0    0    0    0 -0.00000000000E+00 -0.00000000000E+00 -0.45593999997E+02  0.45594000000E+02  0.51100000000E-03 0.  1.
    9900012    2    1    2    0    0  0.40134574890E+02 -0.12128873112E+02  0.11212941898E+02  0.47787265783E+02  0.19999976011E+02 0.  0.
         12    1    1    2    0    0 -0.40134574890E+02  0.12128873112E+02 -0.11212941898E+02  0.43400734217E+02  0.00000000000E+00 0. -1.
         11    1    3    3    0    0  0.17975673906E+02 -0.48045390647E+01  0.91429279609E+01  0.20731656469E+02  0.51100000000E-03 0. -1.
        -11    1    3    3    0    0  0.19199936473E+02 -0.10322697997E+02  0.44044155864E+01  0.22239481366E+02  0.51100000000E-03 0.  1.
         12    1    3    3    0    0  0.29589645112E+01  0.29983639495E+01 -0.23344016495E+01  0.48161279482E+01  0.00000000000E+00 0. -1.
</event>
<event>
 7    1  0.4875579E-009  0.4778729E+02  0.7816164E-02  0.1312668E+00
        -11   -1    0    0    0    0  0.00000000000E+00  0.00000000000E+00  0.45593999997E+02  0.45594000000E+02  0.51100000000E-03 0.  1.
         11   -1    0    0    0    0 -0.00000000000E+00 -0.00000000000E+00 -0.45593999997E+02  0.45594000000E+02  0.51100000000E-03 0. -1.
    9900012    2    1    2    0    0  0.40094514306E+01 -0.31043731887E+02  0.30063812324E+02  0.47787288004E+02  0.20000077327E+02 0.  0.
         12    1    1    2    0    0 -0.40094514306E+01  0.31043731887E+02 -0.30063812324E+02  0.43400711996E+02  0.00000000000E+00 0. -1.
         11    1    3    3    0    0  0.64284188112E+01 -0.21504559151E+01  0.37336828435E+01  0.77388252915E+01  0.51100000000E-03 0. -1.
        -11    1    3    3    0    0  0.93934902453E+00 -0.26783349797E+01  0.62241583623E+01  0.68407603695E+01  0.51100000000E-03 0.  1.
        -12    1    3    3    0    0 -0.33583164052E+01 -0.26214940993E+02  0.20105971118E+02  0.33207702343E+02  0.00000000000E+00 0.  1.
</event>
<event>
 7    1  0.4875579E-009  0.4778727E+02  0.7816164E-02  0.1312668E+00
        -11   -1    0    0    0    0  0.00000000000E+00  0.00000000000E+00  0.45593999997E+02  0.45594000000E+02  0.51100000000E-03 0.  1.
         11   -1    0    0    0    0 -0.00000000000E+00 -0.00000000000E+00 -0.45593999997E+02  0.45594000000E+02  0.51100000000E-03 0. -1.
    9900012    2    1    2    0    0  0.33194444149E+02  0.97562377513E-02  0.27959831757E+02  0.47787269483E+02  0.19999992881E+02 0.  0.
         12    1    1    2    0    0 -0.33194444149E+02 -0.97562377513E-02 -0.27959831757E+02  0.43400730517E+02  0.00000000000E+00 0. -1.
         11    1    3    3    0    0  0.11992900358E+01 -0.19373565120E+01  0.10442637799E+02  0.10688326871E+02  0.51100000000E-03 0. -1.
        -11    1    3    3    0    0  0.64027452980E+01  0.14765985869E+00  0.66625918586E+01  0.92415951718E+01  0.51100000000E-03 0.  1.
         12    1    3    3    0    0  0.25592408815E+02  0.17994528911E+01  0.10854602099E+02  0.27857347440E+02  0.00000000000E+00 0. -1.
</event>
<event>
 7    1  0.4875579E-009  0.4778727E+02  0.7816164E-02  0.1312668E+00
        -11   -1    0    0    0    0  0.00000000000E+00  0.00000000000E+00  0.45593999997E+02  0.45594000000E+02  0.51100000000E-03 0. -1.
         11   -1    0    0    0    0 -0.00000000000E+00 -0.00000000000E+00 -0.45593999997E+02  0.45594000000E+02  0.51100000000E-03 0.  1.
    9900012    2    1    2    0    0  0.40667508852E+02  0.22083937588E+01 -0.14996667082E+02  0.47787270712E+02  0.19999998482E+02 0.  0.
         12    1    1    2    0    0 -0.40667508852E+02 -0.22083937588E+01  0.14996667082E+02  0.43400729288E+02  0.00000000000E+00 0. -1.
         11    1    3    3    0    0  0.88869227901E+00 -0.44221649326E+00 -0.38126004490E+01  0.39397019987E+01  0.51100000000E-03 0. -1.
        -11    1    3    3    0    0  0.18559764994E+02 -0.50725069539E+01 -0.87476131776E+01  0.21135655656E+02  0.51100000000E-03 0.  1.
         12    1    3    3    0    0  0.21219051579E+02  0.77231172060E+01 -0.24364534555E+01  0.22711913057E+02  0.00000000000E+00 0. -1.
</event>
<event>
 7    1  0.4875579E-009  0.4778727E+02  0.7816164E-02  0.1312668E+00
        -11   -1    0    0    0    0  0.00000000000E+00  0.00000000000E+00  0.45593999997E+02  0.45594000000E+02  0.51100000000E-03 0. -1.
         11   -1    0    0    0    0 -0.00000000000E+00 -0.00000000000E+00 -0.45593999997E+02  0.45594000000E+02  0.51100000000E-03 0.  1.
    9900012    2    1    2    0    0 -0.10426110443E+02 -0.37426193466E+02 -0.19344239766E+02  0.47787270185E+02  0.19999996081E+02 0.  0.
         12    1    1    2    0    0  0.10426110443E+02  0.37426193466E+02  0.19344239766E+02  0.43400729815E+02  0.00000000000E+00 0. -1.
         11    1    3    3    0    0 -0.64887604170E+01 -0.12873352930E+02 -0.32445508309E+01  0.14776817579E+02  0.51100000000E-03 0. -1.
        -11    1    3    3    0    0 -0.52732989681E+01 -0.16313249871E+01 -0.52416172605E+01  0.76120598386E+01  0.51100000000E-03 0.  1.
        -12    1    3    3    0    0  0.13359489424E+01 -0.22921515550E+02 -0.10858071675E+02  0.25398392767E+02  0.00000000000E+00 0.  1.
</event>
<event>
 7    1  0.4875579E-009  0.4778727E+02  0.7816164E-02  0.1312668E+00
        -11   -1    0    0    0    0  0.00000000000E+00  0.00000000000E+00  0.45593999997E+02  0.45594000000E+02  0.51100000000E-03 0.  1.
         11   -1    0    0    0    0 -0.00000000000E+00 -0.00000000000E+00 -0.45593999997E+02  0.45594000000E+02  0.51100000000E-03 0. -1.
    9900012    2    1    2    0    0 -0.65961317025E+01 -0.35576259387E+02  0.23967560837E+02  0.47787272381E+02  0.20000006092E+02 0.  0.
         12    1    1    2    0    0  0.65961317025E+01  0.35576259387E+02 -0.23967560837E+02  0.43400727619E+02  0.00000000000E+00 0. -1.
         11    1    3    3    0    0 -0.93346949799E+00 -0.51698975417E+01  0.10832121050E+02  0.12038855951E+02  0.51100000000E-03 0. -1.
        -11    1    3    3    0    0  0.38785191398E+01 -0.87868602239E+01  0.33690072820E+01  0.10178508419E+02  0.51100000000E-03 0.  1.
         12    1    3    3    0    0 -0.95411813443E+01 -0.21619501622E+02  0.97664325048E+01  0.25569908011E+02  0.00000000000E+00 0. -1.
</event>
<event>
 7    1  0.4875579E-009  0.4778727E+02  0.7816164E-02  0.1312668E+00
        -11   -1    0    0    0    0  0.00000000000E+00  0.00000000000E+00  0.45593999997E+02  0.45594000000E+02  0.51100000000E-03 0.  1.
         11   -1    0    0    0    0 -0.00000000000E+00 -0.00000000000E+00 -0.45593999997E+02  0.45594000000E+02  0.51100000000E-03 0. -1.
    9900012    2    1    2    0    0 -0.41345160506E+02  0.12248070394E+02  0.49178852596E+01  0.47787272805E+02  0.20000008026E+02 0.  0.
         12    1    1    2    0    0  0.41345160506E+02 -0.12248070394E+02 -0.49178852596E+01  0.43400727195E+02  0.00000000000E+00 0. -1.
         11    1    3    3    0    0 -0.57371072914E+00 -0.21757979379E+00  0.16149826354E+01  0.17276151601E+01  0.51100000000E-03 0. -1.
        -11    1    3    3    0    0 -0.21564258667E+02  0.14499586299E+02  0.56804267971E+01  0.26599295170E+02  0.51100000000E-03 0.  1.
         12    1    3    3    0    0 -0.19207191110E+02 -0.20339361114E+01 -0.23775241730E+01  0.19460362475E+02  0.00000000000E+00 0. -1.
</event>
<event>
 7    1  0.4875579E-009  0.4778726E+02  0.7816164E-02  0.1312668E+00
        -11   -1    0    0    0    0  0.00000000000E+00  0.00000000000E+00  0.45593999997E+02  0.45594000000E+02  0.51100000000E-03 0.  1.
         11   -1    0    0    0    0 -0.00000000000E+00 -0.00000000000E+00 -0.45593999997E+02  0.45594000000E+02  0.51100000000E-03 0. -1.
    9900012    2    1    2    0    0  0.33164375155E+02 -0.20315446048E+02 -0.19262161895E+02  0.47787262582E+02  0.19999961417E+02 0.  0.
         12    1    1    2    0    0 -0.33164375155E+02  0.20315446048E+02  0.19262161895E+02  0.43400737418E+02  0.00000000000E+00 0. -1.
         11    1    3    3    0    0 -0.12309896264E+01 -0.36508143931E+01  0.98031163372E+00  0.39755241609E+01  0.51100000000E-03 0. -1.
        -11    1    3    3    0    0  0.86532719694E+01 -0.97478385251E+00 -0.46010023025E+01  0.98487837718E+01  0.51100000000E-03 0.  1.
         12    1    3    3    0    0  0.25742092812E+02 -0.15689847803E+02 -0.15641471226E+02  0.33962954649E+02  0.00000000000E+00 0. -1.
</event>
<event>
 7    1  0.4875579E-009  0.4778727E+02  0.7816164E-02  0.1312668E+00
        -11   -1    0    0    0    0  0.00000000000E+00  0.00000000000E+00  0.45593999997E+02  0.45594000000E+02  0.51100000000E-03 0. -1.
         11   -1    0    0    0    0 -0.00000000000E+00 -0.00000000000E+00 -0.45593999997E+02  0.45594000000E+02  0.51100000000E-03 0.  1.
    9900012    2    1    2    0    0  0.36383443526E+02 -0.22729090388E+02  0.65769828323E+01  0.47787271713E+02  0.20000003048E+02 0.  0.
         12    1    1    2    0    0 -0.36383443526E+02  0.22729090388E+02 -0.65769828323E+01  0.43400728287E+02  0.00000000000E+00 0. -1.
         11    1    3    3    0    0 -0.83171100906E+00 -0.28853760802E+01  0.20112458750E+01  0.36141732882E+01  0.51100000000E-03 0. -1.
        -11    1    3    3    0    0  0.62850055158E+01 -0.31214486572E+01 -0.38704248025E+01  0.80140454495E+01  0.51100000000E-03 0.  1.
        -12    1    3    3    0    0  0.30930149019E+02 -0.16722265651E+02  0.84361617598E+01  0.36159052975E+02  0.00000000000E+00 0.  1.
</event>
<event>
 7    1  0.4875579E-009  0.4778727E+02  0.7816164E-02  0.1312668E+00
        -11   -1    0    0    0    0  0.00000000000E+00  0.00000000000E+00  0.45593999997E+02  0.45594000000E+02  0.51100000000E-03 0.  1.
         11   -1    0    0    0    0 -0.00000000000E+00 -0.00000000000E+00 -0.45593999997E+02  0.45594000000E+02  0.51100000000E-03 0. -1.
    9900012    2    1    2    0    0  0.96947274244E+01 -0.83600800449E+01  0.41469802999E+02  0.47787271447E+02  0.20000001834E+02 0.  0.
         12    1    1    2    0    0 -0.96947274244E+01  0.83600800449E+01 -0.41469802999E+02  0.43400728553E+02  0.00000000000E+00 0. -1.
         11    1    3    3    0    0  0.39639745074E+01 -0.11636339156E+02  0.22061673820E+02  0.25255394173E+02  0.51100000000E-03 0. -1.
        -11    1    3    3    0    0  0.19798226590E+01 -0.98895051877E+00 -0.98363732805E-01  0.22152644481E+01  0.51100000000E-03 0.  1.
        -12    1    3    3    0    0  0.37509302580E+01  0.42652096298E+01  0.19506492911E+02  0.20316612825E+02  0.00000000000E+00 0.  1.
</event>
<event>
 7    1  0.4875579E-009  0.4778727E+02  0.7816164E-02  0.1312668E+00
        -11   -1    0    0    0    0  0.00000000000E+00  0.00000000000E+00  0.45593999997E+02  0.45594000000E+02  0.51100000000E-03 0.  1.
         11   -1    0    0    0    0 -0.00000000000E+00 -0.00000000000E+00 -0.45593999997E+02  0.45594000000E+02  0.51100000000E-03 0. -1.
    9900012    2    1    2    0    0 -0.16550191742E+02 -0.60578061808E+01  0.39661287266E+02  0.47787267633E+02  0.19999984446E+02 0.  0.
         12    1    1    2    0    0  0.16550191742E+02  0.60578061808E+01 -0.39661287266E+02  0.43400732367E+02  0.00000000000E+00 0. -1.
         11    1    3    3    0    0  0.42640653192E+00 -0.42961282199E+01  0.14451257892E+02  0.15082353767E+02  0.51100000000E-03 0. -1.
        -11    1    3    3    0    0 -0.26451460537E+01 -0.50057526247E+01  0.10406035514E+02  0.11846515621E+02  0.51100000000E-03 0.  1.
        -12    1    3    3    0    0 -0.14331452220E+02  0.32440746637E+01  0.14803993860E+02  0.20858398245E+02  0.00000000000E+00 0.  1.
</event>
<event>
 7    1  0.4875579E-009  0.4778727E+02  0.7816164E-02  0.1312668E+00
        -11   -1    0    0    0    0  0.00000000000E+00  0.00000000000E+00  0.45593999997E+02  0.45594000000E+02  0.51100000000E-03 0. -1.
         11   -1    0    0    0    0 -0.00000000000E+00 -0.00000000000E+00 -0.45593999997E+02  0.45594000000E+02  0.51100000000E-03 0.  1.
    9900012    2    1    2    0    0  0.73385223451E+00  0.13877467473E+02 -0.41115697018E+02  0.47787272082E+02  0.20000004729E+02 0.  0.
         12    1    1    2    0    0 -0.73385223451E+00 -0.13877467473E+02  0.41115697018E+02  0.43400727918E+02  0.00000000000E+00 0. -1.
         11    1    3    3    0    0 -0.34861005800E+01  0.80162704751E+01 -0.34947785501E+01  0.94141896603E+01  0.51100000000E-03 0. -1.
        -11    1    3    3    0    0  0.25980576302E-01  0.36243375058E+00 -0.57026303947E+01  0.57141952096E+01  0.51100000000E-03 0.  1.
         12    1    3    3    0    0  0.41939722382E+01  0.54987632470E+01 -0.31918288073E+02  0.32658887212E+02  0.00000000000E+00 0. -1.
</event>
<event>
 7    1  0.4875579E-009  0.4778728E+02  0.7816164E-02  0.1312668E+00
        -11   -1    0    0    0    0  0.00000000000E+00  0.00000000000E+00  0.45593999997E+02  0.45594000000E+02  0.51100000000E-03 0.  1.
         11   -1    0    0    0    0 -0.00000000000E+00 -0.00000000000E+00 -0.45593999997E+02  0.45594000000E+02  0.51100000000E-03 0. -1.
    9900012    2    1    2    0    0  0.17377894942E+01 -0.13541234752E+02  0.41197544957E+02  0.47787278100E+02  0.20000032171E+02 0.  0.
         12    1    1    2    0    0 -0.17377894942E+01  0.13541234752E+02 -0.41197544957E+02  0.43400721900E+02  0.00000000000E+00 0. -1.
         11    1    3    3    0    0  0.97551956053E+00  0.15675664367E+01  0.10021690440E+02  0.10190347516E+02  0.51100000000E-03 0. -1.
        -11    1    3    3    0    0 -0.56060285080E+01 -0.12972582848E+02  0.23245280481E+02  0.27204016731E+02  0.51100000000E-03 0.  1.
         12    1    3    3    0    0  0.63682984418E+01 -0.21362183405E+01  0.79305740358E+01  0.10392913854E+02  0.00000000000E+00 0. -1.
</event>
<event>
 7    1  0.4875579E-009  0.4778727E+02  0.7816164E-02  0.1312668E+00
        -11   -1    0    0    0    0  0.00000000000E+00  0.00000000000E+00  0.45593999997E+02  0.45594000000E+02  0.51100000000E-03 0.  1.
         11   -1    0    0    0    0 -0.00000000000E+00 -0.00000000000E+00 -0.45593999997E+02  0.45594000000E+02  0.51100000000E-03 0. -1.
    9900012    2    1    2    0    0 -0.16511321167E+02 -0.65655549261E+01  0.39596626197E+02  0.47787273689E+02  0.20000012056E+02 0.  0.
         12    1    1    2    0    0  0.16511321167E+02  0.65655549261E+01 -0.39596626197E+02  0.43400726311E+02  0.00000000000E+00 0. -1.
         11    1    3    3    0    0 -0.59849972710E+00  0.26766860999E+01  0.61037048842E+01  0.66916413514E+01  0.51100000000E-03 0. -1.
        -11    1    3    3    0    0 -0.74249670645E+01 -0.94877430449E-01  0.24799386746E+02  0.25887230846E+02  0.51100000000E-03 0.  1.
        -12    1    3    3    0    0 -0.84878543758E+01 -0.91473635956E+01  0.86935345663E+01  0.15208401491E+02  0.00000000000E+00 0.  1.
</event>
<event>
 7    1  0.4875579E-009  0.4778727E+02  0.7816164E-02  0.1312668E+00
        -11   -1    0    0    0    0  0.00000000000E+00  0.00000000000E+00  0.45593999997E+02  0.45594000000E+02  0.51100000000E-03 0. -1.
         11   -1    0    0    0    0 -0.00000000000E+00 -0.00000000000E+00 -0.45593999997E+02  0.45594000000E+02  0.51100000000E-03 0.  1.
    9900012    2    1    2    0    0  0.12632328653E+02  0.32956996008E+02 -0.25256366064E+02  0.47787270285E+02  0.19999996536E+02 0.  0.
         12    1    1    2    0    0 -0.12632328653E+02 -0.32956996008E+02  0.25256366064E+02  0.43400729715E+02  0.00000000000E+00 0. -1.
         11    1    3    3    0    0  0.18207915831E+01 -0.73403584676E+00 -0.14086576845E+01  0.24162796499E+01  0.51100000000E-03 0. -1.
        -11    1    3    3    0    0 -0.39491162703E+01  0.58937347421E+01 -0.37011959336E+01  0.80019047812E+01  0.51100000000E-03 0.  1.
        -12    1    3    3    0    0  0.14760653340E+02  0.27797297113E+02 -0.20146512445E+02  0.37369085854E+02  0.00000000000E+00 0.  1.
</event>
<event>
 7    1  0.4875579E-009  0.4778727E+02  0.7816164E-02  0.1312668E+00
        -11   -1    0    0    0    0  0.00000000000E+00  0.00000000000E+00  0.45593999997E+02  0.45594000000E+02  0.51100000000E-03 0. -1.
         11   -1    0    0    0    0 -0.00000000000E+00 -0.00000000000E+00 -0.45593999997E+02  0.45594000000E+02  0.51100000000E-03 0.  1.
    9900012    2    1    2    0    0  0.42748036627E+02  0.70108340861E+01 -0.26601753868E+01  0.47787274624E+02  0.20000016323E+02 0.  0.
         12    1    1    2    0    0 -0.42748036627E+02 -0.70108340861E+01  0.26601753868E+01  0.43400725376E+02  0.00000000000E+00 0. -1.
         11    1    3    3    0    0  0.17877305381E+02  0.78674732379E+01 -0.35729583923E+01  0.19856012056E+02  0.51100000000E-03 0. -1.
        -11    1    3    3    0    0  0.17076840801E+02  0.51369471521E+01  0.23783875017E+01  0.17990648825E+02  0.51100000000E-03 0.  1.
        -12    1    3    3    0    0  0.77938904449E+01 -0.59935863040E+01 -0.14656044962E+01  0.99406137431E+01  0.00000000000E+00 0.  1.
</event>
<event>
 7    1  0.4875579E-009  0.4778726E+02  0.7816164E-02  0.1312668E+00
        -11   -1    0    0    0    0  0.00000000000E+00  0.00000000000E+00  0.45593999997E+02  0.45594000000E+02  0.51100000000E-03 0. -1.
         11   -1    0    0    0    0 -0.00000000000E+00 -0.00000000000E+00 -0.45593999997E+02  0.45594000000E+02  0.51100000000E-03 0.  1.
    9900012    2    1    2    0    0 -0.98147205062E+01  0.39340977516E+02  0.15478459038E+02  0.47787263316E+02  0.19999964764E+02 0.  0.
         12    1    1    2    0    0  0.98147205062E+01 -0.39340977516E+02 -0.15478459038E+02  0.43400736684E+02  0.00000000000E+00 0. -1.
         11    1    3    3    0    0  0.27186256466E+01  0.12570199656E+02  0.87039102239E+01  0.15529291621E+02  0.51100000000E-03 0. -1.
        -11    1    3    3    0    0 -0.37503174504E+00  0.16103802831E+01 -0.23398148056E+01  0.28650841264E+01  0.51100000000E-03 0.  1.
        -12    1    3    3    0    0 -0.12158314408E+02  0.25160397576E+02  0.91143636201E+01  0.29392887569E+02  0.00000000000E+00 0.  1.
</event>
<event>
 7    1  0.4875579E-009  0.4778727E+02  0.7816164E-02  0.1312668E+00
        -11   -1    0    0    0    0  0.00000000000E+00  0.00000000000E+00  0.45593999997E+02  0.45594000000E+02  0.51100000000E-03 0. -1.
         11   -1    0    0    0    0 -0.00000000000E+00 -0.00000000000E+00 -0.45593999997E+02  0.45594000000E+02  0.51100000000E-03 0.  1.
    9900012    2    1    2    0    0 -0.11287672963E+02 -0.40317256767E+02  0.11433757887E+02  0.47787267592E+02  0.19999984259E+02 0.  0.
         12    1    1    2    0    0  0.11287672963E+02  0.40317256767E+02 -0.11433757887E+02  0.43400732408E+02  0.00000000000E+00 0. -1.
         11    1    3    3    0    0 -0.75333490940E+01 -0.20669166963E+02  0.62529154744E+01  0.22870609168E+02  0.51100000000E-03 0. -1.
        -11    1    3    3    0    0 -0.83505876520E+01 -0.15857706168E+02  0.16654583831E+01  0.17999247510E+02  0.51100000000E-03 0.  1.
         12    1    3    3    0    0  0.45962637834E+01 -0.37903836362E+01  0.35153840299E+01  0.69174109141E+01  0.00000000000E+00 0. -1.
</event>
<event>
 7    1  0.4875579E-009  0.4778726E+02  0.7816164E-02  0.1312668E+00
        -11   -1    0    0    0    0  0.00000000000E+00  0.00000000000E+00  0.45593999997E+02  0.45594000000E+02  0.51100000000E-03 0. -1.
         11   -1    0    0    0    0 -0.00000000000E+00 -0.00000000000E+00 -0.45593999997E+02  0.45594000000E+02  0.51100000000E-03 0.  1.
    9900012    2    1    2    0    0 -0.12774842510E+02  0.11247363857E+02 -0.39923980362E+02  0.47787262646E+02  0.19999961708E+02 0.  0.
         12    1    1    2    0    0  0.12774842510E+02 -0.11247363857E+02  0.39923980362E+02  0.43400737354E+02  0.00000000000E+00 0. -1.
         11    1    3    3    0    0  0.29205255410E+01  0.23372542747E+01 -0.14042891118E+02  0.14532550299E+02  0.51100000000E-03 0. -1.
        -11    1    3    3    0    0 -0.19997961264E+01  0.63978952810E+01 -0.10948427516E+02  0.12837457455E+02  0.51100000000E-03 0.  1.
        -12    1    3    3    0    0 -0.13695571925E+02  0.25122143015E+01 -0.14932661729E+02  0.20417254893E+02  0.00000000000E+00 0.  1.
</event>
<event>
 7    1  0.4875579E-009  0.4778727E+02  0.7816164E-02  0.1312668E+00
        -11   -1    0    0    0    0  0.00000000000E+00  0.00000000000E+00  0.45593999997E+02  0.45594000000E+02  0.51100000000E-03 0.  1.
         11   -1    0    0    0    0 -0.00000000000E+00 -0.00000000000E+00 -0.45593999997E+02  0.45594000000E+02  0.51100000000E-03 0. -1.
    9900012    2    1    2    0    0 -0.16427056428E+01 -0.35798627537E+02 -0.24482306736E+02  0.47787267766E+02  0.19999985053E+02 0.  0.
         12    1    1    2    0    0  0.16427056428E+01  0.35798627537E+02  0.24482306736E+02  0.43400732234E+02  0.00000000000E+00 0. -1.
         11    1    3    3    0    0 -0.62720952090E+00 -0.97213193507E+00 -0.63780547550E-01  0.11586632391E+01  0.51100000000E-03 0. -1.
        -11    1    3    3    0    0  0.49496263076E+01 -0.30870947937E+02 -0.14672978285E+02  0.34537089036E+02  0.51100000000E-03 0.  1.
         12    1    3    3    0    0 -0.59651224295E+01 -0.39555476651E+01 -0.97455479029E+01  0.12091515491E+02  0.00000000000E+00 0. -1.
</event>
<event>
 7    1  0.4875579E-009  0.4778727E+02  0.7816164E-02  0.1312668E+00
        -11   -1    0    0    0    0  0.00000000000E+00  0.00000000000E+00  0.45593999997E+02  0.45594000000E+02  0.51100000000E-03 0.  1.
         11   -1    0    0    0    0 -0.00000000000E+00 -0.00000000000E+00 -0.45593999997E+02  0.45594000000E+02  0.51100000000E-03 0. -1.
    9900012    2    1    2    0    0 -0.69004751622E+01  0.23285705659E+02  0.35969188932E+02  0.47787271919E+02  0.20000003989E+02 0.  0.
         12    1    1    2    0    0  0.69004751622E+01 -0.23285705659E+02 -0.35969188932E+02  0.43400728081E+02  0.00000000000E+00 0. -1.
         11    1    3    3    0    0  0.43287256671E+01  0.51098186518E+01  0.10835310390E+02  0.12737820224E+02  0.51100000000E-03 0. -1.
        -11    1    3    3    0    0 -0.12191558126E+01  0.12526632911E+02  0.16067445881E+02  0.20409940969E+02  0.51100000000E-03 0.  1.
        -12    1    3    3    0    0 -0.10010045017E+02  0.56492540956E+01  0.90664326617E+01  0.14639510725E+02  0.00000000000E+00 0.  1.
</event>
<event>
 7    1  0.4875579E-009  0.4778726E+02  0.7816164E-02  0.1312668E+00
        -11   -1    0    0    0    0  0.00000000000E+00  0.00000000000E+00  0.45593999997E+02  0.45594000000E+02  0.51100000000E-03 0.  1.
         11   -1    0    0    0    0 -0.00000000000E+00 -0.00000000000E+00 -0.45593999997E+02  0.45594000000E+02  0.51100000000E-03 0. -1.
    9900012    2    1    2    0    0  0.32064673151E+01 -0.12243419023E+02  0.41514352084E+02  0.47787260709E+02  0.19999952877E+02 0.  0.
         12    1    1    2    0    0 -0.32064673151E+01  0.12243419023E+02 -0.41514352084E+02  0.43400739291E+02  0.00000000000E+00 0. -1.
         11    1    3    3    0    0 -0.89011569925E+00 -0.17015301546E+01  0.91951139587E-01  0.19224895574E+01  0.51100000000E-03 0. -1.
        -11    1    3    3    0    0  0.45030864233E+01 -0.14276617522E+02  0.37755747774E+02  0.40615219875E+02  0.51100000000E-03 0.  1.
        -12    1    3    3    0    0 -0.40650340891E+00  0.37347286538E+01  0.36666531705E+01  0.52495512772E+01  0.00000000000E+00 0.  1.
</event>
<event>
 7    1  0.4875579E-009  0.4778727E+02  0.7816164E-02  0.1312668E+00
        -11   -1    0    0    0    0  0.00000000000E+00  0.00000000000E+00  0.45593999997E+02  0.45594000000E+02  0.51100000000E-03 0.  1.
         11   -1    0    0    0    0 -0.00000000000E+00 -0.00000000000E+00 -0.45593999997E+02  0.45594000000E+02  0.51100000000E-03 0. -1.
    9900012    2    1    2    0    0  0.21005362511E+02  0.37697319730E+02  0.46163051948E+01  0.47787269099E+02  0.19999991130E+02 0.  0.
         12    1    1    2    0    0 -0.21005362511E+02 -0.37697319730E+02 -0.46163051948E+01  0.43400730901E+02  0.00000000000E+00 0. -1.
         11    1    3    3    0    0  0.96789273139E+00  0.23149096907E+01 -0.40325950845E+01  0.47494680326E+01  0.51100000000E-03 0. -1.
        -11    1    3    3    0    0  0.12055874180E+01  0.46288239382E+01  0.47920522420E+01  0.67707619235E+01  0.51100000000E-03 0.  1.
         12    1    3    3    0    0  0.18831882362E+02  0.30753586102E+02  0.38568480373E+01  0.36267039143E+02  0.00000000000E+00 0. -1.
</event>
<event>
 7    1  0.4875579E-009  0.4778727E+02  0.7816164E-02  0.1312668E+00
        -11   -1    0    0    0    0  0.00000000000E+00  0.00000000000E+00  0.45593999997E+02  0.45594000000E+02  0.51100000000E-03 0.  1.
         11   -1    0    0    0    0 -0.00000000000E+00 -0.00000000000E+00 -0.45593999997E+02  0.45594000000E+02  0.51100000000E-03 0. -1.
    9900012    2    1    2    0    0  0.21988501606E+02  0.32100790421E+02  0.19226762946E+02  0.47787270030E+02  0.19999995374E+02 0.  0.
         12    1    1    2    0    0 -0.21988501606E+02 -0.32100790421E+02 -0.19226762946E+02  0.43400729970E+02  0.00000000000E+00 0. -1.
         11    1    3    3    0    0  0.62479394113E+01  0.21232105567E+01  0.69716600224E+01  0.95994173617E+01  0.51100000000E-03 0.  1.
        -11    1    3    3    0    0 -0.14942017906E+01  0.57146477945E+01  0.45204366444E+01  0.74380229983E+01  0.51100000000E-03 0. -1.
         12    1    3    3    0    0  0.17234763986E+02  0.24262932070E+02  0.77346662793E+01  0.30749829670E+02  0.00000000000E+00 0. -1.
</event>
<event>
 7    1  0.4875579E-009  0.4778727E+02  0.7816164E-02  0.1312668E+00
        -11   -1    0    0    0    0  0.00000000000E+00  0.00000000000E+00  0.45593999997E+02  0.45594000000E+02  0.51100000000E-03 0. -1.
         11   -1    0    0    0    0 -0.00000000000E+00 -0.00000000000E+00 -0.45593999997E+02  0.45594000000E+02  0.51100000000E-03 0.  1.
    9900012    2    1    2    0    0  0.43150653255E+02  0.23818215810E+01  0.39964425087E+01  0.47787268404E+02  0.19999987960E+02 0.  0.
         12    1    1    2    0    0 -0.43150653255E+02 -0.23818215810E+01 -0.39964425087E+01  0.43400731596E+02  0.00000000000E+00 0. -1.
         11    1    3    3    0    0  0.42756383466E+01  0.10019550031E+01  0.51081366899E+01  0.67363237602E+01  0.51100000000E-03 0.  1.
        -11    1    3    3    0    0  0.28650008241E+01  0.24985294497E+01  0.29272300804E+01  0.47978698751E+01  0.51100000000E-03 0. -1.
        -12    1    3    3    0    0  0.36010014084E+02 -0.11186628718E+01 -0.40389242616E+01  0.36253074768E+02  0.00000000000E+00 0.  1.
</event>
<event>
 7    1  0.4875579E-009  0.4778727E+02  0.7816164E-02  0.1312668E+00
        -11   -1    0    0    0    0  0.00000000000E+00  0.00000000000E+00  0.45593999997E+02  0.45594000000E+02  0.51100000000E-03 0.  1.
         11   -1    0    0    0    0 -0.00000000000E+00 -0.00000000000E+00 -0.45593999997E+02  0.45594000000E+02  0.51100000000E-03 0. -1.
    9900012    2    1    2    0    0 -0.82487036881E+01  0.41942228411E+02 -0.75120941905E+01  0.47787271945E+02  0.20000004104E+02 0.  0.
         12    1    1    2    0    0  0.82487036881E+01 -0.41942228411E+02  0.75120941905E+01  0.43400728055E+02  0.00000000000E+00 0. -1.
         11    1    3    3    0    0 -0.12698923894E+01  0.60283694214E+01  0.12134427260E+01  0.62790371931E+01  0.51100000000E-03 0. -1.
        -11    1    3    3    0    0 -0.94539457067E+00  0.81880964169E+00  0.36114003428E+01  0.38218363153E+01  0.51100000000E-03 0.  1.
         12    1    3    3    0    0 -0.60334167280E+01  0.35095049348E+02 -0.12336937259E+02  0.37686398436E+02  0.00000000000E+00 0. -1.
</event>
<event>
 7    1  0.4875579E-009  0.4778727E+02  0.7816164E-02  0.1312668E+00
        -11   -1    0    0    0    0  0.00000000000E+00  0.00000000000E+00  0.45593999997E+02  0.45594000000E+02  0.51100000000E-03 0.  1.
         11   -1    0    0    0    0 -0.00000000000E+00 -0.00000000000E+00 -0.45593999997E+02  0.45594000000E+02  0.51100000000E-03 0. -1.
    9900012    2    1    2    0    0  0.18794943761E+02  0.21022505915E+01  0.39063459853E+02  0.47787271155E+02  0.20000000505E+02 0.  0.
         12    1    1    2    0    0 -0.18794943761E+02 -0.21022505915E+01 -0.39063459853E+02  0.43400728845E+02  0.00000000000E+00 0. -1.
         11    1    3    3    0    0  0.31622407341E+00 -0.29430001785E+01 -0.10342198763E+01  0.31354200243E+01  0.51100000000E-03 0. -1.
        -11    1    3    3    0    0 -0.43714297671E-01  0.59338919840E+00  0.12952865660E+01  0.14254084432E+01  0.51100000000E-03 0.  1.
        -12    1    3    3    0    0  0.18522433986E+02  0.44518615716E+01  0.38802393164E+02  0.43226442688E+02  0.00000000000E+00 0.  1.
</event>
<event>
 7    1  0.4875579E-009  0.4778727E+02  0.7816164E-02  0.1312668E+00
        -11   -1    0    0    0    0  0.00000000000E+00  0.00000000000E+00  0.45593999997E+02  0.45594000000E+02  0.51100000000E-03 0. -1.
         11   -1    0    0    0    0 -0.00000000000E+00 -0.00000000000E+00 -0.45593999997E+02  0.45594000000E+02  0.51100000000E-03 0.  1.
    9900012    2    1    2    0    0 -0.86489661988E+00  0.31442275738E+02 -0.29904155037E+02  0.47787271455E+02  0.20000001870E+02 0.  0.
         12    1    1    2    0    0  0.86489661988E+00 -0.31442275738E+02  0.29904155037E+02  0.43400728545E+02  0.00000000000E+00 0. -1.
         11    1    3    3    0    0  0.34879443406E+01  0.49243126141E+01  0.20131675551E+00  0.60378091343E+01  0.51100000000E-03 0. -1.
        -11    1    3    3    0    0  0.27293189013E+01  0.15797004256E+02 -0.15544410312E+02  0.22329872756E+02  0.51100000000E-03 0.  1.
         12    1    3    3    0    0 -0.70821598618E+01  0.10720958869E+02 -0.14561061481E+02  0.19419589564E+02  0.00000000000E+00 0. -1.
</event>
<event>
 7    1  0.4875579E-009  0.4778727E+02  0.7816164E-02  0.1312668E+00
        -11   -1    0    0    0    0  0.00000000000E+00  0.00000000000E+00  0.45593999997E+02  0.45594000000E+02  0.51100000000E-03 0.  1.
         11   -1    0    0    0    0 -0.00000000000E+00 -0.00000000000E+00 -0.45593999997E+02  0.45594000000E+02  0.51100000000E-03 0. -1.
    9900012    2    1    2    0    0  0.42974380273E+02 -0.43952759557E+01  0.41842258278E+01  0.47787267790E+02  0.19999985160E+02 0.  0.
         12    1    1    2    0    0 -0.42974380273E+02  0.43952759557E+01 -0.41842258278E+01  0.43400732210E+02  0.00000000000E+00 0. -1.
         11    1    3    3    0    0  0.50092275687E+01  0.45675258414E+01  0.25852275614E+00  0.67839138720E+01  0.51100000000E-03 0. -1.
        -11    1    3    3    0    0  0.24050485605E+02 -0.72426909553E-01  0.87219254419E-01  0.24050752815E+02  0.51100000000E-03 0.  1.
        -12    1    3    3    0    0  0.13914667100E+02 -0.88903748875E+01  0.38384838173E+01  0.16952601103E+02  0.00000000000E+00 0.  1.
</event>
<event>
 7    1  0.4875579E-009  0.4778727E+02  0.7816164E-02  0.1312668E+00
        -11   -1    0    0    0    0  0.00000000000E+00  0.00000000000E+00  0.45593999997E+02  0.45594000000E+02  0.51100000000E-03 0. -1.
         11   -1    0    0    0    0 -0.00000000000E+00 -0.00000000000E+00 -0.45593999997E+02  0.45594000000E+02  0.51100000000E-03 0.  1.
    9900012    2    1    2    0    0  0.20278428048E+02 -0.34320329891E+02  0.17161688905E+02  0.47787271273E+02  0.20000001043E+02 0.  0.
         12    1    1    2    0    0 -0.20278428048E+02  0.34320329891E+02 -0.17161688905E+02  0.43400728727E+02  0.00000000000E+00 0. -1.
         11    1    3    3    0    0 -0.23202865066E+00  0.16258259472E+01  0.17616516321E+00  0.16517208393E+01  0.51100000000E-03 0. -1.
        -11    1    3    3    0    0  0.99986588001E+01 -0.79185916931E+01  0.30360853779E+01  0.13110876664E+02  0.51100000000E-03 0.  1.
        -12    1    3    3    0    0  0.10511797899E+02 -0.28027564145E+02  0.13949438364E+02  0.33024673770E+02  0.00000000000E+00 0.  1.
</event>
<event>
 7    1  0.4875579E-009  0.4778727E+02  0.7816164E-02  0.1312668E+00
        -11   -1    0    0    0    0  0.00000000000E+00  0.00000000000E+00  0.45593999997E+02  0.45594000000E+02  0.51100000000E-03 0. -1.
         11   -1    0    0    0    0 -0.00000000000E+00 -0.00000000000E+00 -0.45593999997E+02  0.45594000000E+02  0.51100000000E-03 0.  1.
    9900012    2    1    2    0    0 -0.25192456645E+02 -0.33203901491E+02 -0.12102243142E+02  0.47787271491E+02  0.20000002035E+02 0.  0.
         12    1    1    2    0    0  0.25192456645E+02  0.33203901491E+02  0.12102243142E+02  0.43400728509E+02  0.00000000000E+00 0. -1.
         11    1    3    3    0    0 -0.18650422176E+01 -0.25167741901E+01  0.25848615490E+01  0.40612860385E+01  0.51100000000E-03 0. -1.
        -11    1    3    3    0    0 -0.90722521234E+01 -0.61586124199E+01  0.14930152938E+01  0.11066316481E+02  0.51100000000E-03 0.  1.
         12    1    3    3    0    0 -0.14255162304E+02 -0.24528514881E+02 -0.16180119985E+02  0.32659668971E+02  0.00000000000E+00 0. -1.
</event>
<event>
 7    1  0.4875579E-009  0.4778727E+02  0.7816164E-02  0.1312668E+00
        -11   -1    0    0    0    0  0.00000000000E+00  0.00000000000E+00  0.45593999997E+02  0.45594000000E+02  0.51100000000E-03 0.  1.
         11   -1    0    0    0    0 -0.00000000000E+00 -0.00000000000E+00 -0.45593999997E+02  0.45594000000E+02  0.51100000000E-03 0. -1.
    9900012    2    1    2    0    0  0.52607745011E+01  0.27672530487E+02  0.33017847748E+02  0.47787274639E+02  0.20000016391E+02 0.  0.
         12    1    1    2    0    0 -0.52607745011E+01 -0.27672530487E+02 -0.33017847748E+02  0.43400725361E+02  0.00000000000E+00 0. -1.
         11    1    3    3    0    0  0.87996474609E+01  0.62481809221E+01  0.11620501497E+02  0.15859054687E+02  0.51100000000E-03 0. -1.
        -11    1    3    3    0    0  0.16641090888E+00  0.10499255843E+02  0.16128778103E+02  0.19245767046E+02  0.51100000000E-03 0.  1.
         12    1    3    3    0    0 -0.37052838687E+01  0.10925093722E+02  0.52685681484E+01  0.12682452906E+02  0.00000000000E+00 0. -1.
</event>
<event>
 7    1  0.4875579E-009  0.4778727E+02  0.7816164E-02  0.1312668E+00
        -11   -1    0    0    0    0  0.00000000000E+00  0.00000000000E+00  0.45593999997E+02  0.45594000000E+02  0.51100000000E-03 0.  1.
         11   -1    0    0    0    0 -0.00000000000E+00 -0.00000000000E+00 -0.45593999997E+02  0.45594000000E+02  0.51100000000E-03 0. -1.
    9900012    2    1    2    0    0  0.20835384802E+02  0.13753044927E+02  0.35501602721E+02  0.47787270739E+02  0.19999998608E+02 0.  0.
         12    1    1    2    0    0 -0.20835384802E+02 -0.13753044927E+02 -0.35501602721E+02  0.43400729261E+02  0.00000000000E+00 0. -1.
         11    1    3    3    0    0  0.48364366176E+01 -0.10553512676E+00  0.15339706759E+02  0.16084429133E+02  0.51100000000E-03 0. -1.
        -11    1    3    3    0    0  0.10693273191E+02  0.89556291161E+01  0.20115843424E+02  0.24478491402E+02  0.51100000000E-03 0.  1.
         12    1    3    3    0    0  0.53056749936E+01  0.49029509375E+01  0.46052537998E-01  0.72243502040E+01  0.00000000000E+00 0. -1.
</event>
<event>
 7    1  0.4875579E-009  0.4778733E+02  0.7816164E-02  0.1312667E+00
        -11   -1    0    0    0    0  0.00000000000E+00  0.00000000000E+00  0.45593999997E+02  0.45594000000E+02  0.51100000000E-03 0. -1.
         11   -1    0    0    0    0 -0.00000000000E+00 -0.00000000000E+00 -0.45593999997E+02  0.45594000000E+02  0.51100000000E-03 0.  1.
    9900012    2    1    2    0    0 -0.85330811250E+01  0.25694913519E+02 -0.33920137207E+02  0.47787334540E+02  0.20000289500E+02 0.  0.
         12    1    1    2    0    0  0.85330811250E+01 -0.25694913519E+02  0.33920137207E+02  0.43400665460E+02  0.00000000000E+00 0. -1.
         11    1    3    3    0    0 -0.21384643695E+01  0.96807179395E+00 -0.88993912923E+01  0.92037687114E+01  0.51100000000E-03 0. -1.
        -11    1    3    3    0    0  0.10095783759E+01  0.16970377045E+01  0.16522020809E+01  0.25746761825E+01  0.51100000000E-03 0.  1.
        -12    1    3    3    0    0 -0.74041951313E+01  0.23029804021E+02 -0.26672947995E+02  0.36008889646E+02  0.00000000000E+00 0.  1.
</event>
<event>
 7    1  0.4875579E-009  0.4778727E+02  0.7816164E-02  0.1312668E+00
        -11   -1    0    0    0    0  0.00000000000E+00  0.00000000000E+00  0.45593999997E+02  0.45594000000E+02  0.51100000000E-03 0.  1.
         11   -1    0    0    0    0 -0.00000000000E+00 -0.00000000000E+00 -0.45593999997E+02  0.45594000000E+02  0.51100000000E-03 0. -1.
    9900012    2    1    2    0    0 -0.47281763635E+01  0.12538471944E+02  0.41280194029E+02  0.47787270173E+02  0.19999996028E+02 0.  0.
         12    1    1    2    0    0  0.47281763635E+01 -0.12538471944E+02 -0.41280194029E+02  0.43400729827E+02  0.00000000000E+00 0. -1.
         11    1    3    3    0    0 -0.28419026144E+01  0.13834276373E+01  0.45811778565E+01  0.55657410388E+01  0.51100000000E-03 0. -1.
        -11    1    3    3    0    0 -0.76281471192E+01  0.12785973299E+02  0.27000317163E+02  0.30833210485E+02  0.51100000000E-03 0.  1.
         12    1    3    3    0    0  0.57418733702E+01 -0.16309289917E+01  0.96986990095E+01  0.11388318649E+02  0.00000000000E+00 0. -1.
</event>
<event>
 7    1  0.4875579E-009  0.4778727E+02  0.7816164E-02  0.1312668E+00
        -11   -1    0    0    0    0  0.00000000000E+00  0.00000000000E+00  0.45593999997E+02  0.45594000000E+02  0.51100000000E-03 0.  1.
         11   -1    0    0    0    0 -0.00000000000E+00 -0.00000000000E+00 -0.45593999997E+02  0.45594000000E+02  0.51100000000E-03 0. -1.
    9900012    2    1    2    0    0  0.24219821436E+02  0.33253474593E+02  0.13828585814E+02  0.47787272950E+02  0.20000008687E+02 0.  0.
         12    1    1    2    0    0 -0.24219821436E+02 -0.33253474593E+02 -0.13828585814E+02  0.43400727050E+02  0.00000000000E+00 0. -1.
         11    1    3    3    0    0  0.10907315413E+02  0.11878775157E+02  0.18304758938E+01  0.16230387272E+02  0.51100000000E-03 0. -1.
        -11    1    3    3    0    0  0.87844626913E+01  0.84332047475E+01 -0.15573341757E+01  0.12276441548E+02  0.51100000000E-03 0.  1.
         12    1    3    3    0    0  0.45280433318E+01  0.12941494688E+02  0.13555444096E+02  0.19280444129E+02  0.00000000000E+00 0. -1.
</event>
<event>
 7    1  0.4875579E-009  0.4778725E+02  0.7816164E-02  0.1312668E+00
        -11   -1    0    0    0    0  0.00000000000E+00  0.00000000000E+00  0.45593999997E+02  0.45594000000E+02  0.51100000000E-03 0.  1.
         11   -1    0    0    0    0 -0.00000000000E+00 -0.00000000000E+00 -0.45593999997E+02  0.45594000000E+02  0.51100000000E-03 0. -1.
    9900012    2    1    2    0    0  0.26665456613E+02  0.18367415290E+02  0.28900112192E+02  0.47787251095E+02  0.19999909044E+02 0.  0.
         12    1    1    2    0    0 -0.26665456613E+02 -0.18367415290E+02 -0.28900112192E+02  0.43400748905E+02  0.00000000000E+00 0. -1.
         11    1    3    3    0    0  0.99732793704E+01  0.29793656263E+00  0.45915182903E+01  0.10983492526E+02  0.51100000000E-03 0. -1.
        -11    1    3    3    0    0  0.96932554985E+01  0.44756874260E+01  0.16454226706E+02  0.19614600604E+02  0.51100000000E-03 0.  1.
         12    1    3    3    0    0  0.69989217439E+01  0.13593791301E+02  0.78543671950E+01  0.17189157965E+02  0.00000000000E+00 0. -1.
</event>
<event>
 7    1  0.4875579E-009  0.4778727E+02  0.7816164E-02  0.1312668E+00
        -11   -1    0    0    0    0  0.00000000000E+00  0.00000000000E+00  0.45593999997E+02  0.45594000000E+02  0.51100000000E-03 0.  1.
         11   -1    0    0    0    0 -0.00000000000E+00 -0.00000000000E+00 -0.45593999997E+02  0.45594000000E+02  0.51100000000E-03 0. -1.
    9900012    2    1    2    0    0  0.38986378993E+01  0.30272979227E+02  0.30854027865E+02  0.47787266317E+02  0.19999978444E+02 0.  0.
         12    1    1    2    0    0 -0.38986378993E+01 -0.30272979227E+02 -0.30854027865E+02  0.43400733683E+02  0.00000000000E+00 0. -1.
         11    1    3    3    0    0 -0.94393427627E+00  0.21499143683E+00 -0.11191649469E+01  0.14797850098E+01  0.51100000000E-03 0. -1.
        -11    1    3    3    0    0 -0.18317685550E+00  0.20743974462E+02  0.12711080986E+02  0.24329356965E+02  0.51100000000E-03 0.  1.
        -12    1    3    3    0    0  0.50257490311E+01  0.93140133288E+01  0.19262111825E+02  0.21978124342E+02  0.00000000000E+00 0.  1.
</event>
<event>
 7    1  0.4875579E-009  0.4778728E+02  0.7816164E-02  0.1312668E+00
        -11   -1    0    0    0    0  0.00000000000E+00  0.00000000000E+00  0.45593999997E+02  0.45594000000E+02  0.51100000000E-03 0.  1.
         11   -1    0    0    0    0 -0.00000000000E+00 -0.00000000000E+00 -0.45593999997E+02  0.45594000000E+02  0.51100000000E-03 0. -1.
    9900012    2    1    2    0    0 -0.29794654063E+02  0.30366128718E+02  0.85906567176E+01  0.47787279189E+02  0.20000037137E+02 0.  0.
         12    1    1    2    0    0  0.29794654063E+02 -0.30366128718E+02 -0.85906567176E+01  0.43400720811E+02  0.00000000000E+00 0. -1.
         11    1    3    3    0    0 -0.72368738388E+01  0.90691898864E+00 -0.22457049631E+01  0.76313849368E+01  0.51100000000E-03 0. -1.
        -11    1    3    3    0    0 -0.75788949950E+01  0.60205695896E+01  0.72841607986E+01  0.12113872474E+02  0.51100000000E-03 0.  1.
        -12    1    3    3    0    0 -0.14978885229E+02  0.23438640140E+02  0.35522008821E+01  0.28042021778E+02  0.00000000000E+00 0.  1.
</event>
<event>
 7    1  0.4875579E-009  0.4778727E+02  0.7816164E-02  0.1312668E+00
        -11   -1    0    0    0    0  0.00000000000E+00  0.00000000000E+00  0.45593999997E+02  0.45594000000E+02  0.51100000000E-03 0.  1.
         11   -1    0    0    0    0 -0.00000000000E+00 -0.00000000000E+00 -0.45593999997E+02  0.45594000000E+02  0.51100000000E-03 0. -1.
    9900012    2    1    2    0    0  0.43301559708E+02 -0.15080279316E+01  0.25147585568E+01  0.47787271527E+02  0.20000002198E+02 0.  0.
         12    1    1    2    0    0 -0.43301559708E+02  0.15080279316E+01 -0.25147585568E+01  0.43400728473E+02  0.00000000000E+00 0. -1.
         11    1    3    3    0    0  0.22793621524E+02 -0.89974871952E+01 -0.31468156469E+00  0.24507202671E+02  0.51100000000E-03 0.  1.
        -11    1    3    3    0    0  0.46017188721E+01  0.48772357107E+00 -0.22893580837E+01  0.51628336751E+01  0.51100000000E-03 0. -1.
        -12    1    3    3    0    0  0.15906219312E+02  0.70017356926E+01  0.51187982052E+01  0.18117235180E+02  0.00000000000E+00 0.  1.
</event>
<event>
 7    1  0.4875579E-009  0.4778727E+02  0.7816164E-02  0.1312668E+00
        -11   -1    0    0    0    0  0.00000000000E+00  0.00000000000E+00  0.45593999997E+02  0.45594000000E+02  0.51100000000E-03 0.  1.
         11   -1    0    0    0    0 -0.00000000000E+00 -0.00000000000E+00 -0.45593999997E+02  0.45594000000E+02  0.51100000000E-03 0. -1.
    9900012    2    1    2    0    0 -0.10336489789E+02 -0.95536366108E+01  0.41054940107E+02  0.47787273038E+02  0.20000009090E+02 0.  0.
         12    1    1    2    0    0  0.10336489789E+02  0.95536366108E+01 -0.41054940107E+02  0.43400726962E+02  0.00000000000E+00 0. -1.
         11    1    3    3    0    0 -0.48065117254E+01 -0.62785919667E+01  0.25348743545E+02  0.26553381548E+02  0.51100000000E-03 0.  1.
        -11    1    3    3    0    0 -0.86848826274E+01 -0.56206500498E+01  0.11784029877E+02  0.15680633075E+02  0.51100000000E-03 0. -1.
        -12    1    3    3    0    0  0.31549045637E+01  0.23456054057E+01  0.39221666849E+01  0.55532584155E+01  0.00000000000E+00 0.  1.
</event>
<event>
 7    1  0.4875579E-009  0.4778727E+02  0.7816164E-02  0.1312668E+00
        -11   -1    0    0    0    0  0.00000000000E+00  0.00000000000E+00  0.45593999997E+02  0.45594000000E+02  0.51100000000E-03 0. -1.
         11   -1    0    0    0    0 -0.00000000000E+00 -0.00000000000E+00 -0.45593999997E+02  0.45594000000E+02  0.51100000000E-03 0.  1.
    9900012    2    1    2    0    0  0.83741818204E+01  0.41898528737E+02 -0.76164040899E+01  0.47787271403E+02  0.20000001637E+02 0.  0.
         12    1    1    2    0    0 -0.83741818204E+01 -0.41898528737E+02  0.76164040899E+01  0.43400728597E+02  0.00000000000E+00 0. -1.
         11    1    3    3    0    0  0.44114444154E+01  0.30964881312E+01  0.22744984631E+00  0.53945170563E+01  0.51100000000E-03 0. -1.
        -11    1    3    3    0    0  0.41786126466E+01  0.23447226586E+01  0.96035237802E+00  0.48867990492E+01  0.51100000000E-03 0.  1.
        -12    1    3    3    0    0 -0.21587524159E+00  0.36457317947E+02 -0.88042063142E+01  0.37505955298E+02  0.00000000000E+00 0.  1.
</event>
<event>
 7    1  0.4875579E-009  0.4778727E+02  0.7816164E-02  0.1312668E+00
        -11   -1    0    0    0    0  0.00000000000E+00  0.00000000000E+00  0.45593999997E+02  0.45594000000E+02  0.51100000000E-03 0.  1.
         11   -1    0    0    0    0 -0.00000000000E+00 -0.00000000000E+00 -0.45593999997E+02  0.45594000000E+02  0.51100000000E-03 0. -1.
    9900012    2    1    2    0    0  0.90285486458E+01 -0.69641087580E+01  0.41876123943E+02  0.47787271228E+02  0.20000000838E+02 0.  0.
         12    1    1    2    0    0 -0.90285486458E+01  0.69641087580E+01 -0.41876123943E+02  0.43400728772E+02  0.00000000000E+00 0. -1.
         11    1    3    3    0    0  0.52030745886E+01 -0.39818249103E+01  0.57274104605E+01  0.87023069145E+01  0.51100000000E-03 0. -1.
        -11    1    3    3    0    0  0.61272844366E+01 -0.37826543086E+00  0.55078245277E+01  0.82475954430E+01  0.51100000000E-03 0.  1.
        -12    1    3    3    0    0 -0.23018103795E+01 -0.26040184169E+01  0.30640888955E+02  0.30837368871E+02  0.00000000000E+00 0.  1.
</event>
<event>
 7    1  0.4875579E-009  0.4778727E+02  0.7816164E-02  0.1312668E+00
        -11   -1    0    0    0    0  0.00000000000E+00  0.00000000000E+00  0.45593999997E+02  0.45594000000E+02  0.51100000000E-03 0.  1.
         11   -1    0    0    0    0 -0.00000000000E+00 -0.00000000000E+00 -0.45593999997E+02  0.45594000000E+02  0.51100000000E-03 0. -1.
    9900012    2    1    2    0    0 -0.69621793632E+01 -0.33810147887E+02  0.26306367526E+02  0.47787274038E+02  0.20000013651E+02 0.  0.
         12    1    1    2    0    0  0.69621793632E+01  0.33810147887E+02 -0.26306367526E+02  0.43400725962E+02  0.00000000000E+00 0. -1.
         11    1    3    3    0    0 -0.12495056104E+02 -0.16758721331E+02  0.97763270863E+01  0.23077212554E+02  0.51100000000E-03 0. -1.
        -11    1    3    3    0    0  0.24923305742E+00 -0.26887329213E+01  0.44834850067E+01  0.52338360602E+01  0.51100000000E-03 0.  1.
         12    1    3    3    0    0  0.52836436830E+01 -0.14362693634E+02  0.12046555433E+02  0.19476225424E+02  0.00000000000E+00 0. -1.
</event>
<event>
 7    1  0.4875579E-009  0.4778726E+02  0.7816164E-02  0.1312668E+00
        -11   -1    0    0    0    0  0.00000000000E+00  0.00000000000E+00  0.45593999997E+02  0.45594000000E+02  0.51100000000E-03 0. -1.
         11   -1    0    0    0    0 -0.00000000000E+00 -0.00000000000E+00 -0.45593999997E+02  0.45594000000E+02  0.51100000000E-03 0.  1.
    9900012    2    1    2    0    0 -0.14809014646E+01  0.25936166171E+02 -0.34767027657E+02  0.47787262715E+02  0.19999962022E+02 0.  0.
         12    1    1    2    0    0  0.14809014646E+01 -0.25936166171E+02  0.34767027657E+02  0.43400737285E+02  0.00000000000E+00 0. -1.
         11    1    3    3    0    0 -0.30877022962E+01  0.31213289461E+01  0.97768817424E+00  0.44980522771E+01  0.51100000000E-03 0. -1.
        -11    1    3    3    0    0  0.36986271446E+01  0.64777248985E+01 -0.74036318966E+01  0.10509734922E+02  0.51100000000E-03 0.  1.
        -12    1    3    3    0    0 -0.20918263130E+01  0.16337112326E+02 -0.28341083935E+02  0.32779475516E+02  0.00000000000E+00 0.  1.
</event>
<event>
 7    1  0.4875579E-009  0.4778727E+02  0.7816164E-02  0.1312668E+00
        -11   -1    0    0    0    0  0.00000000000E+00  0.00000000000E+00  0.45593999997E+02  0.45594000000E+02  0.51100000000E-03 0. -1.
         11   -1    0    0    0    0 -0.00000000000E+00 -0.00000000000E+00 -0.45593999997E+02  0.45594000000E+02  0.51100000000E-03 0.  1.
    9900012    2    1    2    0    0 -0.31204622481E+02  0.10691389540E+02 -0.28206184699E+02  0.47787272705E+02  0.20000007572E+02 0.  0.
         12    1    1    2    0    0  0.31204622481E+02 -0.10691389540E+02  0.28206184699E+02  0.43400727295E+02  0.00000000000E+00 0. -1.
         11    1    3    3    0    0 -0.13229072694E+02  0.10741138763E+01 -0.29557362098E+01  0.13597737377E+02  0.51100000000E-03 0. -1.
        -11    1    3    3    0    0 -0.14847157721E+02  0.22674072546E+01 -0.15468875928E+02  0.21560736323E+02  0.51100000000E-03 0.  1.
        -12    1    3    3    0    0 -0.31283920650E+01  0.73498684093E+01 -0.97815725608E+01  0.12628799005E+02  0.00000000000E+00 0.  1.
</event>
<event>
 7    1  0.4875579E-009  0.4778727E+02  0.7816164E-02  0.1312668E+00
        -11   -1    0    0    0    0  0.00000000000E+00  0.00000000000E+00  0.45593999997E+02  0.45594000000E+02  0.51100000000E-03 0.  1.
         11   -1    0    0    0    0 -0.00000000000E+00 -0.00000000000E+00 -0.45593999997E+02  0.45594000000E+02  0.51100000000E-03 0. -1.
    9900012    2    1    2    0    0 -0.33821098920E+02  0.11677418862E+02  0.24564087788E+02  0.47787271293E+02  0.20000001134E+02 0.  0.
         12    1    1    2    0    0  0.33821098920E+02 -0.11677418862E+02 -0.24564087788E+02  0.43400728707E+02  0.00000000000E+00 0. -1.
         11    1    3    3    0    0 -0.80629110107E+01  0.88590581475E+01  0.90320989094E+01  0.15002408347E+02  0.51100000000E-03 0. -1.
        -11    1    3    3    0    0 -0.14846324868E+02  0.22791241071E+01  0.15874609653E+02  0.21854313091E+02  0.51100000000E-03 0.  1.
         12    1    3    3    0    0 -0.10911863042E+02  0.53923660713E+00 -0.34262077432E+00  0.10930549856E+02  0.00000000000E+00 0. -1.
</event>
<event>
 7    1  0.4875579E-009  0.4778727E+02  0.7816164E-02  0.1312668E+00
        -11   -1    0    0    0    0  0.00000000000E+00  0.00000000000E+00  0.45593999997E+02  0.45594000000E+02  0.51100000000E-03 0.  1.
         11   -1    0    0    0    0 -0.00000000000E+00 -0.00000000000E+00 -0.45593999997E+02  0.45594000000E+02  0.51100000000E-03 0. -1.
    9900012    2    1    2    0    0  0.49077982227E+01  0.10635691206E+02  0.41790177858E+02  0.47787269866E+02  0.19999994626E+02 0.  0.
         12    1    1    2    0    0 -0.49077982227E+01 -0.10635691206E+02 -0.41790177858E+02  0.43400730134E+02  0.00000000000E+00 0. -1.
         11    1    3    3    0    0 -0.39242275288E+01 -0.37945053430E+01  0.79960214584E+01  0.96816420054E+01  0.51100000000E-03 0. -1.
        -11    1    3    3    0    0  0.33234888901E+01  0.18011595897E+01  0.84898129610E+01  0.92933674545E+01  0.51100000000E-03 0.  1.
         12    1    3    3    0    0  0.55085368614E+01  0.12629036959E+02  0.25304343438E+02  0.28812260406E+02  0.00000000000E+00 0. -1.
</event>
<event>
 7    1  0.4875579E-009  0.4778727E+02  0.7816164E-02  0.1312668E+00
        -11   -1    0    0    0    0  0.00000000000E+00  0.00000000000E+00  0.45593999997E+02  0.45594000000E+02  0.51100000000E-03 0. -1.
         11   -1    0    0    0    0 -0.00000000000E+00 -0.00000000000E+00 -0.45593999997E+02  0.45594000000E+02  0.51100000000E-03 0.  1.
    9900012    2    1    2    0    0 -0.15990940060E+02  0.37659155767E+02 -0.14481070918E+02  0.47787267379E+02  0.19999983288E+02 0.  0.
         12    1    1    2    0    0  0.15990940060E+02 -0.37659155767E+02  0.14481070918E+02  0.43400732621E+02  0.00000000000E+00 0. -1.
         11    1    3    3    0    0 -0.24444378579E+01  0.20888789893E+01 -0.51054770049E+01  0.60336214318E+01  0.51100000000E-03 0. -1.
        -11    1    3    3    0    0  0.82083552640E+00  0.38373537513E+01 -0.54263865031E+01  0.66966204548E+01  0.51100000000E-03 0.  1.
         12    1    3    3    0    0 -0.14367337728E+02  0.31732923027E+02 -0.39492074101E+01  0.35057025492E+02  0.00000000000E+00 0. -1.
</event>
<event>
 7    1  0.4875579E-009  0.4778727E+02  0.7816164E-02  0.1312668E+00
        -11   -1    0    0    0    0  0.00000000000E+00  0.00000000000E+00  0.45593999997E+02  0.45594000000E+02  0.51100000000E-03 0.  1.
         11   -1    0    0    0    0 -0.00000000000E+00 -0.00000000000E+00 -0.45593999997E+02  0.45594000000E+02  0.51100000000E-03 0. -1.
    9900012    2    1    2    0    0  0.31356754514E+02  0.26327856054E+02  0.14395187408E+02  0.47787268686E+02  0.19999989247E+02 0.  0.
         12    1    1    2    0    0 -0.31356754514E+02 -0.26327856054E+02 -0.14395187408E+02  0.43400731314E+02  0.00000000000E+00 0. -1.
         11    1    3    3    0    0  0.85537024709E+00 -0.19472789566E+00  0.91875319035E+00  0.12703089777E+01  0.51100000000E-03 0. -1.
        -11    1    3    3    0    0  0.24217056252E+02  0.13344950643E+02  0.15997504076E+01  0.27696799866E+02  0.51100000000E-03 0.  1.
        -12    1    3    3    0    0  0.62843280151E+01  0.13177633306E+02  0.11876683810E+02  0.18820159842E+02  0.00000000000E+00 0.  1.
</event>
<event>
 7    1  0.4875579E-009  0.4778724E+02  0.7816164E-02  0.1312668E+00
        -11   -1    0    0    0    0  0.00000000000E+00  0.00000000000E+00  0.45593999997E+02  0.45594000000E+02  0.51100000000E-03 0. -1.
         11   -1    0    0    0    0 -0.00000000000E+00 -0.00000000000E+00 -0.45593999997E+02  0.45594000000E+02  0.51100000000E-03 0.  1.
    9900012    2    1    2    0    0  0.24820490477E+02  0.27243697945E+02 -0.22920512666E+02  0.47787242794E+02  0.19999871192E+02 0.  0.
         12    1    1    2    0    0 -0.24820490477E+02 -0.27243697945E+02  0.22920512666E+02  0.43400757206E+02  0.00000000000E+00 0. -1.
         11    1    3    3    0    0  0.50159419415E+01  0.19253167146E+01 -0.35871509867E+01  0.64601989501E+01  0.51100000000E-03 0. -1.
        -11    1    3    3    0    0  0.47695950688E+01  0.16508843710E+02 -0.16210737461E+02  0.23623695034E+02  0.51100000000E-03 0.  1.
         12    1    3    3    0    0  0.15034953466E+02  0.88095375199E+01 -0.31226242180E+01  0.17703348809E+02  0.00000000000E+00 0. -1.
</event>
<event>
 7    1  0.4875579E-009  0.4778727E+02  0.7816164E-02  0.1312668E+00
        -11   -1    0    0    0    0  0.00000000000E+00  0.00000000000E+00  0.45593999997E+02  0.45594000000E+02  0.51100000000E-03 0.  1.
         11   -1    0    0    0    0 -0.00000000000E+00 -0.00000000000E+00 -0.45593999997E+02  0.45594000000E+02  0.51100000000E-03 0. -1.
    9900012    2    1    2    0    0  0.24504835100E+01 -0.42078217396E+02 -0.10346114508E+02  0.47787270350E+02  0.19999996835E+02 0.  0.
         12    1    1    2    0    0 -0.24504835100E+01  0.42078217396E+02  0.10346114508E+02  0.43400729650E+02  0.00000000000E+00 0. -1.
         11    1    3    3    0    0  0.49030621695E+01 -0.12983329057E+02 -0.81597583688E+01  0.16099332562E+02  0.51100000000E-03 0. -1.
        -11    1    3    3    0    0  0.54411136821E+00 -0.54511810391E+01 -0.53364296421E+01  0.76478044881E+01  0.51100000000E-03 0.  1.
        -12    1    3    3    0    0 -0.29966900277E+01 -0.23643707301E+02  0.31500735024E+01  0.24040133300E+02  0.00000000000E+00 0.  1.
</event>
<event>
 7    1  0.4875579E-009  0.4778727E+02  0.7816164E-02  0.1312668E+00
        -11   -1    0    0    0    0  0.00000000000E+00  0.00000000000E+00  0.45593999997E+02  0.45594000000E+02  0.51100000000E-03 0. -1.
         11   -1    0    0    0    0 -0.00000000000E+00 -0.00000000000E+00 -0.45593999997E+02  0.45594000000E+02  0.51100000000E-03 0.  1.
    9900012    2    1    2    0    0 -0.24751627635E+02 -0.33320376391E+02 -0.12678036076E+02  0.47787272446E+02  0.20000006392E+02 0.  0.
         12    1    1    2    0    0  0.24751627635E+02  0.33320376391E+02  0.12678036076E+02  0.43400727554E+02  0.00000000000E+00 0. -1.
         11    1    3    3    0    0  0.25320721225E+01 -0.40561013125E+01 -0.18643238852E+01  0.51321585031E+01  0.51100000000E-03 0. -1.
        -11    1    3    3    0    0 -0.44864848069E+00 -0.31301642452E+01 -0.30652354106E+01  0.44039620848E+01  0.51100000000E-03 0.  1.
         12    1    3    3    0    0 -0.26835051277E+02 -0.26134110834E+02 -0.77484767798E+01  0.38251151859E+02  0.00000000000E+00 0. -1.
</event>
<event>
 7    1  0.4875579E-009  0.4778727E+02  0.7816164E-02  0.1312668E+00
        -11   -1    0    0    0    0  0.00000000000E+00  0.00000000000E+00  0.45593999997E+02  0.45594000000E+02  0.51100000000E-03 0.  1.
         11   -1    0    0    0    0 -0.00000000000E+00 -0.00000000000E+00 -0.45593999997E+02  0.45594000000E+02  0.51100000000E-03 0. -1.
    9900012    2    1    2    0    0 -0.15367370677E+02 -0.30265930572E+02  0.27045161425E+02  0.47787269690E+02  0.19999993825E+02 0.  0.
         12    1    1    2    0    0  0.15367370677E+02  0.30265930572E+02 -0.27045161425E+02  0.43400730310E+02  0.00000000000E+00 0. -1.
         11    1    3    3    0    0  0.10492709210E+01 -0.88269058934E+00 -0.13996088070E+01  0.19593410157E+01  0.51100000000E-03 0. -1.
        -11    1    3    3    0    0 -0.22626446064E+01 -0.16608534918E+02  0.11579192966E+02  0.20372547772E+02  0.51100000000E-03 0.  1.
        -12    1    3    3    0    0 -0.14153996992E+02 -0.12774705065E+02  0.16865577267E+02  0.25455380902E+02  0.00000000000E+00 0.  1.
</event>
<event>
 7    1  0.4875579E-009  0.4778727E+02  0.7816164E-02  0.1312668E+00
        -11   -1    0    0    0    0  0.00000000000E+00  0.00000000000E+00  0.45593999997E+02  0.45594000000E+02  0.51100000000E-03 0.  1.
         11   -1    0    0    0    0 -0.00000000000E+00 -0.00000000000E+00 -0.45593999997E+02  0.45594000000E+02  0.51100000000E-03 0. -1.
    9900012    2    1    2    0    0 -0.37976532421E+02  0.63546797507E+01  0.20025594099E+02  0.47787269724E+02  0.19999993981E+02 0.  0.
         12    1    1    2    0    0  0.37976532421E+02 -0.63546797507E+01 -0.20025594099E+02  0.43400730276E+02  0.00000000000E+00 0. -1.
         11    1    3    3    0    0 -0.21821290499E+02  0.41083877520E+00  0.59383954493E+01  0.22618621716E+02  0.51100000000E-03 0. -1.
        -11    1    3    3    0    0 -0.13635356743E+02  0.72762196718E+01  0.15584693087E+02  0.21948780948E+02  0.51100000000E-03 0.  1.
         12    1    3    3    0    0 -0.25198851779E+01 -0.13323786962E+01 -0.14974944366E+01  0.32198670606E+01  0.00000000000E+00 0. -1.
</event>
<event>
 7    1  0.4875579E-009  0.4778727E+02  0.7816164E-02  0.1312668E+00
        -11   -1    0    0    0    0  0.00000000000E+00  0.00000000000E+00  0.45593999997E+02  0.45594000000E+02  0.51100000000E-03 0.  1.
         11   -1    0    0    0    0 -0.00000000000E+00 -0.00000000000E+00 -0.45593999997E+02  0.45594000000E+02  0.51100000000E-03 0. -1.
    9900012    2    1    2    0    0  0.26187534310E+01  0.24742087230E+02  0.35561138400E+02  0.47787270578E+02  0.19999997873E+02 0.  0.
         12    1    1    2    0    0 -0.26187534310E+01 -0.24742087230E+02 -0.35561138400E+02  0.43400729422E+02  0.00000000000E+00 0. -1.
         11    1    3    3    0    0  0.53161455395E+00  0.26254956406E+01 -0.37228544035E+00  0.27045217882E+01  0.51100000000E-03 0. -1.
        -11    1    3    3    0    0  0.33906724581E+01 -0.82517877923E+00  0.17765726405E+01  0.39158383961E+01  0.51100000000E-03 0.  1.
         12    1    3    3    0    0 -0.13035335811E+01  0.22941770369E+02  0.34156851200E+02  0.41166910394E+02  0.00000000000E+00 0. -1.
</event>
<event>
 7    1  0.4875579E-009  0.4778727E+02  0.7816164E-02  0.1312668E+00
        -11   -1    0    0    0    0  0.00000000000E+00  0.00000000000E+00  0.45593999997E+02  0.45594000000E+02  0.51100000000E-03 0. -1.
         11   -1    0    0    0    0 -0.00000000000E+00 -0.00000000000E+00 -0.45593999997E+02  0.45594000000E+02  0.51100000000E-03 0.  1.
    9900012    2    1    2    0    0  0.16194925327E+02  0.29814356441E+02 -0.27063844619E+02  0.47787272565E+02  0.20000006931E+02 0.  0.
         12    1    1    2    0    0 -0.16194925327E+02 -0.29814356441E+02  0.27063844619E+02  0.43400727435E+02  0.00000000000E+00 0. -1.
         11    1    3    3    0    0  0.35305245046E+00  0.22002456955E+01 -0.24351215497E+01  0.33008399501E+01  0.51100000000E-03 0. -1.
        -11    1    3    3    0    0  0.14047312382E+01  0.97111698404E+01 -0.18083982599E+02  0.20574511329E+02  0.51100000000E-03 0.  1.
        -12    1    3    3    0    0  0.14437141638E+02  0.17902940905E+02 -0.65447404705E+01  0.23911921286E+02  0.00000000000E+00 0.  1.
</event>
<event>
 7    1  0.4875579E-009  0.4778730E+02  0.7816164E-02  0.1312668E+00
        -11   -1    0    0    0    0  0.00000000000E+00  0.00000000000E+00  0.45593999997E+02  0.45594000000E+02  0.51100000000E-03 0.  1.
         11   -1    0    0    0    0 -0.00000000000E+00 -0.00000000000E+00 -0.45593999997E+02  0.45594000000E+02  0.51100000000E-03 0. -1.
    9900012    2    1    2    0    0 -0.19671326942E+02  0.21012352631E+02  0.32482934626E+02  0.47787295989E+02  0.20000113731E+02 0.  0.
         12    1    1    2    0    0  0.19671326942E+02 -0.21012352631E+02 -0.32482934626E+02  0.43400704011E+02  0.00000000000E+00 0. -1.
         11    1    3    3    0    0 -0.12579489331E+02  0.33168923141E+01  0.14637167003E+02  0.19582951376E+02  0.51100000000E-03 0. -1.
        -11    1    3    3    0    0 -0.67817680802E+01  0.39242919241E+01  0.84890636080E+01  0.11552343771E+02  0.51100000000E-03 0.  1.
         12    1    3    3    0    0 -0.31006953037E+00  0.13771168393E+02  0.93567040151E+01  0.16652000842E+02  0.00000000000E+00 0. -1.
</event>
<event>
 7    1  0.4875579E-009  0.4778725E+02  0.7816164E-02  0.1312668E+00
        -11   -1    0    0    0    0  0.00000000000E+00  0.00000000000E+00  0.45593999997E+02  0.45594000000E+02  0.51100000000E-03 0.  1.
         11   -1    0    0    0    0 -0.00000000000E+00 -0.00000000000E+00 -0.45593999997E+02  0.45594000000E+02  0.51100000000E-03 0. -1.
    9900012    2    1    2    0    0  0.33082348231E+02 -0.48738613798E+01  0.27666380683E+02  0.47787252204E+02  0.19999914097E+02 0.  0.
         12    1    1    2    0    0 -0.33082348231E+02  0.48738613798E+01 -0.27666380683E+02  0.43400747796E+02  0.00000000000E+00 0. -1.
         11    1    3    3    0    0  0.74433362005E+01 -0.13602626288E+01  0.11203849030E+02  0.13519608040E+02  0.51100000000E-03 0.  1.
        -11    1    3    3    0    0  0.17734771891E+02 -0.93842607109E+01  0.12590753045E+02  0.23687835393E+02  0.51100000000E-03 0. -1.
         12    1    3    3    0    0  0.79042401392E+01  0.58706619599E+01  0.38717786074E+01  0.10579808770E+02  0.00000000000E+00 0. -1.
</event>
<event>
 7    1  0.4875579E-009  0.4778727E+02  0.7816164E-02  0.1312668E+00
        -11   -1    0    0    0    0  0.00000000000E+00  0.00000000000E+00  0.45593999997E+02  0.45594000000E+02  0.51100000000E-03 0.  1.
         11   -1    0    0    0    0 -0.00000000000E+00 -0.00000000000E+00 -0.45593999997E+02  0.45594000000E+02  0.51100000000E-03 0. -1.
    9900012    2    1    2    0    0  0.24993456965E+02  0.18610588505E+02  0.30209209701E+02  0.47787271362E+02  0.20000001449E+02 0.  0.
         12    1    1    2    0    0 -0.24993456965E+02 -0.18610588505E+02 -0.30209209701E+02  0.43400728638E+02  0.00000000000E+00 0. -1.
         11    1    3    3    0    0  0.68443895441E+01  0.10907977789E+02  0.66093018304E+01  0.14474547268E+02  0.51100000000E-03 0. -1.
        -11    1    3    3    0    0  0.77175772108E+01  0.43563628084E+00  0.15850384476E+01  0.78906985822E+01  0.51100000000E-03 0.  1.
        -12    1    3    3    0    0  0.10431490210E+02  0.72669744351E+01  0.22014869423E+02  0.25422025512E+02  0.00000000000E+00 0.  1.
</event>
<event>
 7    1  0.4875579E-009  0.4778727E+02  0.7816164E-02  0.1312668E+00
        -11   -1    0    0    0    0  0.00000000000E+00  0.00000000000E+00  0.45593999997E+02  0.45594000000E+02  0.51100000000E-03 0. -1.
         11   -1    0    0    0    0 -0.00000000000E+00 -0.00000000000E+00 -0.45593999997E+02  0.45594000000E+02  0.51100000000E-03 0.  1.
    9900012    2    1    2    0    0  0.46022247616E+01  0.32497286605E+02 -0.28396639207E+02  0.47787271577E+02  0.20000002426E+02 0.  0.
         12    1    1    2    0    0 -0.46022247616E+01 -0.32497286605E+02  0.28396639207E+02  0.43400728423E+02  0.00000000000E+00 0. -1.
         11    1    3    3    0    0  0.37341854761E+01  0.51475352759E+01  0.74873531590E+00  0.64032699006E+01  0.51100000000E-03 0. -1.
        -11    1    3    3    0    0  0.43163651469E+01  0.58944651157E+01 -0.10249881895E+02  0.12587128592E+02  0.51100000000E-03 0.  1.
        -12    1    3    3    0    0 -0.34483258614E+01  0.21455286213E+02 -0.18895492628E+02  0.28796873083E+02  0.00000000000E+00 0.  1.
</event>
<event>
 7    1  0.4875579E-009  0.4778727E+02  0.7816164E-02  0.1312668E+00
        -11   -1    0    0    0    0  0.00000000000E+00  0.00000000000E+00  0.45593999997E+02  0.45594000000E+02  0.51100000000E-03 0.  1.
         11   -1    0    0    0    0 -0.00000000000E+00 -0.00000000000E+00 -0.45593999997E+02  0.45594000000E+02  0.51100000000E-03 0. -1.
    9900012    2    1    2    0    0  0.29567873895E+02 -0.53383944340E+01  0.31318772375E+02  0.47787272761E+02  0.20000007827E+02 0.  0.
         12    1    1    2    0    0 -0.29567873895E+02  0.53383944340E+01 -0.31318772375E+02  0.43400727239E+02  0.00000000000E+00 0. -1.
         11    1    3    3    0    0 -0.19320878819E+00 -0.99932248178E+00 -0.10833759309E+01  0.14864988151E+01  0.51100000000E-03 0. -1.
        -11    1    3    3    0    0  0.13818543646E+02  0.29749946772E+01  0.79789697280E+01  0.16231657340E+02  0.51100000000E-03 0.  1.
        -12    1    3    3    0    0  0.15942539037E+02 -0.73140666294E+01  0.24423178578E+02  0.30069116606E+02  0.00000000000E+00 0.  1.
</event>
<event>
 7    1  0.4875579E-009  0.4778727E+02  0.7816164E-02  0.1312668E+00
        -11   -1    0    0    0    0  0.00000000000E+00  0.00000000000E+00  0.45593999997E+02  0.45594000000E+02  0.51100000000E-03 0.  1.
         11   -1    0    0    0    0 -0.00000000000E+00 -0.00000000000E+00 -0.45593999997E+02  0.45594000000E+02  0.51100000000E-03 0. -1.
    9900012    2    1    2    0    0 -0.15102713105E+02 -0.22652161288E+02  0.33799565637E+02  0.47787274298E+02  0.20000014836E+02 0.  0.
         12    1    1    2    0    0  0.15102713105E+02  0.22652161288E+02 -0.33799565637E+02  0.43400725702E+02  0.00000000000E+00 0. -1.
         11    1    3    3    0    0 -0.57055373156E+00 -0.99860588347E+01  0.19112596163E+02  0.21571699862E+02  0.51100000000E-03 0. -1.
        -11    1    3    3    0    0 -0.15711912857E+01  0.15411926638E+01  0.29686756721E+01  0.36955314084E+01  0.51100000000E-03 0.  1.
        -12    1    3    3    0    0 -0.12960968088E+02 -0.14207295117E+02  0.11718293802E+02  0.22520043028E+02  0.00000000000E+00 0.  1.
</event>
<event>
 7    1  0.4875579E-009  0.4778728E+02  0.7816164E-02  0.1312668E+00
        -11   -1    0    0    0    0  0.00000000000E+00  0.00000000000E+00  0.45593999997E+02  0.45594000000E+02  0.51100000000E-03 0. -1.
         11   -1    0    0    0    0 -0.00000000000E+00 -0.00000000000E+00 -0.45593999997E+02  0.45594000000E+02  0.51100000000E-03 0.  1.
    9900012    2    1    2    0    0 -0.29979245746E+02  0.31178290527E+02  0.35751827186E+01  0.47787275269E+02  0.20000019261E+02 0.  0.
         12    1    1    2    0    0  0.29979245746E+02 -0.31178290527E+02 -0.35751827186E+01  0.43400724731E+02  0.00000000000E+00 0. -1.
         11    1    3    3    0    0 -0.85886406330E+00  0.20725002792E+01  0.40921136296E+01  0.46667225228E+01  0.51100000000E-03 0. -1.
        -11    1    3    3    0    0 -0.34721766107E+01 -0.59007963989E+00 -0.15967211021E+01  0.38670043880E+01  0.51100000000E-03 0.  1.
        -12    1    3    3    0    0 -0.25648205072E+02  0.29695869888E+02  0.10797901911E+01  0.39253548358E+02  0.00000000000E+00 0.  1.
</event>
<event>
 7    1  0.4875579E-009  0.4778726E+02  0.7816164E-02  0.1312668E+00
        -11   -1    0    0    0    0  0.00000000000E+00  0.00000000000E+00  0.45593999997E+02  0.45594000000E+02  0.51100000000E-03 0.  1.
         11   -1    0    0    0    0 -0.00000000000E+00 -0.00000000000E+00 -0.45593999997E+02  0.45594000000E+02  0.51100000000E-03 0. -1.
    9900012    2    1    2    0    0 -0.32195051474E+00 -0.42993919522E+02 -0.59197273650E+01  0.47787263369E+02  0.19999965007E+02 0.  0.
         12    1    1    2    0    0  0.32195051474E+00  0.42993919522E+02  0.59197273650E+01  0.43400736631E+02  0.00000000000E+00 0. -1.
         11    1    3    3    0    0 -0.16895600318E+01 -0.19044823842E+02 -0.52661460419E+01  0.19831596573E+02  0.51100000000E-03 0. -1.
        -11    1    3    3    0    0  0.74680556696E+00 -0.25892357274E+02 -0.46973288283E+00  0.25907383755E+02  0.51100000000E-03 0.  1.
        -12    1    3    3    0    0  0.62080395013E+00  0.19432615941E+01 -0.18384844028E+00  0.20482830411E+01  0.00000000000E+00 0.  1.
</event>
<event>
 7    1  0.4875579E-009  0.4778727E+02  0.7816164E-02  0.1312668E+00
        -11   -1    0    0    0    0  0.00000000000E+00  0.00000000000E+00  0.45593999997E+02  0.45594000000E+02  0.51100000000E-03 0. -1.
         11   -1    0    0    0    0 -0.00000000000E+00 -0.00000000000E+00 -0.45593999997E+02  0.45594000000E+02  0.51100000000E-03 0.  1.
    9900012    2    1    2    0    0  0.10532620073E+01  0.20824013059E+02 -0.38064084025E+02  0.47787269898E+02  0.19999994772E+02 0.  0.
         12    1    1    2    0    0 -0.10532620073E+01 -0.20824013059E+02  0.38064084025E+02  0.43400730102E+02  0.00000000000E+00 0. -1.
         11    1    3    3    0    0 -0.54992805538E+01  0.28645524698E+01 -0.89487011379E+01  0.10887010599E+02  0.51100000000E-03 0. -1.
        -11    1    3    3    0    0 -0.13241655830E+01  0.13301970189E+01 -0.10715092913E+02  0.10878237679E+02  0.51100000000E-03 0.  1.
         12    1    3    3    0    0  0.78767081440E+01  0.16629263570E+02 -0.18400289974E+02  0.26022021620E+02  0.00000000000E+00 0. -1.
</event>
<event>
 7    1  0.4875579E-009  0.4778727E+02  0.7816164E-02  0.1312668E+00
        -11   -1    0    0    0    0  0.00000000000E+00  0.00000000000E+00  0.45593999997E+02  0.45594000000E+02  0.51100000000E-03 0. -1.
         11   -1    0    0    0    0 -0.00000000000E+00 -0.00000000000E+00 -0.45593999997E+02  0.45594000000E+02  0.51100000000E-03 0.  1.
    9900012    2    1    2    0    0  0.15395324821E+02  0.40176172798E+02 -0.56993443880E+01  0.47787269436E+02  0.19999992665E+02 0.  0.
         12    1    1    2    0    0 -0.15395324821E+02 -0.40176172798E+02  0.56993443880E+01  0.43400730564E+02  0.00000000000E+00 0. -1.
         11    1    3    3    0    0  0.13045567832E+02  0.24399070884E+02 -0.23860589403E+01  0.27770393905E+02  0.51100000000E-03 0. -1.
        -11    1    3    3    0    0  0.44866969952E+01  0.48244050015E+01 -0.55752884125E+01  0.86307111346E+01  0.51100000000E-03 0.  1.
         12    1    3    3    0    0 -0.21369400070E+01  0.10952696912E+02  0.22620029648E+01  0.11386164396E+02  0.00000000000E+00 0. -1.
</event>
<event>
 7    1  0.4875579E-009  0.4778727E+02  0.7816164E-02  0.1312668E+00
        -11   -1    0    0    0    0  0.00000000000E+00  0.00000000000E+00  0.45593999997E+02  0.45594000000E+02  0.51100000000E-03 0.  1.
         11   -1    0    0    0    0 -0.00000000000E+00 -0.00000000000E+00 -0.45593999997E+02  0.45594000000E+02  0.51100000000E-03 0. -1.
    9900012    2    1    2    0    0 -0.41134627863E+02  0.80896301490E+01  0.11230473902E+02  0.47787271095E+02  0.20000000233E+02 0.  0.
         12    1    1    2    0    0  0.41134627863E+02 -0.80896301490E+01 -0.11230473902E+02  0.43400728905E+02  0.00000000000E+00 0. -1.
         11    1    3    3    0    0 -0.19969046687E+00 -0.32837027170E+00 -0.79241340572E+00  0.88069437638E+00  0.51100000000E-03 0. -1.
        -11    1    3    3    0    0 -0.30005830785E+02 -0.89757409626E+00  0.12548422887E+02  0.32536417098E+02  0.51100000000E-03 0.  1.
        -12    1    3    3    0    0 -0.10929106611E+02  0.93155745170E+01 -0.52553557857E+00  0.14370159621E+02  0.00000000000E+00 0.  1.
</event>
<event>
 7    1  0.4875579E-009  0.4778727E+02  0.7816164E-02  0.1312668E+00
        -11   -1    0    0    0    0  0.00000000000E+00  0.00000000000E+00  0.45593999997E+02  0.45594000000E+02  0.51100000000E-03 0.  1.
         11   -1    0    0    0    0 -0.00000000000E+00 -0.00000000000E+00 -0.45593999997E+02  0.45594000000E+02  0.51100000000E-03 0. -1.
    9900012    2    1    2    0    0  0.28009536926E+02 -0.31609123733E+02  0.99976257502E+01  0.47787269791E+02  0.19999994287E+02 0.  0.
         12    1    1    2    0    0 -0.28009536926E+02  0.31609123733E+02 -0.99976257502E+01  0.43400730209E+02  0.00000000000E+00 0. -1.
         11    1    3    3    0    0  0.83871679822E+00 -0.24847514792E+01 -0.20573188218E+01  0.33331661790E+01  0.51100000000E-03 0. -1.
        -11    1    3    3    0    0  0.11693632780E+02 -0.94073856656E+01 -0.28718232918E+01  0.15280291945E+02  0.51100000000E-03 0.  1.
         12    1    3    3    0    0  0.15477187348E+02 -0.19716986588E+02  0.14926767864E+02  0.29173811667E+02  0.00000000000E+00 0. -1.
</event>
<event>
 7    1  0.4875579E-009  0.4778727E+02  0.7816164E-02  0.1312668E+00
        -11   -1    0    0    0    0  0.00000000000E+00  0.00000000000E+00  0.45593999997E+02  0.45594000000E+02  0.51100000000E-03 0. -1.
         11   -1    0    0    0    0 -0.00000000000E+00 -0.00000000000E+00 -0.45593999997E+02  0.45594000000E+02  0.51100000000E-03 0.  1.
    9900012    2    1    2    0    0  0.22534775378E+02  0.34607722319E+02 -0.13345893928E+02  0.47787269244E+02  0.19999991790E+02 0.  0.
         12    1    1    2    0    0 -0.22534775378E+02 -0.34607722319E+02  0.13345893928E+02  0.43400730756E+02  0.00000000000E+00 0. -1.
         11    1    3    3    0    0  0.53537368108E+01  0.20796337344E+01 -0.27046020656E+01  0.63484050677E+01  0.51100000000E-03 0. -1.
        -11    1    3    3    0    0  0.45423038429E+01  0.13430274787E+01 -0.57286484056E+01  0.74332805561E+01  0.51100000000E-03 0.  1.
        -12    1    3    3    0    0  0.12638734724E+02  0.31185061106E+02 -0.49126434570E+01  0.34005583620E+02  0.00000000000E+00 0.  1.
</event>
<event>
 7    1  0.4875579E-009  0.4778726E+02  0.7816164E-02  0.1312668E+00
        -11   -1    0    0    0    0  0.00000000000E+00  0.00000000000E+00  0.45593999997E+02  0.45594000000E+02  0.51100000000E-03 0.  1.
         11   -1    0    0    0    0 -0.00000000000E+00 -0.00000000000E+00 -0.45593999997E+02  0.45594000000E+02  0.51100000000E-03 0. -1.
    9900012    2    1    2    0    0 -0.34632840632E+02  0.25547306419E+02 -0.56147550706E+01  0.47787262794E+02  0.19999962383E+02 0.  0.
         12    1    1    2    0    0  0.34632840632E+02 -0.25547306419E+02  0.56147550706E+01  0.43400737206E+02  0.00000000000E+00 0. -1.
         11    1    3    3    0    0 -0.30517159197E+02  0.26728538427E+02 -0.21357836512E+01  0.40623556516E+02  0.51100000000E-03 0. -1.
        -11    1    3    3    0    0 -0.81988831319E+00  0.10375029665E+01  0.61539826719E+00  0.14585419226E+01  0.51100000000E-03 0.  1.
        -12    1    3    3    0    0 -0.32957931222E+01 -0.22187349751E+01 -0.40943696867E+01  0.57051643557E+01  0.00000000000E+00 0.  1.
</event>
<event>
 7    1  0.4875579E-009  0.4778727E+02  0.7816164E-02  0.1312668E+00
        -11   -1    0    0    0    0  0.00000000000E+00  0.00000000000E+00  0.45593999997E+02  0.45594000000E+02  0.51100000000E-03 0.  1.
         11   -1    0    0    0    0 -0.00000000000E+00 -0.00000000000E+00 -0.45593999997E+02  0.45594000000E+02  0.51100000000E-03 0. -1.
    9900012    2    1    2    0    0 -0.34837985269E+02  0.13781300807E+02  0.21909212511E+02  0.47787273481E+02  0.20000011109E+02 0.  0.
         12    1    1    2    0    0  0.34837985269E+02 -0.13781300807E+02 -0.21909212511E+02  0.43400726519E+02  0.00000000000E+00 0. -1.
         11    1    3    3    0    0 -0.49051902377E+01  0.47512864645E+01  0.52183402106E+00  0.68489360737E+01  0.51100000000E-03 0. -1.
        -11    1    3    3    0    0 -0.17875784427E+02  0.89828368557E+01  0.50497145294E+01  0.20633338168E+02  0.51100000000E-03 0.  1.
         12    1    3    3    0    0 -0.12057010604E+02  0.47177486629E-01  0.16337663961E+02  0.20304999240E+02  0.00000000000E+00 0. -1.
</event>
<event>
 7    1  0.4875579E-009  0.4778728E+02  0.7816164E-02  0.1312668E+00
        -11   -1    0    0    0    0  0.00000000000E+00  0.00000000000E+00  0.45593999997E+02  0.45594000000E+02  0.51100000000E-03 0. -1.
         11   -1    0    0    0    0 -0.00000000000E+00 -0.00000000000E+00 -0.45593999997E+02  0.45594000000E+02  0.51100000000E-03 0.  1.
    9900012    2    1    2    0    0  0.90738929617E+01 -0.25784651399E+02 -0.33711105990E+02  0.47787280555E+02  0.20000043361E+02 0.  0.
         12    1    1    2    0    0 -0.90738929617E+01  0.25784651399E+02  0.33711105990E+02  0.43400719445E+02  0.00000000000E+00 0. -1.
         11    1    3    3    0    0  0.19533984971E+01 -0.37902468169E+01 -0.87627164602E+00  0.43531125508E+01  0.51100000000E-03 0. -1.
        -11    1    3    3    0    0  0.10616136399E+02 -0.77123190620E+01 -0.19979771245E+02  0.23903419768E+02  0.51100000000E-03 0.  1.
        -12    1    3    3    0    0 -0.34956419347E+01 -0.14282085521E+02 -0.12855063100E+02  0.19530748236E+02  0.00000000000E+00 0.  1.
</event>
<event>
 7    1  0.4875579E-009  0.4778727E+02  0.7816164E-02  0.1312668E+00
        -11   -1    0    0    0    0  0.00000000000E+00  0.00000000000E+00  0.45593999997E+02  0.45594000000E+02  0.51100000000E-03 0. -1.
         11   -1    0    0    0    0 -0.00000000000E+00 -0.00000000000E+00 -0.45593999997E+02  0.45594000000E+02  0.51100000000E-03 0.  1.
    9900012    2    1    2    0    0  0.37908764765E+02  0.15691901874E+02 -0.14153198088E+02  0.47787271360E+02  0.20000001438E+02 0.  0.
         12    1    1    2    0    0 -0.37908764765E+02 -0.15691901874E+02  0.14153198088E+02  0.43400728640E+02  0.00000000000E+00 0. -1.
         11    1    3    3    0    0  0.15906698375E+02  0.71694568092E+01 -0.61946305063E+01  0.18514794395E+02  0.51100000000E-03 0. -1.
        -11    1    3    3    0    0  0.14007519363E+02  0.40474460510E+00 -0.10607280096E+02  0.17575232807E+02  0.51100000000E-03 0.  1.
         12    1    3    3    0    0  0.79945470265E+01  0.81177004594E+01  0.26487125148E+01  0.11697244158E+02  0.00000000000E+00 0. -1.
</event>
<event>
 7    1  0.4875579E-009  0.4778726E+02  0.7816164E-02  0.1312668E+00
        -11   -1    0    0    0    0  0.00000000000E+00  0.00000000000E+00  0.45593999997E+02  0.45594000000E+02  0.51100000000E-03 0.  1.
         11   -1    0    0    0    0 -0.00000000000E+00 -0.00000000000E+00 -0.45593999997E+02  0.45594000000E+02  0.51100000000E-03 0. -1.
    9900012    2    1    2    0    0 -0.42684524593E+02 -0.51431144570E+01 -0.59332953858E+01  0.47787259682E+02  0.19999948194E+02 0.  0.
         12    1    1    2    0    0  0.42684524593E+02  0.51431144570E+01  0.59332953858E+01  0.43400740318E+02  0.00000000000E+00 0. -1.
         11    1    3    3    0    0 -0.92649696726E+01  0.38030461479E+01 -0.79561820024E+01  0.12790764455E+02  0.51100000000E-03 0. -1.
        -11    1    3    3    0    0 -0.11264329491E+02 -0.14496953596E+01 -0.10531952913E+01  0.11405961428E+02  0.51100000000E-03 0.  1.
         12    1    3    3    0    0 -0.22155225429E+02 -0.74964652453E+01  0.30760819079E+01  0.23590533799E+02  0.00000000000E+00 0. -1.
</event>
<event>
 7    1  0.4875579E-009  0.4778727E+02  0.7816164E-02  0.1312668E+00
        -11   -1    0    0    0    0  0.00000000000E+00  0.00000000000E+00  0.45593999997E+02  0.45594000000E+02  0.51100000000E-03 0. -1.
         11   -1    0    0    0    0 -0.00000000000E+00 -0.00000000000E+00 -0.45593999997E+02  0.45594000000E+02  0.51100000000E-03 0.  1.
    9900012    2    1    2    0    0 -0.36587885722E+02 -0.22985052912E+02  0.40788665320E+01  0.47787271997E+02  0.20000004345E+02 0.  0.
         12    1    1    2    0    0  0.36587885722E+02  0.22985052912E+02 -0.40788665320E+01  0.43400728003E+02  0.00000000000E+00 0. -1.
         11    1    3    3    0    0 -0.10181145244E+02  0.15182302890E+00  0.42389215832E+01  0.11029380090E+02  0.51100000000E-03 0. -1.
        -11    1    3    3    0    0 -0.24953635495E+01  0.78868459462E+00  0.12551868445E+01  0.29024742737E+01  0.51100000000E-03 0.  1.
        -12    1    3    3    0    0 -0.23911376928E+02 -0.23925560536E+02 -0.14152418957E+01  0.33855417634E+02  0.00000000000E+00 0.  1.
</event>
<event>
 7    1  0.4875579E-009  0.4778727E+02  0.7816164E-02  0.1312668E+00
        -11   -1    0    0    0    0  0.00000000000E+00  0.00000000000E+00  0.45593999997E+02  0.45594000000E+02  0.51100000000E-03 0. -1.
         11   -1    0    0    0    0 -0.00000000000E+00 -0.00000000000E+00 -0.45593999997E+02  0.45594000000E+02  0.51100000000E-03 0.  1.
    9900012    2    1    2    0    0  0.91539197283E+01 -0.37252444505E+02 -0.20299858505E+02  0.47787272780E+02  0.20000007911E+02 0.  0.
         12    1    1    2    0    0 -0.91539197283E+01  0.37252444505E+02  0.20299858505E+02  0.43400727220E+02  0.00000000000E+00 0. -1.
         11    1    3    3    0    0 -0.34049265825E+01 -0.14564098525E+02 -0.18604143401E+01  0.15072081232E+02  0.51100000000E-03 0. -1.
        -11    1    3    3    0    0 -0.41599686601E+00 -0.45997696432E+01 -0.19545200487E+01  0.50150855471E+01  0.51100000000E-03 0.  1.
        -12    1    3    3    0    0  0.12974843177E+02 -0.18088576336E+02 -0.16484924116E+02  0.27700106000E+02  0.00000000000E+00 0.  1.
</event>
<event>
 7    1  0.4875579E-009  0.4778727E+02  0.7816164E-02  0.1312668E+00
        -11   -1    0    0    0    0  0.00000000000E+00  0.00000000000E+00  0.45593999997E+02  0.45594000000E+02  0.51100000000E-03 0. -1.
         11   -1    0    0    0    0 -0.00000000000E+00 -0.00000000000E+00 -0.45593999997E+02  0.45594000000E+02  0.51100000000E-03 0.  1.
    9900012    2    1    2    0    0 -0.18767324477E+02  0.14736774227E+02 -0.36252422027E+02  0.47787273215E+02  0.20000009895E+02 0.  0.
         12    1    1    2    0    0  0.18767324477E+02 -0.14736774227E+02  0.36252422027E+02  0.43400726785E+02  0.00000000000E+00 0. -1.
         11    1    3    3    0    0 -0.62321915517E+01  0.29494644121E+01 -0.68734344350E+01  0.97356896545E+01  0.51100000000E-03 0. -1.
        -11    1    3    3    0    0 -0.14498664242E+02  0.13783340340E+02 -0.28993563164E+02  0.35225252887E+02  0.51100000000E-03 0.  1.
         12    1    3    3    0    0  0.19635313166E+01 -0.19960305247E+01 -0.38542442839E+00  0.28263306736E+01  0.00000000000E+00 0. -1.
</event>
<event>
 7    1  0.4875579E-009  0.4778728E+02  0.7816164E-02  0.1312668E+00
        -11   -1    0    0    0    0  0.00000000000E+00  0.00000000000E+00  0.45593999997E+02  0.45594000000E+02  0.51100000000E-03 0.  1.
         11   -1    0    0    0    0 -0.00000000000E+00 -0.00000000000E+00 -0.45593999997E+02  0.45594000000E+02  0.51100000000E-03 0. -1.
    9900012    2    1    2    0    0 -0.15203940451E+01  0.41174260179E+02  0.13637855390E+02  0.47787281124E+02  0.20000045956E+02 0.  0.
         12    1    1    2    0    0  0.15203940451E+01 -0.41174260179E+02 -0.13637855390E+02  0.43400718876E+02  0.00000000000E+00 0. -1.
         11    1    3    3    0    0 -0.34857913727E+01  0.21210983832E+01  0.72630868203E-01  0.40810630171E+01  0.51100000000E-03 0. -1.
        -11    1    3    3    0    0  0.42074220433E+01  0.12704853223E+02 -0.11697906627E+01  0.13434437320E+02  0.51100000000E-03 0.  1.
        -12    1    3    3    0    0 -0.22420247157E+01  0.26348308573E+02  0.14735015184E+02  0.30271780786E+02  0.00000000000E+00 0.  1.
</event>
<event>
 7    1  0.4875579E-009  0.4778726E+02  0.7816164E-02  0.1312668E+00
        -11   -1    0    0    0    0  0.00000000000E+00  0.00000000000E+00  0.45593999997E+02  0.45594000000E+02  0.51100000000E-03 0.  1.
         11   -1    0    0    0    0 -0.00000000000E+00 -0.00000000000E+00 -0.45593999997E+02  0.45594000000E+02  0.51100000000E-03 0. -1.
    9900012    2    1    2    0    0  0.14381996682E+02  0.28260606390E+02  0.29633105464E+02  0.47787255288E+02  0.19999928158E+02 0.  0.
         12    1    1    2    0    0 -0.14381996682E+02 -0.28260606390E+02 -0.29633105464E+02  0.43400744712E+02  0.00000000000E+00 0. -1.
         11    1    3    3    0    0 -0.14817243688E+01  0.47212604784E+01  0.94178914936E+01  0.10638725866E+02  0.51100000000E-03 0. -1.
        -11    1    3    3    0    0 -0.29097038884E+00 -0.10612264971E+01 -0.44832451402E+00  0.11882173944E+01  0.51100000000E-03 0.  1.
        -12    1    3    3    0    0  0.16154691440E+02  0.24600572409E+02  0.20663538485E+02  0.35960312027E+02  0.00000000000E+00 0.  1.
</event>
<event>
 7    1  0.4875579E-009  0.4778727E+02  0.7816164E-02  0.1312668E+00
        -11   -1    0    0    0    0  0.00000000000E+00  0.00000000000E+00  0.45593999997E+02  0.45594000000E+02  0.51100000000E-03 0. -1.
         11   -1    0    0    0    0 -0.00000000000E+00 -0.00000000000E+00 -0.45593999997E+02  0.45594000000E+02  0.51100000000E-03 0.  1.
    9900012    2    1    2    0    0 -0.18841465864E+02 -0.27981187795E+02 -0.27307062288E+02  0.47787270085E+02  0.19999995627E+02 0.  0.
         12    1    1    2    0    0  0.18841465864E+02  0.27981187795E+02  0.27307062288E+02  0.43400729915E+02  0.00000000000E+00 0. -1.
         11    1    3    3    0    0  0.86531083226E-01 -0.61198995861E+01 -0.29748841477E+01  0.68051887943E+01  0.51100000000E-03 0. -1.
        -11    1    3    3    0    0 -0.72954416622E+01 -0.98828369477E+01 -0.20424083137E+02  0.23833529060E+02  0.51100000000E-03 0.  1.
         12    1    3    3    0    0 -0.11632555285E+02 -0.11978451261E+02 -0.39080950029E+01  0.17148552232E+02  0.00000000000E+00 0. -1.
</event>
<event>
 7    1  0.4875579E-009  0.4778727E+02  0.7816164E-02  0.1312668E+00
        -11   -1    0    0    0    0  0.00000000000E+00  0.00000000000E+00  0.45593999997E+02  0.45594000000E+02  0.51100000000E-03 0.  1.
         11   -1    0    0    0    0 -0.00000000000E+00 -0.00000000000E+00 -0.45593999997E+02  0.45594000000E+02  0.51100000000E-03 0. -1.
    9900012    2    1    2    0    0 -0.12177758402E+02  0.18394791120E+02  0.37375890922E+02  0.47787270026E+02  0.19999995356E+02 0.  0.
         12    1    1    2    0    0  0.12177758402E+02 -0.18394791120E+02 -0.37375890922E+02  0.43400729974E+02  0.00000000000E+00 0. -1.
         11    1    3    3    0    0  0.13254027174E+01  0.34131229320E+00 -0.28242171369E+00  0.13974794203E+01  0.51100000000E-03 0. -1.
        -11    1    3    3    0    0  0.86591348014E+00 -0.13669350244E+01 -0.35773822511E-01  0.16185170816E+01  0.51100000000E-03 0.  1.
        -12    1    3    3    0    0 -0.14369074600E+02  0.19420413851E+02  0.37694086458E+02  0.44771273524E+02  0.00000000000E+00 0.  1.
</event>
<event>
 7    1  0.4875579E-009  0.4778727E+02  0.7816164E-02  0.1312668E+00
        -11   -1    0    0    0    0  0.00000000000E+00  0.00000000000E+00  0.45593999997E+02  0.45594000000E+02  0.51100000000E-03 0.  1.
         11   -1    0    0    0    0 -0.00000000000E+00 -0.00000000000E+00 -0.45593999997E+02  0.45594000000E+02  0.51100000000E-03 0. -1.
    9900012    2    1    2    0    0  0.13910873712E+02  0.35195646774E+02  0.21245640714E+02  0.47787271796E+02  0.20000003427E+02 0.  0.
         12    1    1    2    0    0 -0.13910873712E+02 -0.35195646774E+02 -0.21245640714E+02  0.43400728204E+02  0.00000000000E+00 0. -1.
         11    1    3    3    0    0  0.85670126741E+01  0.19407365515E+02  0.22162363470E+02  0.30679144337E+02  0.51100000000E-03 0.  1.
        -11    1    3    3    0    0 -0.48380741728E+00  0.22783993833E+01 -0.53555832059E+00  0.23899783143E+01  0.51100000000E-03 0. -1.
         12    1    3    3    0    0  0.58276684554E+01  0.13509881876E+02 -0.38116443528E+00  0.14718149145E+02  0.00000000000E+00 0. -1.
</event>
<event>
 7    1  0.4875579E-009  0.4778727E+02  0.7816164E-02  0.1312668E+00
        -11   -1    0    0    0    0  0.00000000000E+00  0.00000000000E+00  0.45593999997E+02  0.45594000000E+02  0.51100000000E-03 0. -1.
         11   -1    0    0    0    0 -0.00000000000E+00 -0.00000000000E+00 -0.45593999997E+02  0.45594000000E+02  0.51100000000E-03 0.  1.
    9900012    2    1    2    0    0 -0.11802088530E+02  0.92504736607E+01 -0.40727912662E+02  0.47787269287E+02  0.19999991987E+02 0.  0.
         12    1    1    2    0    0  0.11802088530E+02 -0.92504736607E+01  0.40727912662E+02  0.43400730713E+02  0.00000000000E+00 0. -1.
         11    1    3    3    0    0 -0.72012961528E-01 -0.21013347006E+00 -0.10461099302E+02  0.10463457403E+02  0.51100000000E-03 0. -1.
        -11    1    3    3    0    0  0.26353074636E+01  0.39982643647E+01 -0.14650719851E+02  0.15413453726E+02  0.51100000000E-03 0.  1.
         12    1    3    3    0    0 -0.14365383032E+02  0.54623427660E+01 -0.15616093509E+02  0.21910358158E+02  0.00000000000E+00 0. -1.
</event>
<event>
 7    1  0.4875579E-009  0.4778727E+02  0.7816164E-02  0.1312668E+00
        -11   -1    0    0    0    0  0.00000000000E+00  0.00000000000E+00  0.45593999997E+02  0.45594000000E+02  0.51100000000E-03 0. -1.
         11   -1    0    0    0    0 -0.00000000000E+00 -0.00000000000E+00 -0.45593999997E+02  0.45594000000E+02  0.51100000000E-03 0.  1.
    9900012    2    1    2    0    0  0.43282560047E+02  0.30136324035E+01  0.10776650833E+01  0.47787270207E+02  0.19999996184E+02 0.  0.
         12    1    1    2    0    0 -0.43282560047E+02 -0.30136324035E+01 -0.10776650833E+01  0.43400729793E+02  0.00000000000E+00 0. -1.
         11    1    3    3    0    0  0.71149502725E+01 -0.39407096503E+01  0.39690732233E+01  0.90501520673E+01  0.51100000000E-03 0. -1.
        -11    1    3    3    0    0  0.54321359973E+01 -0.28704483995E+01  0.10387164360E+01  0.62310920073E+01  0.51100000000E-03 0.  1.
        -12    1    3    3    0    0  0.30735473777E+02  0.98247904533E+01 -0.39301245760E+01  0.32506026133E+02  0.00000000000E+00 0.  1.
</event>
<event>
 7    1  0.4875579E-009  0.4778727E+02  0.7816164E-02  0.1312668E+00
        -11   -1    0    0    0    0  0.00000000000E+00  0.00000000000E+00  0.45593999997E+02  0.45594000000E+02  0.51100000000E-03 0. -1.
         11   -1    0    0    0    0 -0.00000000000E+00 -0.00000000000E+00 -0.45593999997E+02  0.45594000000E+02  0.51100000000E-03 0.  1.
    9900012    2    1    2    0    0 -0.38685843496E+02  0.16838319414E+02  0.10173472295E+02  0.47787273897E+02  0.20000013006E+02 0.  0.
         12    1    1    2    0    0  0.38685843496E+02 -0.16838319414E+02 -0.10173472295E+02  0.43400726103E+02  0.00000000000E+00 0. -1.
         11    1    3    3    0    0 -0.95392277489E+01 -0.60350472192E-01  0.80892617621E+01  0.12507464345E+02  0.51100000000E-03 0. -1.
        -11    1    3    3    0    0 -0.15972376726E+02  0.35152595148E+01 -0.24338431687E+00  0.16356439219E+02  0.51100000000E-03 0.  1.
        -12    1    3    3    0    0 -0.13174239021E+02  0.13383410372E+02  0.23275948502E+01  0.18923370333E+02  0.00000000000E+00 0.  1.
</event>
<event>
 7    1  0.4875579E-009  0.4778728E+02  0.7816164E-02  0.1312668E+00
        -11   -1    0    0    0    0  0.00000000000E+00  0.00000000000E+00  0.45593999997E+02  0.45594000000E+02  0.51100000000E-03 0.  1.
         11   -1    0    0    0    0 -0.00000000000E+00 -0.00000000000E+00 -0.45593999997E+02  0.45594000000E+02  0.51100000000E-03 0. -1.
    9900012    2    1    2    0    0 -0.22243003472E+02 -0.23030185628E+02  0.29299856925E+02  0.47787282617E+02  0.20000052764E+02 0.  0.
         12    1    1    2    0    0  0.22243003472E+02  0.23030185628E+02 -0.29299856925E+02  0.43400717383E+02  0.00000000000E+00 0. -1.
         11    1    3    3    0    0 -0.58420977454E+01 -0.10322962786E+01  0.66871849332E+01  0.89394733775E+01  0.51100000000E-03 0.  1.
        -11    1    3    3    0    0  0.56447452887E+00 -0.31350647636E+00 -0.18861765492E+01  0.19936348814E+01  0.51100000000E-03 0. -1.
        -12    1    3    3    0    0 -0.16965380256E+02 -0.21684382873E+02  0.24498848541E+02  0.36854174358E+02  0.00000000000E+00 0.  1.
</event>
<event>
 7    1  0.4875579E-009  0.4778727E+02  0.7816164E-02  0.1312668E+00
        -11   -1    0    0    0    0  0.00000000000E+00  0.00000000000E+00  0.45593999997E+02  0.45594000000E+02  0.51100000000E-03 0.  1.
         11   -1    0    0    0    0 -0.00000000000E+00 -0.00000000000E+00 -0.45593999997E+02  0.45594000000E+02  0.51100000000E-03 0. -1.
    9900012    2    1    2    0    0  0.35006305301E+02  0.12980681254E+02  0.22128801291E+02  0.47787270245E+02  0.19999996357E+02 0.  0.
         12    1    1    2    0    0 -0.35006305301E+02 -0.12980681254E+02 -0.22128801291E+02  0.43400729755E+02  0.00000000000E+00 0. -1.
         11    1    3    3    0    0  0.37146126533E+01  0.30076871840E+00 -0.15306022367E+01  0.40288400879E+01  0.51100000000E-03 0. -1.
        -11    1    3    3    0    0  0.54113286178E+00  0.50932322951E+01  0.28506636474E+01  0.58617508884E+01  0.51100000000E-03 0.  1.
        -12    1    3    3    0    0  0.30750559786E+02  0.75866802403E+01  0.20808739880E+02  0.37896679269E+02  0.00000000000E+00 0.  1.
</event>
<event>
 7    1  0.4875579E-009  0.4778727E+02  0.7816164E-02  0.1312668E+00
        -11   -1    0    0    0    0  0.00000000000E+00  0.00000000000E+00  0.45593999997E+02  0.45594000000E+02  0.51100000000E-03 0. -1.
         11   -1    0    0    0    0 -0.00000000000E+00 -0.00000000000E+00 -0.45593999997E+02  0.45594000000E+02  0.51100000000E-03 0.  1.
    9900012    2    1    2    0    0  0.61818845875E+01 -0.39541619623E+02  0.16788925427E+02  0.47787269632E+02  0.19999993561E+02 0.  0.
         12    1    1    2    0    0 -0.61818845875E+01  0.39541619623E+02 -0.16788925427E+02  0.43400730368E+02  0.00000000000E+00 0. -1.
         11    1    3    3    0    0  0.19088656140E+00 -0.68317110111E+00 -0.22577960681E+01  0.23666017364E+01  0.51100000000E-03 0. -1.
        -11    1    3    3    0    0  0.42206663997E+01 -0.35081953891E+01  0.47118304599E+01  0.72334505106E+01  0.51100000000E-03 0.  1.
        -12    1    3    3    0    0  0.17703316264E+01 -0.35350253133E+02  0.14334891036E+02  0.38187217385E+02  0.00000000000E+00 0.  1.
</event>
<event>
 7    1  0.4875579E-009  0.4778727E+02  0.7816164E-02  0.1312668E+00
        -11   -1    0    0    0    0  0.00000000000E+00  0.00000000000E+00  0.45593999997E+02  0.45594000000E+02  0.51100000000E-03 0.  1.
         11   -1    0    0    0    0 -0.00000000000E+00 -0.00000000000E+00 -0.45593999997E+02  0.45594000000E+02  0.51100000000E-03 0. -1.
    9900012    2    1    2    0    0 -0.25187787983E+02  0.19991956140E+02  0.29146530466E+02  0.47787271757E+02  0.20000003251E+02 0.  0.
         12    1    1    2    0    0  0.25187787983E+02 -0.19991956140E+02 -0.29146530466E+02  0.43400728243E+02  0.00000000000E+00 0. -1.
         11    1    3    3    0    0 -0.71838395552E+01  0.15660961801E+01  0.21512812672E+01  0.76608236732E+01  0.51100000000E-03 0. -1.
        -11    1    3    3    0    0 -0.18760334775E+02  0.10262051183E+02  0.20986806295E+02  0.29961740505E+02  0.51100000000E-03 0.  1.
        -12    1    3    3    0    0  0.75638634677E+00  0.81638087772E+01  0.60084429035E+01  0.10164707580E+02  0.00000000000E+00 0.  1.
</event>
<event>
 7    1  0.4875579E-009  0.4778727E+02  0.7816164E-02  0.1312668E+00
        -11   -1    0    0    0    0  0.00000000000E+00  0.00000000000E+00  0.45593999997E+02  0.45594000000E+02  0.51100000000E-03 0.  1.
         11   -1    0    0    0    0 -0.00000000000E+00 -0.00000000000E+00 -0.45593999997E+02  0.45594000000E+02  0.51100000000E-03 0. -1.
    9900012    2    1    2    0    0  0.87159575975E+00 -0.13005677836E+02  0.41397054436E+02  0.47787269002E+02  0.19999990689E+02 0.  0.
         12    1    1    2    0    0 -0.87159575975E+00  0.13005677836E+02 -0.41397054436E+02  0.43400730998E+02  0.00000000000E+00 0. -1.
         11    1    3    3    0    0 -0.11734620771E+01 -0.11797104502E+01  0.73834087446E+00  0.18204058615E+01  0.51100000000E-03 0. -1.
        -11    1    3    3    0    0  0.91338355131E+01 -0.37548459288E+01  0.13227798421E+02  0.16507588269E+02  0.51100000000E-03 0.  1.
         12    1    3    3    0    0 -0.70887776763E+01 -0.80711214566E+01  0.27430915141E+02  0.29459274872E+02  0.00000000000E+00 0. -1.
</event>
<event>
 7    1  0.4875579E-009  0.4778727E+02  0.7816164E-02  0.1312668E+00
        -11   -1    0    0    0    0  0.00000000000E+00  0.00000000000E+00  0.45593999997E+02  0.45594000000E+02  0.51100000000E-03 0.  1.
         11   -1    0    0    0    0 -0.00000000000E+00 -0.00000000000E+00 -0.45593999997E+02  0.45594000000E+02  0.51100000000E-03 0. -1.
    9900012    2    1    2    0    0 -0.42266807112E+02 -0.87739067011E+01  0.44898668192E+01  0.47787270441E+02  0.19999997248E+02 0.  0.
         12    1    1    2    0    0  0.42266807112E+02  0.87739067011E+01 -0.44898668192E+01  0.43400729559E+02  0.00000000000E+00 0. -1.
         11    1    3    3    0    0 -0.83509465469E+01 -0.12147524295E+01 -0.62129767592E+01  0.10479265822E+02  0.51100000000E-03 0. -1.
        -11    1    3    3    0    0 -0.18283306496E+02 -0.15507540961E+01  0.20667700039E+01  0.18464985059E+02  0.51100000000E-03 0.  1.
         12    1    3    3    0    0 -0.15632554068E+02 -0.60084001755E+01  0.86360735745E+01  0.18843019560E+02  0.00000000000E+00 0. -1.
</event>
<event>
 7    1  0.4875579E-009  0.4778727E+02  0.7816164E-02  0.1312668E+00
        -11   -1    0    0    0    0  0.00000000000E+00  0.00000000000E+00  0.45593999997E+02  0.45594000000E+02  0.51100000000E-03 0. -1.
         11   -1    0    0    0    0 -0.00000000000E+00 -0.00000000000E+00 -0.45593999997E+02  0.45594000000E+02  0.51100000000E-03 0.  1.
    9900012    2    1    2    0    0  0.84338844946E+01 -0.29516328517E+02 -0.30680273329E+02  0.47787271569E+02  0.20000002392E+02 0.  0.
         12    1    1    2    0    0 -0.84338844946E+01  0.29516328517E+02  0.30680273329E+02  0.43400728431E+02  0.00000000000E+00 0. -1.
         11    1    3    3    0    0 -0.15104927027E-01 -0.77601862162E+00 -0.18317910039E+01  0.19894450490E+01  0.51100000000E-03 0. -1.
        -11    1    3    3    0    0 -0.39906667499E+01 -0.16033148403E+02 -0.19979951107E+02  0.25926544608E+02  0.51100000000E-03 0.  1.
         12    1    3    3    0    0  0.12439656172E+02 -0.12707161492E+02 -0.88685312181E+01  0.19871281912E+02  0.00000000000E+00 0. -1.
</event>
<event>
 7    1  0.4875579E-009  0.4778727E+02  0.7816164E-02  0.1312668E+00
        -11   -1    0    0    0    0  0.00000000000E+00  0.00000000000E+00  0.45593999997E+02  0.45594000000E+02  0.51100000000E-03 0.  1.
         11   -1    0    0    0    0 -0.00000000000E+00 -0.00000000000E+00 -0.45593999997E+02  0.45594000000E+02  0.51100000000E-03 0. -1.
    9900012    2    1    2    0    0 -0.18064774648E+02 -0.31447812347E+02  0.23839518654E+02  0.47787266894E+02  0.19999981074E+02 0.  0.
         12    1    1    2    0    0  0.18064774648E+02  0.31447812347E+02 -0.23839518654E+02  0.43400733106E+02  0.00000000000E+00 0. -1.
         11    1    3    3    0    0 -0.50233925735E+01 -0.11628220161E+02  0.24073939599E+01  0.12893623347E+02  0.51100000000E-03 0.  1.
        -11    1    3    3    0    0 -0.56067989995E+01 -0.11942377554E+02  0.30239528013E+01  0.13535171497E+02  0.51100000000E-03 0. -1.
         12    1    3    3    0    0 -0.74345830755E+01 -0.78772146326E+01  0.18408171893E+02  0.21358472050E+02  0.00000000000E+00 0. -1.
</event>
<event>
 7    1  0.4875579E-009  0.4778727E+02  0.7816164E-02  0.1312668E+00
        -11   -1    0    0    0    0  0.00000000000E+00  0.00000000000E+00  0.45593999997E+02  0.45594000000E+02  0.51100000000E-03 0.  1.
         11   -1    0    0    0    0 -0.00000000000E+00 -0.00000000000E+00 -0.45593999997E+02  0.45594000000E+02  0.51100000000E-03 0. -1.
    9900012    2    1    2    0    0  0.30120868155E+02  0.30262496683E+02  0.77806099372E+01  0.47787270802E+02  0.19999998894E+02 0.  0.
         12    1    1    2    0    0 -0.30120868155E+02 -0.30262496683E+02 -0.77806099372E+01  0.43400729198E+02  0.00000000000E+00 0. -1.
         11    1    3    3    0    0  0.71684902696E+01  0.11856592506E+02 -0.30634596303E+00  0.13858567268E+02  0.51100000000E-03 0. -1.
        -11    1    3    3    0    0  0.17632058031E+02  0.11235309673E+02 -0.13325314335E+01  0.20949875755E+02  0.51100000000E-03 0.  1.
         12    1    3    3    0    0  0.53203198546E+01  0.71705945033E+01  0.94194873337E+01  0.12978827779E+02  0.00000000000E+00 0. -1.
</event>
<event>
 7    1  0.4875579E-009  0.4778727E+02  0.7816164E-02  0.1312668E+00
        -11   -1    0    0    0    0  0.00000000000E+00  0.00000000000E+00  0.45593999997E+02  0.45594000000E+02  0.51100000000E-03 0.  1.
         11   -1    0    0    0    0 -0.00000000000E+00 -0.00000000000E+00 -0.45593999997E+02  0.45594000000E+02  0.51100000000E-03 0. -1.
    9900012    2    1    2    0    0  0.38468212738E+02 -0.17565983952E+02  0.97599216364E+01  0.47787271276E+02  0.20000001054E+02 0.  0.
         12    1    1    2    0    0 -0.38468212738E+02  0.17565983952E+02 -0.97599216364E+01  0.43400728724E+02  0.00000000000E+00 0. -1.
         11    1    3    3    0    0  0.13335732858E+01  0.18949310291E+01 -0.19727044929E+00  0.23255315962E+01  0.51100000000E-03 0. -1.
        -11    1    3    3    0    0  0.26539962591E+02 -0.78970190964E+01  0.17115501629E+01  0.27742781569E+02  0.51100000000E-03 0.  1.
        -12    1    3    3    0    0  0.10594676861E+02 -0.11563895884E+02  0.82456419229E+01  0.17718958111E+02  0.00000000000E+00 0.  1.
</event>
<event>
 7    1  0.4875579E-009  0.4778727E+02  0.7816164E-02  0.1312668E+00
        -11   -1    0    0    0    0  0.00000000000E+00  0.00000000000E+00  0.45593999997E+02  0.45594000000E+02  0.51100000000E-03 0.  1.
         11   -1    0    0    0    0 -0.00000000000E+00 -0.00000000000E+00 -0.45593999997E+02  0.45594000000E+02  0.51100000000E-03 0. -1.
    9900012    2    1    2    0    0 -0.30385112770E+02  0.27077514526E+02  0.15072375247E+02  0.47787269977E+02  0.19999995132E+02 0.  0.
         12    1    1    2    0    0  0.30385112770E+02 -0.27077514526E+02 -0.15072375247E+02  0.43400730023E+02  0.00000000000E+00 0. -1.
         11    1    3    3    0    0 -0.19259696062E+01  0.19199687975E+01  0.46960023464E+01  0.54266082782E+01  0.51100000000E-03 0. -1.
        -11    1    3    3    0    0 -0.18123688051E+02  0.82781554360E+01  0.10596205405E+02  0.22567133075E+02  0.51100000000E-03 0.  1.
         12    1    3    3    0    0 -0.10335455113E+02  0.16879390292E+02 -0.21983250415E+00  0.19793528623E+02  0.00000000000E+00 0. -1.
</event>
<event>
 7    1  0.4875579E-009  0.4778727E+02  0.7816164E-02  0.1312668E+00
        -11   -1    0    0    0    0  0.00000000000E+00  0.00000000000E+00  0.45593999997E+02  0.45594000000E+02  0.51100000000E-03 0. -1.
         11   -1    0    0    0    0 -0.00000000000E+00 -0.00000000000E+00 -0.45593999997E+02  0.45594000000E+02  0.51100000000E-03 0.  1.
    9900012    2    1    2    0    0 -0.30778207834E+02 -0.19365291975E+02 -0.23691995316E+02  0.47787271287E+02  0.20000001105E+02 0.  0.
         12    1    1    2    0    0  0.30778207834E+02  0.19365291975E+02  0.23691995316E+02  0.43400728713E+02  0.00000000000E+00 0. -1.
         11    1    3    3    0    0 -0.51900922835E+01 -0.23418733447E+01 -0.80102789471E+01  0.98278175474E+01  0.51100000000E-03 0. -1.
        -11    1    3    3    0    0 -0.15234931130E+02 -0.13679734745E+02 -0.17492549232E+02  0.26930049167E+02  0.51100000000E-03 0.  1.
        -12    1    3    3    0    0 -0.10353184421E+02 -0.33436838857E+01  0.18108328626E+01  0.11029404573E+02  0.00000000000E+00 0.  1.
</event>
<event>
 7    1  0.4875579E-009  0.4778727E+02  0.7816164E-02  0.1312668E+00
        -11   -1    0    0    0    0  0.00000000000E+00  0.00000000000E+00  0.45593999997E+02  0.45594000000E+02  0.51100000000E-03 0. -1.
         11   -1    0    0    0    0 -0.00000000000E+00 -0.00000000000E+00 -0.45593999997E+02  0.45594000000E+02  0.51100000000E-03 0.  1.
    9900012    2    1    2    0    0  0.36651411082E+02  0.12802957391E+02 -0.19400557809E+02  0.47787270795E+02  0.19999998863E+02 0.  0.
         12    1    1    2    0    0 -0.36651411082E+02 -0.12802957391E+02  0.19400557809E+02  0.43400729205E+02  0.00000000000E+00 0. -1.
         11    1    3    3    0    0  0.12686245991E+02 -0.15891466213E+01 -0.79094464318E+01  0.15034146715E+02  0.51100000000E-03 0. -1.
        -11    1    3    3    0    0  0.15093565141E+02  0.93493419745E+01 -0.13560415802E+02  0.22340787386E+02  0.51100000000E-03 0.  1.
        -12    1    3    3    0    0  0.88715999504E+01  0.50427620373E+01  0.20693044252E+01  0.10412336695E+02  0.00000000000E+00 0.  1.
</event>
<event>
 7    1  0.4875579E-009  0.4778725E+02  0.7816164E-02  0.1312668E+00
        -11   -1    0    0    0    0  0.00000000000E+00  0.00000000000E+00  0.45593999997E+02  0.45594000000E+02  0.51100000000E-03 0. -1.
         11   -1    0    0    0    0 -0.00000000000E+00 -0.00000000000E+00 -0.45593999997E+02  0.45594000000E+02  0.51100000000E-03 0.  1.
    9900012    2    1    2    0    0 -0.36836922659E+01  0.42635961904E+02  0.72270784647E+01  0.47787245406E+02  0.19999883103E+02 0.  0.
         12    1    1    2    0    0  0.36836922659E+01 -0.42635961904E+02 -0.72270784647E+01  0.43400754594E+02  0.00000000000E+00 0. -1.
         11    1    3    3    0    0  0.34229025930E+00  0.94525184521E+01 -0.39619372622E+01  0.10254960499E+02  0.51100000000E-03 0. -1.
        -11    1    3    3    0    0 -0.60741254263E+01  0.16359619391E+02  0.42712817933E+00  0.17456075878E+02  0.51100000000E-03 0.  1.
         12    1    3    3    0    0  0.20481429011E+01  0.16823824061E+02  0.10761887548E+02  0.20076209028E+02  0.00000000000E+00 0. -1.
</event>
<event>
 7    1  0.4875579E-009  0.4778728E+02  0.7816164E-02  0.1312668E+00
        -11   -1    0    0    0    0  0.00000000000E+00  0.00000000000E+00  0.45593999997E+02  0.45594000000E+02  0.51100000000E-03 0.  1.
         11   -1    0    0    0    0 -0.00000000000E+00 -0.00000000000E+00 -0.45593999997E+02  0.45594000000E+02  0.51100000000E-03 0. -1.
    9900012    2    1    2    0    0 -0.27029473731E+02 -0.33751561561E+02  0.37232153988E+01  0.47787277760E+02  0.20000030621E+02 0.  0.
         12    1    1    2    0    0  0.27029473731E+02  0.33751561561E+02 -0.37232153988E+01  0.43400722240E+02  0.00000000000E+00 0. -1.
         11    1    3    3    0    0 -0.27589189076E+01 -0.90662444549E+01  0.54267988446E+01  0.10920557129E+02  0.51100000000E-03 0.  1.
        -11    1    3    3    0    0 -0.15100603228E+02 -0.22120267483E+02  0.14872592240E+01  0.26824361905E+02  0.51100000000E-03 0. -1.
         12    1    3    3    0    0 -0.91699515958E+01 -0.25650496239E+01 -0.31908426698E+01  0.10042358726E+02  0.00000000000E+00 0. -1.
</event>
<event>
 7    1  0.4875579E-009  0.4778727E+02  0.7816164E-02  0.1312668E+00
        -11   -1    0    0    0    0  0.00000000000E+00  0.00000000000E+00  0.45593999997E+02  0.45594000000E+02  0.51100000000E-03 0. -1.
         11   -1    0    0    0    0 -0.00000000000E+00 -0.00000000000E+00 -0.45593999997E+02  0.45594000000E+02  0.51100000000E-03 0.  1.
    9900012    2    1    2    0    0 -0.18862038418E+02  0.20895550069E+02 -0.33033664255E+02  0.47787268669E+02  0.19999989168E+02 0.  0.
         12    1    1    2    0    0  0.18862038418E+02 -0.20895550069E+02  0.33033664255E+02  0.43400731331E+02  0.00000000000E+00 0. -1.
         11    1    3    3    0    0 -0.30987641214E+01  0.23256281372E+01  0.13865307404E+01  0.41150155611E+01  0.51100000000E-03 0. -1.
        -11    1    3    3    0    0  0.15198993111E+01  0.39841301035E+01 -0.54126459669E+01  0.68905822121E+01  0.51100000000E-03 0.  1.
         12    1    3    3    0    0 -0.17283173608E+02  0.14585791828E+02 -0.29007549029E+02  0.36781670896E+02  0.00000000000E+00 0. -1.
</event>
<event>
 7    1  0.4875579E-009  0.4778727E+02  0.7816164E-02  0.1312668E+00
        -11   -1    0    0    0    0  0.00000000000E+00  0.00000000000E+00  0.45593999997E+02  0.45594000000E+02  0.51100000000E-03 0.  1.
         11   -1    0    0    0    0 -0.00000000000E+00 -0.00000000000E+00 -0.45593999997E+02  0.45594000000E+02  0.51100000000E-03 0. -1.
    9900012    2    1    2    0    0 -0.36916908534E+02 -0.11091327906E+02  0.19943608388E+02  0.47787271827E+02  0.20000003569E+02 0.  0.
         12    1    1    2    0    0  0.36916908534E+02  0.11091327906E+02 -0.19943608388E+02  0.43400728173E+02  0.00000000000E+00 0. -1.
         11    1    3    3    0    0 -0.10908457111E+02 -0.56331616088E+01  0.10123731373E+02  0.15912789932E+02  0.51100000000E-03 0. -1.
        -11    1    3    3    0    0 -0.27447873030E+02 -0.68618585571E+01  0.94581894699E+01  0.29831664134E+02  0.51100000000E-03 0.  1.
         12    1    3    3    0    0  0.14394216069E+01  0.14036922604E+01  0.36168754553E+00  0.20428177610E+01  0.00000000000E+00 0. -1.
</event>
<event>
 7    1  0.4875579E-009  0.4778727E+02  0.7816164E-02  0.1312668E+00
        -11   -1    0    0    0    0  0.00000000000E+00  0.00000000000E+00  0.45593999997E+02  0.45594000000E+02  0.51100000000E-03 0.  1.
         11   -1    0    0    0    0 -0.00000000000E+00 -0.00000000000E+00 -0.45593999997E+02  0.45594000000E+02  0.51100000000E-03 0. -1.
    9900012    2    1    2    0    0 -0.28933211877E+02 -0.27081406204E+02  0.17694359698E+02  0.47787266405E+02  0.19999978845E+02 0.  0.
         12    1    1    2    0    0  0.28933211877E+02  0.27081406204E+02 -0.17694359698E+02  0.43400733595E+02  0.00000000000E+00 0. -1.
         11    1    3    3    0    0 -0.13028028398E+02 -0.99324472185E+01  0.13036717520E+02  0.20936547845E+02  0.51100000000E-03 0. -1.
        -11    1    3    3    0    0 -0.17086280585E+01 -0.12540578204E+01  0.51122001340E+01  0.55341360058E+01  0.51100000000E-03 0.  1.
         12    1    3    3    0    0 -0.14196555420E+02 -0.15894901165E+02 -0.45455795659E+00  0.21316582554E+02  0.00000000000E+00 0. -1.
</event>
<event>
 7    1  0.4875579E-009  0.4778727E+02  0.7816164E-02  0.1312668E+00
        -11   -1    0    0    0    0  0.00000000000E+00  0.00000000000E+00  0.45593999997E+02  0.45594000000E+02  0.51100000000E-03 0. -1.
         11   -1    0    0    0    0 -0.00000000000E+00 -0.00000000000E+00 -0.45593999997E+02  0.45594000000E+02  0.51100000000E-03 0.  1.
    9900012    2    1    2    0    0 -0.63005586920E+01  0.95320037786E+01 -0.41869646915E+02  0.47787268801E+02  0.19999989770E+02 0.  0.
         12    1    1    2    0    0  0.63005586920E+01 -0.95320037786E+01  0.41869646915E+02  0.43400731199E+02  0.00000000000E+00 0. -1.
         11    1    3    3    0    0  0.31846804228E+01  0.42646035101E+01 -0.90152061183E+01  0.10469143905E+02  0.51100000000E-03 0. -1.
        -11    1    3    3    0    0 -0.67630919732E+01  0.96287073114E+01 -0.17188525020E+02  0.20830189873E+02  0.51100000000E-03 0.  1.
         12    1    3    3    0    0 -0.27221471416E+01 -0.43613070429E+01 -0.15665915777E+02  0.16487935022E+02  0.00000000000E+00 0. -1.
</event>
<event>
 7    1  0.4875579E-009  0.4778728E+02  0.7816164E-02  0.1312668E+00
        -11   -1    0    0    0    0  0.00000000000E+00  0.00000000000E+00  0.45593999997E+02  0.45594000000E+02  0.51100000000E-03 0.  1.
         11   -1    0    0    0    0 -0.00000000000E+00 -0.00000000000E+00 -0.45593999997E+02  0.45594000000E+02  0.51100000000E-03 0. -1.
    9900012    2    1    2    0    0  0.31264847617E+02  0.28832943908E+02  0.86483017149E+01  0.47787280266E+02  0.20000042045E+02 0.  0.
         12    1    1    2    0    0 -0.31264847617E+02 -0.28832943908E+02 -0.86483017149E+01  0.43400719734E+02  0.00000000000E+00 0. -1.
         11    1    3    3    0    0  0.10626115037E+02  0.49816357810E+01 -0.19747406731E+01  0.11900866222E+02  0.51100000000E-03 0. -1.
        -11    1    3    3    0    0  0.10574591734E+02  0.31272915097E+01  0.15945739146E+01  0.11142019958E+02  0.51100000000E-03 0.  1.
        -12    1    3    3    0    0  0.10064140846E+02  0.20724016617E+02  0.90284684734E+01  0.24744394086E+02  0.00000000000E+00 0.  1.
</event>
<event>
 7    1  0.4875579E-009  0.4778727E+02  0.7816164E-02  0.1312668E+00
        -11   -1    0    0    0    0  0.00000000000E+00  0.00000000000E+00  0.45593999997E+02  0.45594000000E+02  0.51100000000E-03 0.  1.
         11   -1    0    0    0    0 -0.00000000000E+00 -0.00000000000E+00 -0.45593999997E+02  0.45594000000E+02  0.51100000000E-03 0. -1.
    9900012    2    1    2    0    0 -0.44494046811E+01  0.28472105840E+02  0.32452508462E+02  0.47787270531E+02  0.19999997660E+02 0.  0.
         12    1    1    2    0    0  0.44494046811E+01 -0.28472105840E+02 -0.32452508462E+02  0.43400729469E+02  0.00000000000E+00 0. -1.
         11    1    3    3    0    0  0.30570600739E+01  0.15036926331E+01  0.26821535848E+01  0.43359723182E+01  0.51100000000E-03 0. -1.
        -11    1    3    3    0    0 -0.78291284109E+00  0.55246701352E+01  0.16350185007E+02  0.17276095700E+02  0.51100000000E-03 0.  1.
        -12    1    3    3    0    0 -0.67235519139E+01  0.21443743072E+02  0.13420169870E+02  0.26175202513E+02  0.00000000000E+00 0.  1.
</event>
<event>
 7    1  0.4875579E-009  0.4778727E+02  0.7816164E-02  0.1312668E+00
        -11   -1    0    0    0    0  0.00000000000E+00  0.00000000000E+00  0.45593999997E+02  0.45594000000E+02  0.51100000000E-03 0.  1.
         11   -1    0    0    0    0 -0.00000000000E+00 -0.00000000000E+00 -0.45593999997E+02  0.45594000000E+02  0.51100000000E-03 0. -1.
    9900012    2    1    2    0    0 -0.24405698553E+02 -0.95969419249E+01  0.34581555389E+02  0.47787269715E+02  0.19999993938E+02 0.  0.
         12    1    1    2    0    0  0.24405698553E+02  0.95969419249E+01 -0.34581555389E+02  0.43400730285E+02  0.00000000000E+00 0. -1.
         11    1    3    3    0    0 -0.53032411773E+01 -0.32774190262E+01  0.21244511510E+01  0.65862838849E+01  0.51100000000E-03 0. -1.
        -11    1    3    3    0    0  0.24629912885E+01 -0.12913381146E+01  0.15618099827E+01  0.31895345894E+01  0.51100000000E-03 0.  1.
        -12    1    3    3    0    0 -0.21565448665E+02 -0.50281847841E+01  0.30895294255E+02  0.38011451241E+02  0.00000000000E+00 0.  1.
</event>
<event>
 7    1  0.4875579E-009  0.4778727E+02  0.7816164E-02  0.1312668E+00
        -11   -1    0    0    0    0  0.00000000000E+00  0.00000000000E+00  0.45593999997E+02  0.45594000000E+02  0.51100000000E-03 0. -1.
         11   -1    0    0    0    0 -0.00000000000E+00 -0.00000000000E+00 -0.45593999997E+02  0.45594000000E+02  0.51100000000E-03 0.  1.
    9900012    2    1    2    0    0 -0.34925207991E+02  0.13839763925E+01 -0.25728147409E+02  0.47787272898E+02  0.20000008451E+02 0.  0.
         12    1    1    2    0    0  0.34925207991E+02 -0.13839763925E+01  0.25728147409E+02  0.43400727102E+02  0.00000000000E+00 0. -1.
         11    1    3    3    0    0 -0.88209405892E+01  0.48596962069E+01 -0.91903241791E+01  0.13634063917E+02  0.51100000000E-03 0. -1.
        -11    1    3    3    0    0 -0.16136175480E+02  0.16729573724E+01 -0.16203802154E+02  0.22928980570E+02  0.51100000000E-03 0.  1.
         12    1    3    3    0    0 -0.99680919224E+01 -0.51486771868E+01 -0.33402107575E+00  0.11224228411E+02  0.00000000000E+00 0. -1.
</event>
<event>
 7    1  0.4875579E-009  0.4778727E+02  0.7816164E-02  0.1312668E+00
        -11   -1    0    0    0    0  0.00000000000E+00  0.00000000000E+00  0.45593999997E+02  0.45594000000E+02  0.51100000000E-03 0.  1.
         11   -1    0    0    0    0 -0.00000000000E+00 -0.00000000000E+00 -0.45593999997E+02  0.45594000000E+02  0.51100000000E-03 0. -1.
    9900012    2    1    2    0    0 -0.22799036781E+01 -0.33244680624E+02  0.27806771250E+02  0.47787270998E+02  0.19999999787E+02 0.  0.
         12    1    1    2    0    0  0.22799036781E+01  0.33244680624E+02 -0.27806771250E+02  0.43400729002E+02  0.00000000000E+00 0. -1.
         11    1    3    3    0    0  0.12925399749E+00 -0.11251754661E+02  0.22855573709E+01  0.11482267298E+02  0.51100000000E-03 0. -1.
        -11    1    3    3    0    0  0.19120105029E+01 -0.21272600754E+02  0.20036538671E+02  0.29285529007E+02  0.51100000000E-03 0.  1.
        -12    1    3    3    0    0 -0.43211681785E+01 -0.72032520905E+00  0.54846752080E+01  0.70194746933E+01  0.00000000000E+00 0.  1.
</event>
<event>
 7    1  0.4875579E-009  0.4778727E+02  0.7816164E-02  0.1312668E+00
        -11   -1    0    0    0    0  0.00000000000E+00  0.00000000000E+00  0.45593999997E+02  0.45594000000E+02  0.51100000000E-03 0.  1.
         11   -1    0    0    0    0 -0.00000000000E+00 -0.00000000000E+00 -0.45593999997E+02  0.45594000000E+02  0.51100000000E-03 0. -1.
    9900012    2    1    2    0    0 -0.17356165203E+02 -0.50667272450E+01  0.39455232445E+02  0.47787267716E+02  0.19999984823E+02 0.  0.
         12    1    1    2    0    0  0.17356165203E+02  0.50667272450E+01 -0.39455232445E+02  0.43400732284E+02  0.00000000000E+00 0. -1.
         11    1    3    3    0    0 -0.40449568840E+01 -0.26265878755E+01  0.32828171775E+01  0.58341690877E+01  0.51100000000E-03 0. -1.
        -11    1    3    3    0    0 -0.15110551829E+02  0.26016391516E+01  0.22110818396E+02  0.26906980381E+02  0.51100000000E-03 0.  1.
         12    1    3    3    0    0  0.17993435094E+01 -0.50417785211E+01  0.14061596872E+02  0.15046118247E+02  0.00000000000E+00 0. -1.
</event>
<event>
 7    1  0.4875579E-009  0.4778727E+02  0.7816164E-02  0.1312668E+00
        -11   -1    0    0    0    0  0.00000000000E+00  0.00000000000E+00  0.45593999997E+02  0.45594000000E+02  0.51100000000E-03 0.  1.
         11   -1    0    0    0    0 -0.00000000000E+00 -0.00000000000E+00 -0.45593999997E+02  0.45594000000E+02  0.51100000000E-03 0. -1.
    9900012    2    1    2    0    0  0.35671726017E+02  0.45838559284E+01  0.24292793316E+02  0.47787267526E+02  0.19999983957E+02 0.  0.
         12    1    1    2    0    0 -0.35671726017E+02 -0.45838559284E+01 -0.24292793316E+02  0.43400732474E+02  0.00000000000E+00 0. -1.
         11    1    3    3    0    0  0.15371520076E+02 -0.75447994176E+01  0.10899490093E+02  0.20297943547E+02  0.51100000000E-03 0. -1.
        -11    1    3    3    0    0  0.93995367128E+01  0.33162710814E+01  0.49978897766E+01  0.11150239763E+02  0.51100000000E-03 0.  1.
         12    1    3    3    0    0  0.10900669229E+02  0.88123842647E+01  0.83954134464E+01  0.16339084215E+02  0.00000000000E+00 0. -1.
</event>
<event>
 7    1  0.4875579E-009  0.4778727E+02  0.7816164E-02  0.1312668E+00
        -11   -1    0    0    0    0  0.00000000000E+00  0.00000000000E+00  0.45593999997E+02  0.45594000000E+02  0.51100000000E-03 0. -1.
         11   -1    0    0    0    0 -0.00000000000E+00 -0.00000000000E+00 -0.45593999997E+02  0.45594000000E+02  0.51100000000E-03 0.  1.
    9900012    2    1    2    0    0  0.13471458124E+02  0.40521434326E+02 -0.77560563379E+01  0.47787271507E+02  0.20000002109E+02 0.  0.
         12    1    1    2    0    0 -0.13471458124E+02 -0.40521434326E+02  0.77560563379E+01  0.43400728493E+02  0.00000000000E+00 0. -1.
         11    1    3    3    0    0 -0.15369852725E+00  0.17416244891E+01  0.12975955780E+01  0.21772996219E+01  0.51100000000E-03 0. -1.
        -11    1    3    3    0    0 -0.14541970626E+00  0.22521585925E+02 -0.91333464036E+01  0.24303518187E+02  0.51100000000E-03 0.  1.
        -12    1    3    3    0    0  0.13770576358E+02  0.16258223911E+02  0.79694487714E-01  0.21306453698E+02  0.00000000000E+00 0.  1.
</event>
<event>
 7    1  0.4875579E-009  0.4778728E+02  0.7816164E-02  0.1312668E+00
        -11   -1    0    0    0    0  0.00000000000E+00  0.00000000000E+00  0.45593999997E+02  0.45594000000E+02  0.51100000000E-03 0. -1.
         11   -1    0    0    0    0 -0.00000000000E+00 -0.00000000000E+00 -0.45593999997E+02  0.45594000000E+02  0.51100000000E-03 0.  1.
    9900012    2    1    2    0    0 -0.19550836424E+02 -0.31494061386E+02 -0.22572349455E+02  0.47787284944E+02  0.20000063373E+02 0.  0.
         12    1    1    2    0    0  0.19550836424E+02  0.31494061386E+02  0.22572349455E+02  0.43400715056E+02  0.00000000000E+00 0. -1.
         11    1    3    3    0    0 -0.61795944180E+01 -0.26480982286E+01  0.50970275104E+00  0.67423741037E+01  0.51100000000E-03 0. -1.
        -11    1    3    3    0    0 -0.39322868969E+01 -0.33682177841E+01 -0.91446782979E+01  0.10508706520E+02  0.51100000000E-03 0.  1.
         12    1    3    3    0    0 -0.94389551088E+01 -0.25477745373E+02 -0.13937373908E+02  0.30536204321E+02  0.00000000000E+00 0. -1.
</event>
<event>
 7    1  0.4875579E-009  0.4778727E+02  0.7816164E-02  0.1312668E+00
        -11   -1    0    0    0    0  0.00000000000E+00  0.00000000000E+00  0.45593999997E+02  0.45594000000E+02  0.51100000000E-03 0. -1.
         11   -1    0    0    0    0 -0.00000000000E+00 -0.00000000000E+00 -0.45593999997E+02  0.45594000000E+02  0.51100000000E-03 0.  1.
    9900012    2    1    2    0    0 -0.40126584691E+02  0.16068848532E+02  0.39080581649E+01  0.47787267163E+02  0.19999982304E+02 0.  0.
         12    1    1    2    0    0  0.40126584691E+02 -0.16068848532E+02 -0.39080581649E+01  0.43400732837E+02  0.00000000000E+00 0. -1.
         11    1    3    3    0    0 -0.48333630264E+01  0.72427397750E+01  0.46230899720E+01  0.98585819844E+01  0.51100000000E-03 0. -1.
        -11    1    3    3    0    0 -0.23297989857E+02  0.94739018553E+01  0.30617662383E+01  0.25336249929E+02  0.51100000000E-03 0.  1.
         12    1    3    3    0    0 -0.11995231808E+02 -0.64779309792E+00 -0.37767980454E+01  0.12592435249E+02  0.00000000000E+00 0. -1.
</event>
<event>
 7    1  0.4875579E-009  0.4778727E+02  0.7816164E-02  0.1312668E+00
        -11   -1    0    0    0    0  0.00000000000E+00  0.00000000000E+00  0.45593999997E+02  0.45594000000E+02  0.51100000000E-03 0.  1.
         11   -1    0    0    0    0 -0.00000000000E+00 -0.00000000000E+00 -0.45593999997E+02  0.45594000000E+02  0.51100000000E-03 0. -1.
    9900012    2    1    2    0    0 -0.30062886572E+02  0.26087533104E+02 -0.17299911443E+02  0.47787268803E+02  0.19999989779E+02 0.  0.
         12    1    1    2    0    0  0.30062886572E+02 -0.26087533104E+02  0.17299911443E+02  0.43400731197E+02  0.00000000000E+00 0. -1.
         11    1    3    3    0    0 -0.59782422419E+01  0.81539309578E+00 -0.10450396515E+02  0.12067105443E+02  0.51100000000E-03 0. -1.
        -11    1    3    3    0    0 -0.17783992070E+01  0.28119695627E+01 -0.13527782720E+01  0.35916411117E+01  0.51100000000E-03 0.  1.
        -12    1    3    3    0    0 -0.22306245123E+02  0.22460170446E+02 -0.54967366564E+01  0.32128522248E+02  0.00000000000E+00 0.  1.
</event>
<event>
 7    1  0.4875579E-009  0.4778728E+02  0.7816164E-02  0.1312668E+00
        -11   -1    0    0    0    0  0.00000000000E+00  0.00000000000E+00  0.45593999997E+02  0.45594000000E+02  0.51100000000E-03 0.  1.
         11   -1    0    0    0    0 -0.00000000000E+00 -0.00000000000E+00 -0.45593999997E+02  0.45594000000E+02  0.51100000000E-03 0. -1.
    9900012    2    1    2    0    0 -0.36286403156E+02  0.18720505027E+02  0.14712657663E+02  0.47787278140E+02  0.20000032353E+02 0.  0.
         12    1    1    2    0    0  0.36286403156E+02 -0.18720505027E+02 -0.14712657663E+02  0.43400721860E+02  0.00000000000E+00 0. -1.
         11    1    3    3    0    0 -0.12173231949E-01  0.42462974472E+01 -0.10194956269E+01  0.43669854353E+01  0.51100000000E-03 0. -1.
        -11    1    3    3    0    0  0.75697848590E+00  0.24860424184E+00  0.23018628070E+00  0.82934099267E+00  0.51100000000E-03 0.  1.
        -12    1    3    3    0    0 -0.37031208410E+02  0.14225603338E+02  0.15501967009E+02  0.42590951712E+02  0.00000000000E+00 0.  1.
</event>
<event>
 7    1  0.4875579E-009  0.4778726E+02  0.7816164E-02  0.1312668E+00
        -11   -1    0    0    0    0  0.00000000000E+00  0.00000000000E+00  0.45593999997E+02  0.45594000000E+02  0.51100000000E-03 0. -1.
         11   -1    0    0    0    0 -0.00000000000E+00 -0.00000000000E+00 -0.45593999997E+02  0.45594000000E+02  0.51100000000E-03 0.  1.
    9900012    2    1    2    0    0  0.41362771132E+02 -0.53576523033E+01 -0.12001689175E+02  0.47787264788E+02  0.19999971475E+02 0.  0.
         12    1    1    2    0    0 -0.41362771132E+02  0.53576523033E+01  0.12001689175E+02  0.43400735212E+02  0.00000000000E+00 0. -1.
         11    1    3    3    0    0  0.15755602367E+00 -0.16453898628E+01 -0.97427127929E+00  0.19186809240E+01  0.51100000000E-03 0. -1.
        -11    1    3    3    0    0  0.27235951394E+02  0.54984028121E+01 -0.72271756873E+01  0.28709955599E+02  0.51100000000E-03 0.  1.
        -12    1    3    3    0    0  0.13969263714E+02 -0.92106652526E+01 -0.38002422079E+01  0.17158628265E+02  0.00000000000E+00 0.  1.
</event>
<event>
 7    1  0.4875579E-009  0.4778727E+02  0.7816164E-02  0.1312668E+00
        -11   -1    0    0    0    0  0.00000000000E+00  0.00000000000E+00  0.45593999997E+02  0.45594000000E+02  0.51100000000E-03 0. -1.
         11   -1    0    0    0    0 -0.00000000000E+00 -0.00000000000E+00 -0.45593999997E+02  0.45594000000E+02  0.51100000000E-03 0.  1.
    9900012    2    1    2    0    0  0.41949191010E+02 -0.22562198627E+00 -0.11128241575E+02  0.47787270833E+02  0.19999999037E+02 0.  0.
         12    1    1    2    0    0 -0.41949191010E+02  0.22562198627E+00  0.11128241575E+02  0.43400729167E+02  0.00000000000E+00 0. -1.
         11    1    3    3    0    0  0.18734105140E+02 -0.56334860835E+01  0.15615236712E+01  0.19625015090E+02  0.51100000000E-03 0. -1.
        -11    1    3    3    0    0  0.72313962458E+01  0.45616607630E+00 -0.14211840386E+00  0.72471633799E+01  0.51100000000E-03 0.  1.
         12    1    3    3    0    0  0.15983689624E+02  0.49516980209E+01 -0.12547646842E+02  0.20915092363E+02  0.00000000000E+00 0. -1.
</event>
<event>
 7    1  0.4875579E-009  0.4778727E+02  0.7816164E-02  0.1312668E+00
        -11   -1    0    0    0    0  0.00000000000E+00  0.00000000000E+00  0.45593999997E+02  0.45594000000E+02  0.51100000000E-03 0.  1.
         11   -1    0    0    0    0 -0.00000000000E+00 -0.00000000000E+00 -0.45593999997E+02  0.45594000000E+02  0.51100000000E-03 0. -1.
    9900012    2    1    2    0    0 -0.39624741964E+02 -0.11693774274E+02  0.13295058278E+02  0.47787272966E+02  0.20000008761E+02 0.  0.
         12    1    1    2    0    0  0.39624741964E+02  0.11693774274E+02 -0.13295058278E+02  0.43400727034E+02  0.00000000000E+00 0. -1.
         11    1    3    3    0    0 -0.13633924776E+02 -0.31855255619E+01  0.10920779972E+02  0.17756545648E+02  0.51100000000E-03 0.  1.
        -11    1    3    3    0    0 -0.11461824325E+02 -0.82752488041E+01  0.54970848645E+01  0.15168094867E+02  0.51100000000E-03 0. -1.
         12    1    3    3    0    0 -0.14528992863E+02 -0.23299990828E+00 -0.31228065587E+01  0.14862632451E+02  0.00000000000E+00 0. -1.
</event>
<event>
 7    1  0.4875579E-009  0.4778727E+02  0.7816164E-02  0.1312668E+00
        -11   -1    0    0    0    0  0.00000000000E+00  0.00000000000E+00  0.45593999997E+02  0.45594000000E+02  0.51100000000E-03 0.  1.
         11   -1    0    0    0    0 -0.00000000000E+00 -0.00000000000E+00 -0.45593999997E+02  0.45594000000E+02  0.51100000000E-03 0. -1.
    9900012    2    1    2    0    0  0.54917121785E+01 -0.20241312712E+02  0.37996755288E+02  0.47787273562E+02  0.20000011477E+02 0.  0.
         12    1    1    2    0    0 -0.54917121785E+01  0.20241312712E+02 -0.37996755288E+02  0.43400726438E+02  0.00000000000E+00 0. -1.
         11    1    3    3    0    0  0.40286178222E+01 -0.14223855892E+01  0.27820822188E+01  0.50983256129E+01  0.51100000000E-03 0. -1.
        -11    1    3    3    0    0  0.53979045140E+01 -0.18623055623E+02  0.32696064063E+02  0.38013000136E+02  0.51100000000E-03 0.  1.
         12    1    3    3    0    0 -0.39348101576E+01 -0.19587150015E+00  0.25186090056E+01  0.46759478124E+01  0.00000000000E+00 0. -1.
</event>
<event>
 7    1  0.4875579E-009  0.4778727E+02  0.7816164E-02  0.1312668E+00
        -11   -1    0    0    0    0  0.00000000000E+00  0.00000000000E+00  0.45593999997E+02  0.45594000000E+02  0.51100000000E-03 0. -1.
         11   -1    0    0    0    0 -0.00000000000E+00 -0.00000000000E+00 -0.45593999997E+02  0.45594000000E+02  0.51100000000E-03 0.  1.
    9900012    2    1    2    0    0  0.29306526321E+02 -0.98608012335E+01 -0.30455139724E+02  0.47787269343E+02  0.19999992243E+02 0.  0.
         12    1    1    2    0    0 -0.29306526321E+02  0.98608012335E+01  0.30455139724E+02  0.43400730657E+02  0.00000000000E+00 0. -1.
         11    1    3    3    0    0  0.13755904391E+00 -0.22870572504E+01 -0.60385795301E+01  0.64586373454E+01  0.51100000000E-03 0. -1.
        -11    1    3    3    0    0  0.29958742311E+01  0.33976046372E+01 -0.59171338050E+01  0.74519428612E+01  0.51100000000E-03 0.  1.
        -12    1    3    3    0    0  0.26173093046E+02 -0.10971348620E+02 -0.18499426389E+02  0.33876689136E+02  0.00000000000E+00 0.  1.
</event>
<event>
 7    1  0.4875579E-009  0.4778727E+02  0.7816164E-02  0.1312668E+00
        -11   -1    0    0    0    0  0.00000000000E+00  0.00000000000E+00  0.45593999997E+02  0.45594000000E+02  0.51100000000E-03 0.  1.
         11   -1    0    0    0    0 -0.00000000000E+00 -0.00000000000E+00 -0.45593999997E+02  0.45594000000E+02  0.51100000000E-03 0. -1.
    9900012    2    1    2    0    0 -0.21009339401E+02 -0.29231570961E+01  0.37864047474E+02  0.47787270967E+02  0.19999999648E+02 0.  0.
         12    1    1    2    0    0  0.21009339401E+02  0.29231570961E+01 -0.37864047474E+02  0.43400729033E+02  0.00000000000E+00 0. -1.
         11    1    3    3    0    0 -0.79940282293E+01 -0.37864487733E+01  0.77148787868E+01  0.11737164760E+02  0.51100000000E-03 0. -1.
        -11    1    3    3    0    0 -0.15073609356E+02 -0.29957614334E+01  0.24165074748E+02  0.28638071224E+02  0.51100000000E-03 0.  1.
        -12    1    3    3    0    0  0.20582981845E+01  0.38590531106E+01  0.59840939392E+01  0.74120349837E+01  0.00000000000E+00 0.  1.
</event>
<event>
 7    1  0.4875579E-009  0.4778727E+02  0.7816164E-02  0.1312668E+00
        -11   -1    0    0    0    0  0.00000000000E+00  0.00000000000E+00  0.45593999997E+02  0.45594000000E+02  0.51100000000E-03 0. -1.
         11   -1    0    0    0    0 -0.00000000000E+00 -0.00000000000E+00 -0.45593999997E+02  0.45594000000E+02  0.51100000000E-03 0.  1.
    9900012    2    1    2    0    0  0.25680899646E+02  0.86630686321E+00 -0.34976622032E+02  0.47787272091E+02  0.20000004773E+02 0.  0.
         12    1    1    2    0    0 -0.25680899646E+02 -0.86630686321E+00  0.34976622032E+02  0.43400727909E+02  0.00000000000E+00 0. -1.
         11    1    3    3    0    0  0.28469250129E+01 -0.79197658453E+00 -0.79408923008E+01  0.84728967734E+01  0.51100000000E-03 0. -1.
        -11    1    3    3    0    0  0.96891076748E+01  0.37106831199E+01 -0.23284536110E+02  0.25491520137E+02  0.51100000000E-03 0.  1.
         12    1    3    3    0    0  0.13144866958E+02 -0.20523996721E+01 -0.37511936212E+01  0.13822855181E+02  0.00000000000E+00 0. -1.
</event>
<event>
 7    1  0.4875579E-009  0.4778727E+02  0.7816164E-02  0.1312668E+00
        -11   -1    0    0    0    0  0.00000000000E+00  0.00000000000E+00  0.45593999997E+02  0.45594000000E+02  0.51100000000E-03 0.  1.
         11   -1    0    0    0    0 -0.00000000000E+00 -0.00000000000E+00 -0.45593999997E+02  0.45594000000E+02  0.51100000000E-03 0. -1.
    9900012    2    1    2    0    0 -0.29388364730E+02  0.16328323466E+02  0.27446912707E+02  0.47787272519E+02  0.20000006725E+02 0.  0.
         12    1    1    2    0    0  0.29388364730E+02 -0.16328323466E+02 -0.27446912707E+02  0.43400727481E+02  0.00000000000E+00 0. -1.
         11    1    3    3    0    0 -0.99826332900E+01  0.65173309752E+01  0.25001295382E+01  0.12181100870E+02  0.51100000000E-03 0. -1.
        -11    1    3    3    0    0 -0.14285316450E+01 -0.21555175426E+01 -0.32148882130E-01  0.25861153008E+01  0.51100000000E-03 0.  1.
        -12    1    3    3    0    0 -0.17977199795E+02  0.11966510033E+02  0.24978932051E+02  0.33020056348E+02  0.00000000000E+00 0.  1.
</event>
<event>
 7    1  0.4875579E-009  0.4778727E+02  0.7816164E-02  0.1312668E+00
        -11   -1    0    0    0    0  0.00000000000E+00  0.00000000000E+00  0.45593999997E+02  0.45594000000E+02  0.51100000000E-03 0.  1.
         11   -1    0    0    0    0 -0.00000000000E+00 -0.00000000000E+00 -0.45593999997E+02  0.45594000000E+02  0.51100000000E-03 0. -1.
    9900012    2    1    2    0    0  0.33018554410E+01 -0.20315030800E+02  0.38210216052E+02  0.47787270323E+02  0.19999996710E+02 0.  0.
         12    1    1    2    0    0 -0.33018554410E+01  0.20315030800E+02 -0.38210216052E+02  0.43400729677E+02  0.00000000000E+00 0. -1.
         11    1    3    3    0    0  0.36883485766E+01 -0.82799139165E+01  0.54537163511E+01  0.10578464538E+02  0.51100000000E-03 0. -1.
        -11    1    3    3    0    0  0.41977270696E+01 -0.11248522584E+02  0.17229645921E+02  0.21000258848E+02  0.51100000000E-03 0.  1.
         12    1    3    3    0    0 -0.45842202052E+01 -0.78659429971E+00  0.15526853780E+02  0.16208546937E+02  0.00000000000E+00 0. -1.
</event>
<event>
 7    1  0.4875579E-009  0.4778727E+02  0.7816164E-02  0.1312668E+00
        -11   -1    0    0    0    0  0.00000000000E+00  0.00000000000E+00  0.45593999997E+02  0.45594000000E+02  0.51100000000E-03 0. -1.
         11   -1    0    0    0    0 -0.00000000000E+00 -0.00000000000E+00 -0.45593999997E+02  0.45594000000E+02  0.51100000000E-03 0.  1.
    9900012    2    1    2    0    0  0.89700914766E+01  0.33425293004E+02 -0.26189891964E+02  0.47787271958E+02  0.20000004167E+02 0.  0.
         12    1    1    2    0    0 -0.89700914766E+01 -0.33425293004E+02  0.26189891964E+02  0.43400728042E+02  0.00000000000E+00 0. -1.
         11    1    3    3    0    0 -0.84723313871E+00  0.61788019552E+00  0.18959703528E+01  0.21666295870E+01  0.51100000000E-03 0. -1.
        -11    1    3    3    0    0  0.75804018870E+01  0.81614046585E+01 -0.74743207248E+01  0.13414040753E+02  0.51100000000E-03 0.  1.
        -12    1    3    3    0    0  0.22369227283E+01  0.24646008150E+02 -0.20611541592E+02  0.32206601618E+02  0.00000000000E+00 0.  1.
</event>
<event>
 7    1  0.4875579E-009  0.4778727E+02  0.7816164E-02  0.1312668E+00
        -11   -1    0    0    0    0  0.00000000000E+00  0.00000000000E+00  0.45593999997E+02  0.45594000000E+02  0.51100000000E-03 0. -1.
         11   -1    0    0    0    0 -0.00000000000E+00 -0.00000000000E+00 -0.45593999997E+02  0.45594000000E+02  0.51100000000E-03 0.  1.
    9900012    2    1    2    0    0 -0.54260923715E+01  0.38285975849E+02 -0.19706969088E+02  0.47787273557E+02  0.20000011455E+02 0.  0.
         12    1    1    2    0    0  0.54260923715E+01 -0.38285975849E+02  0.19706969088E+02  0.43400726443E+02  0.00000000000E+00 0. -1.
         11    1    3    3    0    0  0.48434591707E+01  0.99118460962E+01 -0.85790405696E+01  0.13975110988E+02  0.51100000000E-03 0. -1.
        -11    1    3    3    0    0  0.55536654607E+00  0.13261098378E+02 -0.35682946409E+01  0.13744012845E+02  0.51100000000E-03 0.  1.
         12    1    3    3    0    0 -0.10824918088E+02  0.15113031375E+02 -0.75596338771E+01  0.20068149724E+02  0.00000000000E+00 0. -1.
</event>
<event>
 7    1  0.4875579E-009  0.4778727E+02  0.7816164E-02  0.1312668E+00
        -11   -1    0    0    0    0  0.00000000000E+00  0.00000000000E+00  0.45593999997E+02  0.45594000000E+02  0.51100000000E-03 0.  1.
         11   -1    0    0    0    0 -0.00000000000E+00 -0.00000000000E+00 -0.45593999997E+02  0.45594000000E+02  0.51100000000E-03 0. -1.
    9900012    2    1    2    0    0  0.41221853172E+02 -0.11910566420E+02  0.65207840841E+01  0.47787269632E+02  0.19999993560E+02 0.  0.
         12    1    1    2    0    0 -0.41221853172E+02  0.11910566420E+02 -0.65207840841E+01  0.43400730368E+02  0.00000000000E+00 0. -1.
         11    1    3    3    0    0  0.27649729457E+01  0.27526486378E+01  0.28362496990E+01  0.48235321633E+01  0.51100000000E-03 0. -1.
        -11    1    3    3    0    0  0.24517639869E+02 -0.46295029812E+01  0.59210132897E+01  0.25643817213E+02  0.51100000000E-03 0.  1.
        -12    1    3    3    0    0  0.13939240358E+02 -0.10033712077E+02 -0.22364789046E+01  0.17319920256E+02  0.00000000000E+00 0.  1.
</event>
<event>
 7    1  0.4875579E-009  0.4778727E+02  0.7816164E-02  0.1312668E+00
        -11   -1    0    0    0    0  0.00000000000E+00  0.00000000000E+00  0.45593999997E+02  0.45594000000E+02  0.51100000000E-03 0.  1.
         11   -1    0    0    0    0 -0.00000000000E+00 -0.00000000000E+00 -0.45593999997E+02  0.45594000000E+02  0.51100000000E-03 0. -1.
    9900012    2    1    2    0    0  0.20826219334E+02  0.50536253378E+01  0.37740595916E+02  0.47787272807E+02  0.20000008036E+02 0.  0.
         12    1    1    2    0    0 -0.20826219334E+02 -0.50536253378E+01 -0.37740595916E+02  0.43400727193E+02  0.00000000000E+00 0. -1.
         11    1    3    3    0    0 -0.92314287877E+00  0.25391938806E+01  0.13364934169E+00  0.27050990269E+01  0.51100000000E-03 0. -1.
        -11    1    3    3    0    0  0.40815593692E+01 -0.29024930174E+01  0.15389306193E+02  0.16183767731E+02  0.51100000000E-03 0.  1.
        -12    1    3    3    0    0  0.17667802844E+02  0.54169244746E+01  0.22217640381E+02  0.28898406049E+02  0.00000000000E+00 0.  1.
</event>
<event>
 7    1  0.4875579E-009  0.4778727E+02  0.7816164E-02  0.1312668E+00
        -11   -1    0    0    0    0  0.00000000000E+00  0.00000000000E+00  0.45593999997E+02  0.45594000000E+02  0.51100000000E-03 0.  1.
         11   -1    0    0    0    0 -0.00000000000E+00 -0.00000000000E+00 -0.45593999997E+02  0.45594000000E+02  0.51100000000E-03 0. -1.
    9900012    2    1    2    0    0 -0.18578692724E+01  0.40742485058E+02  0.14839869658E+02  0.47787268458E+02  0.19999988205E+02 0.  0.
         12    1    1    2    0    0  0.18578692724E+01 -0.40742485058E+02 -0.14839869658E+02  0.43400731542E+02  0.00000000000E+00 0. -1.
         11    1    3    3    0    0 -0.13278232152E+01  0.91700254025E+01 -0.41799702397E+01  0.10164872446E+02  0.51100000000E-03 0. -1.
        -11    1    3    3    0    0 -0.14879453783E+00  0.11818954024E+02  0.30211645451E+01  0.12199887275E+02  0.51100000000E-03 0.  1.
        -12    1    3    3    0    0 -0.38125151932E+00  0.19753505631E+02  0.15998675353E+02  0.25422508737E+02  0.00000000000E+00 0.  1.
</event>
<event>
 7    1  0.4875579E-009  0.4778727E+02  0.7816164E-02  0.1312668E+00
        -11   -1    0    0    0    0  0.00000000000E+00  0.00000000000E+00  0.45593999997E+02  0.45594000000E+02  0.51100000000E-03 0.  1.
         11   -1    0    0    0    0 -0.00000000000E+00 -0.00000000000E+00 -0.45593999997E+02  0.45594000000E+02  0.51100000000E-03 0. -1.
    9900012    2    1    2    0    0 -0.38665411427E+02 -0.19291653821E+02  0.40547939852E+01  0.47787270718E+02  0.19999998510E+02 0.  0.
         12    1    1    2    0    0  0.38665411427E+02  0.19291653821E+02 -0.40547939852E+01  0.43400729282E+02  0.00000000000E+00 0. -1.
         11    1    3    3    0    0 -0.24340432298E+02 -0.11049732839E+02 -0.50117519944E+01  0.27196891340E+02  0.51100000000E-03 0. -1.
        -11    1    3    3    0    0 -0.49196595208E+01  0.88133480263E+00  0.70717096418E+00  0.50477610748E+01  0.51100000000E-03 0.  1.
        -12    1    3    3    0    0 -0.94053196079E+01 -0.91232557852E+01  0.83593750154E+01  0.15542618302E+02  0.00000000000E+00 0.  1.
</event>
<event>
 7    1  0.4875579E-009  0.4778725E+02  0.7816164E-02  0.1312668E+00
        -11   -1    0    0    0    0  0.00000000000E+00  0.00000000000E+00  0.45593999997E+02  0.45594000000E+02  0.51100000000E-03 0.  1.
         11   -1    0    0    0    0 -0.00000000000E+00 -0.00000000000E+00 -0.45593999997E+02  0.45594000000E+02  0.51100000000E-03 0. -1.
    9900012    2    1    2    0    0 -0.28803388651E+02 -0.47541229666E+01  0.32115232848E+02  0.47787250423E+02  0.19999905978E+02 0.  0.
         12    1    1    2    0    0  0.28803388651E+02  0.47541229666E+01 -0.32115232848E+02  0.43400749577E+02  0.00000000000E+00 0. -1.
         11    1    3    3    0    0  0.80523127226E+00 -0.44764767202E+01  0.20703013305E+01  0.49973382004E+01  0.51100000000E-03 0. -1.
        -11    1    3    3    0    0 -0.52795850365E+01  0.26938206298E+01  0.66305207180E+01  0.88935084751E+01  0.51100000000E-03 0.  1.
        -12    1    3    3    0    0 -0.24329034887E+02 -0.29714668763E+01  0.23414410799E+02  0.33896403747E+02  0.00000000000E+00 0.  1.
</event>
<event>
 7    1  0.4875579E-009  0.4778727E+02  0.7816164E-02  0.1312668E+00
        -11   -1    0    0    0    0  0.00000000000E+00  0.00000000000E+00  0.45593999997E+02  0.45594000000E+02  0.51100000000E-03 0. -1.
         11   -1    0    0    0    0 -0.00000000000E+00 -0.00000000000E+00 -0.45593999997E+02  0.45594000000E+02  0.51100000000E-03 0.  1.
    9900012    2    1    2    0    0  0.35340758545E+02  0.60604819012E+01 -0.24452497649E+02  0.47787270781E+02  0.19999998801E+02 0.  0.
         12    1    1    2    0    0 -0.35340758545E+02 -0.60604819012E+01  0.24452497649E+02  0.43400729219E+02  0.00000000000E+00 0. -1.
         11    1    3    3    0    0  0.44193628262E+01 -0.22279558385E+01  0.15109830681E+00  0.49515034047E+01  0.51100000000E-03 0. -1.
        -11    1    3    3    0    0  0.11906483071E+02 -0.38393012287E+01 -0.85740253190E+01  0.15166360258E+02  0.51100000000E-03 0.  1.
         12    1    3    3    0    0  0.19014912648E+02  0.12127738968E+02 -0.16029570637E+02  0.27669407119E+02  0.00000000000E+00 0. -1.
</event>
<event>
 7    1  0.4875579E-009  0.4778728E+02  0.7816164E-02  0.1312668E+00
        -11   -1    0    0    0    0  0.00000000000E+00  0.00000000000E+00  0.45593999997E+02  0.45594000000E+02  0.51100000000E-03 0.  1.
         11   -1    0    0    0    0 -0.00000000000E+00 -0.00000000000E+00 -0.45593999997E+02  0.45594000000E+02  0.51100000000E-03 0. -1.
    9900012    2    1    2    0    0  0.41434419392E+02  0.11873612889E+02  0.50822226991E+01  0.47787276723E+02  0.20000025892E+02 0.  0.
         12    1    1    2    0    0 -0.41434419392E+02 -0.11873612889E+02 -0.50822226991E+01  0.43400723277E+02  0.00000000000E+00 0. -1.
         11    1    3    3    0    0  0.34802087339E+02  0.11023286128E+02 -0.14046876533E+01  0.36533152997E+02  0.51100000000E-03 0.  1.
        -11    1    3    3    0    0  0.21690385627E+01 -0.14464947764E+01 -0.49639205139E+00  0.26539556806E+01  0.51100000000E-03 0. -1.
        -12    1    3    3    0    0  0.44632934898E+01  0.22968215368E+01  0.69833024038E+01  0.86001680455E+01  0.00000000000E+00 0.  1.
</event>
<event>
 7    1  0.4875579E-009  0.4778727E+02  0.7816164E-02  0.1312668E+00
        -11   -1    0    0    0    0  0.00000000000E+00  0.00000000000E+00  0.45593999997E+02  0.45594000000E+02  0.51100000000E-03 0. -1.
         11   -1    0    0    0    0 -0.00000000000E+00 -0.00000000000E+00 -0.45593999997E+02  0.45594000000E+02  0.51100000000E-03 0.  1.
    9900012    2    1    2    0    0  0.22921609156E+02 -0.12868982154E+02 -0.34534221780E+02  0.47787270261E+02  0.19999996427E+02 0.  0.
         12    1    1    2    0    0 -0.22921609156E+02  0.12868982154E+02  0.34534221780E+02  0.43400729739E+02  0.00000000000E+00 0. -1.
         11    1    3    3    0    0  0.41568817889E+01 -0.76102194955E+01 -0.18674283989E+02  0.20589414507E+02  0.51100000000E-03 0. -1.
        -11    1    3    3    0    0 -0.10236449630E+01  0.87130826270E+00 -0.62257318115E+00  0.14814265848E+01  0.51100000000E-03 0.  1.
        -12    1    3    3    0    0  0.19788372330E+02 -0.61300709210E+01 -0.15237364609E+02  0.25716429169E+02  0.00000000000E+00 0.  1.
</event>
<event>
 7    1  0.4875579E-009  0.4778727E+02  0.7816164E-02  0.1312668E+00
        -11   -1    0    0    0    0  0.00000000000E+00  0.00000000000E+00  0.45593999997E+02  0.45594000000E+02  0.51100000000E-03 0.  1.
         11   -1    0    0    0    0 -0.00000000000E+00 -0.00000000000E+00 -0.45593999997E+02  0.45594000000E+02  0.51100000000E-03 0. -1.
    9900012    2    1    2    0    0 -0.23707127051E+02 -0.33560807787E+00  0.36352202727E+02  0.47787272484E+02  0.20000006564E+02 0.  0.
         12    1    1    2    0    0  0.23707127051E+02  0.33560807787E+00 -0.36352202727E+02  0.43400727516E+02  0.00000000000E+00 0. -1.
         11    1    3    3    0    0 -0.34863001431E+00  0.27838567479E+01  0.24766975289E+01  0.37423832234E+01  0.51100000000E-03 0. -1.
        -11    1    3    3    0    0 -0.15677083998E+02  0.54875748996E+01  0.20337319955E+02  0.26258161096E+02  0.51100000000E-03 0.  1.
         12    1    3    3    0    0 -0.76814130384E+01 -0.86070397254E+01  0.13538185244E+02  0.17786728164E+02  0.00000000000E+00 0. -1.
</event>
<event>
 7    1  0.4875579E-009  0.4778727E+02  0.7816164E-02  0.1312668E+00
        -11   -1    0    0    0    0  0.00000000000E+00  0.00000000000E+00  0.45593999997E+02  0.45594000000E+02  0.51100000000E-03 0. -1.
         11   -1    0    0    0    0 -0.00000000000E+00 -0.00000000000E+00 -0.45593999997E+02  0.45594000000E+02  0.51100000000E-03 0.  1.
    9900012    2    1    2    0    0 -0.23247713529E+02 -0.24291562913E+02 -0.27442431324E+02  0.47787271319E+02  0.20000001252E+02 0.  0.
         12    1    1    2    0    0  0.23247713529E+02  0.24291562913E+02  0.27442431324E+02  0.43400728681E+02  0.00000000000E+00 0. -1.
         11    1    3    3    0    0 -0.49874467392E+01 -0.12989109424E+02 -0.13713136150E+02  0.19535651818E+02  0.51100000000E-03 0. -1.
        -11    1    3    3    0    0 -0.96998061904E+00 -0.45701789479E+01 -0.71973169304E+01  0.85807207899E+01  0.51100000000E-03 0.  1.
        -12    1    3    3    0    0 -0.17290286170E+02 -0.67322745412E+01 -0.65319782434E+01  0.19670898712E+02  0.00000000000E+00 0.  1.
</event>
<event>
 7    1  0.4875579E-009  0.4778723E+02  0.7816164E-02  0.1312668E+00
        -11   -1    0    0    0    0  0.00000000000E+00  0.00000000000E+00  0.45593999997E+02  0.45594000000E+02  0.51100000000E-03 0.  1.
         11   -1    0    0    0    0 -0.00000000000E+00 -0.00000000000E+00 -0.45593999997E+02  0.45594000000E+02  0.51100000000E-03 0. -1.
    9900012    2    1    2    0    0 -0.12351303384E+01 -0.43255374336E+02  0.33276962677E+01  0.47787233666E+02  0.19999829578E+02 0.  0.
         12    1    1    2    0    0  0.12351303384E+01  0.43255374336E+02 -0.33276962677E+01  0.43400766334E+02  0.00000000000E+00 0. -1.
         11    1    3    3    0    0  0.37617933916E+01 -0.73120804930E+01 -0.30569112460E+01  0.87728169526E+01  0.51100000000E-03 0. -1.
        -11    1    3    3    0    0  0.33099494306E+01 -0.43788968631E+01  0.28486340687E+01  0.61842719288E+01  0.51100000000E-03 0.  1.
        -12    1    3    3    0    0 -0.83068731605E+01 -0.31564396980E+02  0.35359734449E+01  0.32830144785E+02  0.00000000000E+00 0.  1.
</event>
<event>
 7    1  0.4875579E-009  0.4778727E+02  0.7816164E-02  0.1312668E+00
        -11   -1    0    0    0    0  0.00000000000E+00  0.00000000000E+00  0.45593999997E+02  0.45594000000E+02  0.51100000000E-03 0.  1.
         11   -1    0    0    0    0 -0.00000000000E+00 -0.00000000000E+00 -0.45593999997E+02  0.45594000000E+02  0.51100000000E-03 0. -1.
    9900012    2    1    2    0    0  0.63269745912E+01  0.34423357663E+02  0.25663689640E+02  0.47787272746E+02  0.20000007759E+02 0.  0.
         12    1    1    2    0    0 -0.63269745912E+01 -0.34423357663E+02 -0.25663689640E+02  0.43400727254E+02  0.00000000000E+00 0. -1.
         11    1    3    3    0    0 -0.20558145476E+01  0.82102669008E-01  0.39700262251E+00  0.20954058428E+01  0.51100000000E-03 0. -1.
        -11    1    3    3    0    0  0.72394036298E+01  0.12421706621E+02  0.16933788279E+02  0.22213980868E+02  0.51100000000E-03 0.  1.
         12    1    3    3    0    0  0.11433855091E+01  0.21919548373E+02  0.83328987385E+01  0.23477886035E+02  0.00000000000E+00 0. -1.
</event>
<event>
 7    1  0.4875579E-009  0.4778728E+02  0.7816164E-02  0.1312668E+00
        -11   -1    0    0    0    0  0.00000000000E+00  0.00000000000E+00  0.45593999997E+02  0.45594000000E+02  0.51100000000E-03 0. -1.
         11   -1    0    0    0    0 -0.00000000000E+00 -0.00000000000E+00 -0.45593999997E+02  0.45594000000E+02  0.51100000000E-03 0.  1.
    9900012    2    1    2    0    0  0.54777298519E+01  0.22687724854E+02 -0.36590770494E+02  0.47787275713E+02  0.20000021284E+02 0.  0.
         12    1    1    2    0    0 -0.54777298519E+01 -0.22687724854E+02  0.36590770494E+02  0.43400724287E+02  0.00000000000E+00 0. -1.
         11    1    3    3    0    0  0.37180098325E+01  0.75590888058E+01 -0.48572560447E+01  0.97240093189E+01  0.51100000000E-03 0. -1.
        -11    1    3    3    0    0  0.18857601150E+01  0.17392966218E+02 -0.22206902623E+02  0.28270441975E+02  0.51100000000E-03 0.  1.
        -12    1    3    3    0    0 -0.12604009556E+00 -0.22643301700E+01 -0.95266118255E+01  0.97928244188E+01  0.00000000000E+00 0.  1.
</event>
<event>
 7    1  0.4875579E-009  0.4778727E+02  0.7816164E-02  0.1312668E+00
        -11   -1    0    0    0    0  0.00000000000E+00  0.00000000000E+00  0.45593999997E+02  0.45594000000E+02  0.51100000000E-03 0.  1.
         11   -1    0    0    0    0 -0.00000000000E+00 -0.00000000000E+00 -0.45593999997E+02  0.45594000000E+02  0.51100000000E-03 0. -1.
    9900012    2    1    2    0    0  0.29006739113E+02 -0.22071410208E+02  0.23560242306E+02  0.47787273277E+02  0.20000010179E+02 0.  0.
         12    1    1    2    0    0 -0.29006739113E+02  0.22071410208E+02 -0.23560242306E+02  0.43400726723E+02  0.00000000000E+00 0. -1.
         11    1    3    3    0    0  0.72427747612E-01 -0.25866753411E+01 -0.77554840747E+00  0.27014090198E+01  0.51100000000E-03 0. -1.
        -11    1    3    3    0    0  0.14358358610E+02 -0.99497040490E+00  0.98896098330E+01  0.17463012655E+02  0.51100000000E-03 0.  1.
         12    1    3    3    0    0  0.14575952756E+02 -0.18489764462E+02  0.14446180881E+02  0.27622851602E+02  0.00000000000E+00 0. -1.
</event>
<event>
 7    1  0.4875579E-009  0.4778727E+02  0.7816164E-02  0.1312668E+00
        -11   -1    0    0    0    0  0.00000000000E+00  0.00000000000E+00  0.45593999997E+02  0.45594000000E+02  0.51100000000E-03 0.  1.
         11   -1    0    0    0    0 -0.00000000000E+00 -0.00000000000E+00 -0.45593999997E+02  0.45594000000E+02  0.51100000000E-03 0. -1.
    9900012    2    1    2    0    0 -0.91332119117E+01  0.40599575541E+02  0.12324043280E+02  0.47787272625E+02  0.20000007207E+02 0.  0.
         12    1    1    2    0    0  0.91332119117E+01 -0.40599575541E+02 -0.12324043280E+02  0.43400727375E+02  0.00000000000E+00 0. -1.
         11    1    3    3    0    0 -0.87370363712E+01  0.12608868668E+02  0.57052369266E+01  0.16366707130E+02  0.51100000000E-03 0. -1.
        -11    1    3    3    0    0 -0.55825310898E+00  0.14831445105E+02  0.99208652707E+01  0.17852366185E+02  0.51100000000E-03 0.  1.
         12    1    3    3    0    0  0.16207756847E+00  0.13159261768E+02 -0.33020589175E+01  0.13568199309E+02  0.00000000000E+00 0. -1.
</event>
<event>
 7    1  0.4875579E-009  0.4778727E+02  0.7816164E-02  0.1312668E+00
        -11   -1    0    0    0    0  0.00000000000E+00  0.00000000000E+00  0.45593999997E+02  0.45594000000E+02  0.51100000000E-03 0.  1.
         11   -1    0    0    0    0 -0.00000000000E+00 -0.00000000000E+00 -0.45593999997E+02  0.45594000000E+02  0.51100000000E-03 0. -1.
    9900012    2    1    2    0    0  0.39434958737E+02 -0.17795396325E+02  0.34396658446E+01  0.47787269567E+02  0.19999993266E+02 0.  0.
         12    1    1    2    0    0 -0.39434958737E+02  0.17795396325E+02 -0.34396658446E+01  0.43400730433E+02  0.00000000000E+00 0. -1.
         11    1    3    3    0    0  0.27706633443E+01 -0.33304324777E+01 -0.25241046736E+01  0.50139266568E+01  0.51100000000E-03 0. -1.
        -11    1    3    3    0    0  0.13730590663E+02  0.23296278522E+01  0.22065218249E+01  0.14100532781E+02  0.51100000000E-03 0.  1.
         12    1    3    3    0    0  0.22933704730E+02 -0.16794591699E+02  0.37572486932E+01  0.28672810130E+02  0.00000000000E+00 0. -1.
</event>
<event>
 7    1  0.4875579E-009  0.4778728E+02  0.7816164E-02  0.1312668E+00
        -11   -1    0    0    0    0  0.00000000000E+00  0.00000000000E+00  0.45593999997E+02  0.45594000000E+02  0.51100000000E-03 0. -1.
         11   -1    0    0    0    0 -0.00000000000E+00 -0.00000000000E+00 -0.45593999997E+02  0.45594000000E+02  0.51100000000E-03 0.  1.
    9900012    2    1    2    0    0 -0.21022505953E+02 -0.49471860850E+01 -0.37645749401E+02  0.47787275874E+02  0.20000022019E+02 0.  0.
         12    1    1    2    0    0  0.21022505953E+02  0.49471860850E+01  0.37645749401E+02  0.43400724126E+02  0.00000000000E+00 0. -1.
         11    1    3    3    0    0 -0.11921328964E+02 -0.10849210519E+01 -0.24092713955E+02  0.26902676520E+02  0.51100000000E-03 0. -1.
        -11    1    3    3    0    0 -0.11013149862E+02 -0.16276754460E+00 -0.12354008832E+02  0.16551057297E+02  0.51100000000E-03 0.  1.
         12    1    3    3    0    0  0.19119728738E+01 -0.36994974885E+01 -0.11990266142E+01  0.43335420569E+01  0.00000000000E+00 0. -1.
</event>
<event>
 7    1  0.4875579E-009  0.4778727E+02  0.7816164E-02  0.1312668E+00
        -11   -1    0    0    0    0  0.00000000000E+00  0.00000000000E+00  0.45593999997E+02  0.45594000000E+02  0.51100000000E-03 0. -1.
         11   -1    0    0    0    0 -0.00000000000E+00 -0.00000000000E+00 -0.45593999997E+02  0.45594000000E+02  0.51100000000E-03 0.  1.
    9900012    2    1    2    0    0  0.37195783213E+02  0.21834890661E+02 -0.48306168607E+01  0.47787267308E+02  0.19999982962E+02 0.  0.
         12    1    1    2    0    0 -0.37195783213E+02 -0.21834890661E+02  0.48306168607E+01  0.43400732692E+02  0.00000000000E+00 0. -1.
         11    1    3    3    0    0  0.30786619309E+02  0.15759261760E+02 -0.54660763409E+00  0.34590013586E+02  0.51100000000E-03 0. -1.
        -11    1    3    3    0    0  0.46486018841E+01 -0.13423241617E+01 -0.13004715413E+01  0.50102455152E+01  0.51100000000E-03 0.  1.
        -12    1    3    3    0    0  0.17605620201E+01  0.74179530620E+01 -0.29835376853E+01  0.81870082067E+01  0.00000000000E+00 0.  1.
</event>
<event>
 7    1  0.4875579E-009  0.4778727E+02  0.7816164E-02  0.1312668E+00
        -11   -1    0    0    0    0  0.00000000000E+00  0.00000000000E+00  0.45593999997E+02  0.45594000000E+02  0.51100000000E-03 0.  1.
         11   -1    0    0    0    0 -0.00000000000E+00 -0.00000000000E+00 -0.45593999997E+02  0.45594000000E+02  0.51100000000E-03 0. -1.
    9900012    2    1    2    0    0  0.33693567266E+02 -0.18700078804E+02  0.19966829426E+02  0.47787266139E+02  0.19999977633E+02 0.  0.
         12    1    1    2    0    0 -0.33693567266E+02  0.18700078804E+02 -0.19966829426E+02  0.43400733861E+02  0.00000000000E+00 0. -1.
         11    1    3    3    0    0  0.16301978288E+02 -0.11051497352E+02  0.10228930432E+02  0.22192816583E+02  0.51100000000E-03 0. -1.
        -11    1    3    3    0    0  0.12852760663E+02 -0.10621205043E+02  0.11062387449E+02  0.20009494485E+02  0.51100000000E-03 0.  1.
         12    1    3    3    0    0  0.45388283141E+01  0.29726235908E+01 -0.13244884546E+01  0.55849550709E+01  0.00000000000E+00 0. -1.
</event>
<event>
 7    1  0.4875579E-009  0.4778732E+02  0.7816164E-02  0.1312668E+00
        -11   -1    0    0    0    0  0.00000000000E+00  0.00000000000E+00  0.45593999997E+02  0.45594000000E+02  0.51100000000E-03 0.  1.
         11   -1    0    0    0    0 -0.00000000000E+00 -0.00000000000E+00 -0.45593999997E+02  0.45594000000E+02  0.51100000000E-03 0. -1.
    9900012    2    1    2    0    0 -0.27616966645E+02  0.19473404115E+02  0.27234332769E+02  0.47787318025E+02  0.20000214203E+02 0.  0.
         12    1    1    2    0    0  0.27616966645E+02 -0.19473404115E+02 -0.27234332769E+02  0.43400681975E+02  0.00000000000E+00 0. -1.
         11    1    3    3    0    0 -0.11012862456E+02  0.15742179335E+02  0.83756367380E+01  0.20958307201E+02  0.51100000000E-03 0. -1.
        -11    1    3    3    0    0 -0.10817540158E+02  0.46251526489E+01  0.72284624839E+01  0.13808036872E+02  0.51100000000E-03 0.  1.
         12    1    3    3    0    0 -0.57865640309E+01 -0.89392786911E+00  0.11630233547E+02  0.13020973953E+02  0.00000000000E+00 0. -1.
</event>
<event>
 7    1  0.4875579E-009  0.4778727E+02  0.7816164E-02  0.1312668E+00
        -11   -1    0    0    0    0  0.00000000000E+00  0.00000000000E+00  0.45593999997E+02  0.45594000000E+02  0.51100000000E-03 0.  1.
         11   -1    0    0    0    0 -0.00000000000E+00 -0.00000000000E+00 -0.45593999997E+02  0.45594000000E+02  0.51100000000E-03 0. -1.
    9900012    2    1    2    0    0  0.18184269893E+02 -0.16858416223E+02  0.35619506589E+02  0.47787272832E+02  0.20000008149E+02 0.  0.
         12    1    1    2    0    0 -0.18184269893E+02  0.16858416223E+02 -0.35619506589E+02  0.43400727168E+02  0.00000000000E+00 0. -1.
         11    1    3    3    0    0  0.36978247309E+01 -0.86401109792E+01  0.17453512905E+02  0.19822980060E+02  0.51100000000E-03 0. -1.
        -11    1    3    3    0    0 -0.24051738220E+01 -0.15698076288E+00  0.31634246799E+01  0.39770290470E+01  0.51100000000E-03 0.  1.
         12    1    3    3    0    0  0.16891618984E+02 -0.80613244806E+01  0.15002569004E+02  0.23987263725E+02  0.00000000000E+00 0. -1.
</event>
<event>
 7    1  0.4875579E-009  0.4778727E+02  0.7816164E-02  0.1312668E+00
        -11   -1    0    0    0    0  0.00000000000E+00  0.00000000000E+00  0.45593999997E+02  0.45594000000E+02  0.51100000000E-03 0.  1.
         11   -1    0    0    0    0 -0.00000000000E+00 -0.00000000000E+00 -0.45593999997E+02  0.45594000000E+02  0.51100000000E-03 0. -1.
    9900012    2    1    2    0    0  0.14515262421E+02 -0.35039192190E+02  0.21099423768E+02  0.47787268257E+02  0.19999987290E+02 0.  0.
         12    1    1    2    0    0 -0.14515262421E+02  0.35039192190E+02 -0.21099423768E+02  0.43400731743E+02  0.00000000000E+00 0. -1.
         11    1    3    3    0    0  0.59365872300E+01 -0.78932649848E+01  0.39551058986E+01  0.10639058370E+02  0.51100000000E-03 0.  1.
        -11    1    3    3    0    0  0.96948731899E+01 -0.28128948293E+02  0.12500714490E+02  0.32272219652E+02  0.51100000000E-03 0. -1.
         12    1    3    3    0    0 -0.11161979987E+01  0.98302108761E+00  0.46436033794E+01  0.48759902354E+01  0.00000000000E+00 0. -1.
</event>
<event>
 7    1  0.4875579E-009  0.4778727E+02  0.7816164E-02  0.1312668E+00
        -11   -1    0    0    0    0  0.00000000000E+00  0.00000000000E+00  0.45593999997E+02  0.45594000000E+02  0.51100000000E-03 0. -1.
         11   -1    0    0    0    0 -0.00000000000E+00 -0.00000000000E+00 -0.45593999997E+02  0.45594000000E+02  0.51100000000E-03 0.  1.
    9900012    2    1    2    0    0 -0.27523699889E+02 -0.33545486331E+02 -0.87737740773E+00  0.47787268441E+02  0.19999988130E+02 0.  0.
         12    1    1    2    0    0  0.27523699889E+02  0.33545486331E+02  0.87737740773E+00  0.43400731559E+02  0.00000000000E+00 0. -1.
         11    1    3    3    0    0 -0.19283644399E+02 -0.94643247543E+01  0.28101497122E+01  0.21664009925E+02  0.51100000000E-03 0. -1.
        -11    1    3    3    0    0 -0.21434183583E-01 -0.27921191587E+01 -0.15738553609E+01  0.32052160269E+01  0.51100000000E-03 0.  1.
         12    1    3    3    0    0 -0.82186213066E+01 -0.21289042418E+02 -0.21136717591E+01  0.22918042490E+02  0.00000000000E+00 0. -1.
</event>
<event>
 7    1  0.4875579E-009  0.4778726E+02  0.7816164E-02  0.1312668E+00
        -11   -1    0    0    0    0  0.00000000000E+00  0.00000000000E+00  0.45593999997E+02  0.45594000000E+02  0.51100000000E-03 0.  1.
         11   -1    0    0    0    0 -0.00000000000E+00 -0.00000000000E+00 -0.45593999997E+02  0.45594000000E+02  0.51100000000E-03 0. -1.
    9900012    2    1    2    0    0  0.32834641752E+01 -0.25512765386E+02  0.34956284641E+02  0.47787260715E+02  0.19999952903E+02 0.  0.
         12    1    1    2    0    0 -0.32834641752E+01  0.25512765386E+02 -0.34956284641E+02  0.43400739285E+02  0.00000000000E+00 0. -1.
         11    1    3    3    0    0 -0.83434592060E+00 -0.18261442091E+01  0.16345104702E+02  0.16467950200E+02  0.51100000000E-03 0.  1.
        -11    1    3    3    0    0 -0.14682093768E+01 -0.87669607925E+01  0.93084159559E+01  0.12870969201E+02  0.51100000000E-03 0. -1.
        -12    1    3    3    0    0  0.55860194725E+01 -0.14919660384E+02  0.93027639825E+01  0.18448341314E+02  0.00000000000E+00 0.  1.
</event>
<event>
 7    1  0.4875579E-009  0.4778727E+02  0.7816164E-02  0.1312668E+00
        -11   -1    0    0    0    0  0.00000000000E+00  0.00000000000E+00  0.45593999997E+02  0.45594000000E+02  0.51100000000E-03 0.  1.
         11   -1    0    0    0    0 -0.00000000000E+00 -0.00000000000E+00 -0.45593999997E+02  0.45594000000E+02  0.51100000000E-03 0. -1.
    9900012    2    1    2    0    0  0.15362187411E+02  0.28900073024E+02  0.28502845138E+02  0.47787271852E+02  0.20000003680E+02 0.  0.
         12    1    1    2    0    0 -0.15362187411E+02 -0.28900073024E+02 -0.28502845138E+02  0.43400728148E+02  0.00000000000E+00 0. -1.
         11    1    3    3    0    0 -0.41287823817E+01  0.77410562544E+01  0.49239618399E+01  0.10060626042E+02  0.51100000000E-03 0. -1.
        -11    1    3    3    0    0  0.34239740537E+01  0.76316052839E+01  0.54678676956E+01  0.99931263840E+01  0.51100000000E-03 0.  1.
         12    1    3    3    0    0  0.16066995739E+02  0.13527411486E+02  0.18111015602E+02  0.27733519426E+02  0.00000000000E+00 0. -1.
</event>
<event>
 7    1  0.4875579E-009  0.4778727E+02  0.7816164E-02  0.1312668E+00
        -11   -1    0    0    0    0  0.00000000000E+00  0.00000000000E+00  0.45593999997E+02  0.45594000000E+02  0.51100000000E-03 0.  1.
         11   -1    0    0    0    0 -0.00000000000E+00 -0.00000000000E+00 -0.45593999997E+02  0.45594000000E+02  0.51100000000E-03 0. -1.
    9900012    2    1    2    0    0 -0.63241341712E+01  0.19181871857E+02  0.38414639816E+02  0.47787269209E+02  0.19999991633E+02 0.  0.
         12    1    1    2    0    0  0.63241341712E+01 -0.19181871857E+02 -0.38414639816E+02  0.43400730791E+02  0.00000000000E+00 0. -1.
         11    1    3    3    0    0 -0.58465314552E+01  0.59428288545E+01  0.46205825088E+01  0.95314703919E+01  0.51100000000E-03 0. -1.
        -11    1    3    3    0    0 -0.57595699748E+01  0.37723434857E+01  0.16017811046E+02  0.17434835607E+02  0.51100000000E-03 0.  1.
         12    1    3    3    0    0  0.52819672588E+01  0.94666995167E+01  0.17776246261E+02  0.20820963210E+02  0.00000000000E+00 0. -1.
</event>
<event>
 7    1  0.4875579E-009  0.4778727E+02  0.7816164E-02  0.1312668E+00
        -11   -1    0    0    0    0  0.00000000000E+00  0.00000000000E+00  0.45593999997E+02  0.45594000000E+02  0.51100000000E-03 0. -1.
         11   -1    0    0    0    0 -0.00000000000E+00 -0.00000000000E+00 -0.45593999997E+02  0.45594000000E+02  0.51100000000E-03 0.  1.
    9900012    2    1    2    0    0 -0.91105070966E+00 -0.17772834934E+02 -0.39584337490E+02  0.47787269021E+02  0.19999990775E+02 0.  0.
         12    1    1    2    0    0  0.91105070966E+00  0.17772834934E+02  0.39584337490E+02  0.43400730979E+02  0.00000000000E+00 0. -1.
         11    1    3    3    0    0 -0.16272310226E+01  0.24939643195E+01 -0.55622400900E+01  0.63092197543E+01  0.51100000000E-03 0. -1.
        -11    1    3    3    0    0  0.34853319511E+01 -0.19897878100E+01 -0.12388192660E+02  0.13022062509E+02  0.51100000000E-03 0.  1.
        -12    1    3    3    0    0 -0.27691516382E+01 -0.18277011443E+02 -0.21633904740E+02  0.28455986758E+02  0.00000000000E+00 0.  1.
</event>
<event>
 7    1  0.4875579E-009  0.4778727E+02  0.7816164E-02  0.1312668E+00
        -11   -1    0    0    0    0  0.00000000000E+00  0.00000000000E+00  0.45593999997E+02  0.45594000000E+02  0.51100000000E-03 0. -1.
         11   -1    0    0    0    0 -0.00000000000E+00 -0.00000000000E+00 -0.45593999997E+02  0.45594000000E+02  0.51100000000E-03 0.  1.
    9900012    2    1    2    0    0  0.41826661291E+02  0.40562377802E+01  0.10848993656E+02  0.47787270478E+02  0.19999997418E+02 0.  0.
         12    1    1    2    0    0 -0.41826661291E+02 -0.40562377802E+01 -0.10848993656E+02  0.43400729522E+02  0.00000000000E+00 0. -1.
         11    1    3    3    0    0  0.79284764719E-01 -0.11740135681E+00 -0.10373833783E+01  0.10470117895E+01  0.51100000000E-03 0. -1.
        -11    1    3    3    0    0  0.13205497430E+02  0.52219022467E+01 -0.30276968673E+01  0.14519654749E+02  0.51100000000E-03 0.  1.
         12    1    3    3    0    0  0.28541879097E+02 -0.10482631096E+01  0.14914073901E+02  0.32220603940E+02  0.00000000000E+00 0. -1.
</event>
<event>
 7    1  0.4875579E-009  0.4778727E+02  0.7816164E-02  0.1312668E+00
        -11   -1    0    0    0    0  0.00000000000E+00  0.00000000000E+00  0.45593999997E+02  0.45594000000E+02  0.51100000000E-03 0. -1.
         11   -1    0    0    0    0 -0.00000000000E+00 -0.00000000000E+00 -0.45593999997E+02  0.45594000000E+02  0.51100000000E-03 0.  1.
    9900012    2    1    2    0    0 -0.28204438968E+02  0.27200056125E+02 -0.18662528733E+02  0.47787269483E+02  0.19999992881E+02 0.  0.
         12    1    1    2    0    0  0.28204438968E+02 -0.27200056125E+02  0.18662528733E+02  0.43400730517E+02  0.00000000000E+00 0. -1.
         11    1    3    3    0    0 -0.39236633643E-01 -0.35007839375E+00  0.94243614172E+00  0.10061215322E+01  0.51100000000E-03 0. -1.
        -11    1    3    3    0    0 -0.19801079024E+02  0.27714977089E+02 -0.14845926611E+02  0.37156482917E+02  0.51100000000E-03 0.  1.
         12    1    3    3    0    0 -0.83641233099E+01 -0.16484257045E+00 -0.47590382645E+01  0.96246650341E+01  0.00000000000E+00 0. -1.
</event>
<event>
 7    1  0.4875579E-009  0.4778727E+02  0.7816164E-02  0.1312668E+00
        -11   -1    0    0    0    0  0.00000000000E+00  0.00000000000E+00  0.45593999997E+02  0.45594000000E+02  0.51100000000E-03 0. -1.
         11   -1    0    0    0    0 -0.00000000000E+00 -0.00000000000E+00 -0.45593999997E+02  0.45594000000E+02  0.51100000000E-03 0.  1.
    9900012    2    1    2    0    0 -0.18021445119E+02  0.15962661747E+02 -0.36111552957E+02  0.47787270615E+02  0.19999998042E+02 0.  0.
         12    1    1    2    0    0  0.18021445119E+02 -0.15962661747E+02  0.36111552957E+02  0.43400729385E+02  0.00000000000E+00 0. -1.
         11    1    3    3    0    0  0.52147754964E+00  0.45852283870E+00 -0.64374183976E+01  0.64747616107E+01  0.51100000000E-03 0. -1.
        -11    1    3    3    0    0  0.23822370955E+01 -0.30364297406E+00 -0.36297823553E+01  0.43523066118E+01  0.51100000000E-03 0.  1.
        -12    1    3    3    0    0 -0.20925159764E+02  0.15807781882E+02 -0.26044352204E+02  0.36960202393E+02  0.00000000000E+00 0.  1.
</event>
<event>
 7    1  0.4875579E-009  0.4778727E+02  0.7816164E-02  0.1312668E+00
        -11   -1    0    0    0    0  0.00000000000E+00  0.00000000000E+00  0.45593999997E+02  0.45594000000E+02  0.51100000000E-03 0. -1.
         11   -1    0    0    0    0 -0.00000000000E+00 -0.00000000000E+00 -0.45593999997E+02  0.45594000000E+02  0.51100000000E-03 0.  1.
    9900012    2    1    2    0    0  0.11038926307E+02 -0.41283596155E+02  0.75782662422E+01  0.47787270458E+02  0.19999997327E+02 0.  0.
         12    1    1    2    0    0 -0.11038926307E+02  0.41283596155E+02 -0.75782662422E+01  0.43400729542E+02  0.00000000000E+00 0. -1.
         11    1    3    3    0    0  0.69619894114E+01 -0.10182158346E+02  0.54704466252E+01  0.13493384738E+02  0.51100000000E-03 0. -1.
        -11    1    3    3    0    0  0.17722049796E+01 -0.40383943868E+00 -0.25789932431E+01  0.31551550185E+01  0.51100000000E-03 0.  1.
        -12    1    3    3    0    0  0.23047319163E+01 -0.30697598370E+02  0.46868128601E+01  0.31138730701E+02  0.00000000000E+00 0.  1.
</event>
<event>
 7    1  0.4875579E-009  0.4778727E+02  0.7816164E-02  0.1312668E+00
        -11   -1    0    0    0    0  0.00000000000E+00  0.00000000000E+00  0.45593999997E+02  0.45594000000E+02  0.51100000000E-03 0.  1.
         11   -1    0    0    0    0 -0.00000000000E+00 -0.00000000000E+00 -0.45593999997E+02  0.45594000000E+02  0.51100000000E-03 0. -1.
    9900012    2    1    2    0    0 -0.24934504556E+02  0.82580716742E+01  0.34549932110E+02  0.47787273347E+02  0.20000010496E+02 0.  0.
         12    1    1    2    0    0  0.24934504556E+02 -0.82580716742E+01 -0.34549932110E+02  0.43400726653E+02  0.00000000000E+00 0. -1.
         11    1    3    3    0    0 -0.41508889247E+01  0.52797623917E+01  0.13538457549E+02  0.15112762912E+02  0.51100000000E-03 0. -1.
        -11    1    3    3    0    0 -0.62303121012E+01 -0.27436199962E+01  0.13937385159E+02  0.15511123263E+02  0.51100000000E-03 0.  1.
        -12    1    3    3    0    0 -0.14553303530E+02  0.57219292787E+01  0.70740894023E+01  0.17163387171E+02  0.00000000000E+00 0.  1.
</event>
<event>
 7    1  0.4875579E-009  0.4778726E+02  0.7816164E-02  0.1312668E+00
        -11   -1    0    0    0    0  0.00000000000E+00  0.00000000000E+00  0.45593999997E+02  0.45594000000E+02  0.51100000000E-03 0.  1.
         11   -1    0    0    0    0 -0.00000000000E+00 -0.00000000000E+00 -0.45593999997E+02  0.45594000000E+02  0.51100000000E-03 0. -1.
    9900012    2    1    2    0    0  0.12766100605E+02  0.14595938990E+02  0.38827947383E+02  0.47787259711E+02  0.19999948327E+02 0.  0.
         12    1    1    2    0    0 -0.12766100605E+02 -0.14595938990E+02 -0.38827947383E+02  0.43400740289E+02  0.00000000000E+00 0. -1.
         11    1    3    3    0    0  0.35994264056E+01  0.17453357466E+01  0.65020183481E+01  0.76340231974E+01  0.51100000000E-03 0. -1.
        -11    1    3    3    0    0  0.12289070192E+01 -0.25169363813E+01 -0.68672586368E+00  0.28838817386E+01  0.51100000000E-03 0.  1.
         12    1    3    3    0    0  0.79377671804E+01  0.15367539625E+02  0.33012654898E+02  0.37269354775E+02  0.00000000000E+00 0. -1.
</event>
<event>
 7    1  0.4875579E-009  0.4778728E+02  0.7816164E-02  0.1312668E+00
        -11   -1    0    0    0    0  0.00000000000E+00  0.00000000000E+00  0.45593999997E+02  0.45594000000E+02  0.51100000000E-03 0.  1.
         11   -1    0    0    0    0 -0.00000000000E+00 -0.00000000000E+00 -0.45593999997E+02  0.45594000000E+02  0.51100000000E-03 0. -1.
    9900012    2    1    2    0    0  0.60281089561E+01  0.13699764476E+02  0.40738204036E+02  0.47787275209E+02  0.20000018989E+02 0.  0.
         12    1    1    2    0    0 -0.60281089561E+01 -0.13699764476E+02 -0.40738204036E+02  0.43400724791E+02  0.00000000000E+00 0. -1.
         11    1    3    3    0    0  0.27754236408E+01  0.18051612735E+02  0.28318163901E+02  0.33696915374E+02  0.51100000000E-03 0. -1.
        -11    1    3    3    0    0  0.13939217563E+01 -0.94557975721E+00  0.84952229483E+00  0.18864854440E+01  0.51100000000E-03 0.  1.
         12    1    3    3    0    0  0.18587635590E+01 -0.34062685019E+01  0.11570517840E+02  0.12203874391E+02  0.00000000000E+00 0. -1.
</event>
<event>
 7    1  0.4875579E-009  0.4778727E+02  0.7816164E-02  0.1312668E+00
        -11   -1    0    0    0    0  0.00000000000E+00  0.00000000000E+00  0.45593999997E+02  0.45594000000E+02  0.51100000000E-03 0.  1.
         11   -1    0    0    0    0 -0.00000000000E+00 -0.00000000000E+00 -0.45593999997E+02  0.45594000000E+02  0.51100000000E-03 0. -1.
    9900012    2    1    2    0    0 -0.14109211421E+02 -0.13064426463E+02  0.38908538294E+02  0.47787269155E+02  0.19999991385E+02 0.  0.
         12    1    1    2    0    0  0.14109211421E+02  0.13064426463E+02 -0.38908538294E+02  0.43400730845E+02  0.00000000000E+00 0. -1.
         11    1    3    3    0    0 -0.75522804157E+00 -0.43591640484E+01  0.41745057902E+01  0.60826950811E+01  0.51100000000E-03 0. -1.
        -11    1    3    3    0    0  0.72846988785E+00 -0.55127086927E+01  0.21187956174E+02  0.21905481337E+02  0.51100000000E-03 0.  1.
         12    1    3    3    0    0 -0.14082453267E+02 -0.31925537216E+01  0.13546076330E+02  0.19799092737E+02  0.00000000000E+00 0. -1.
</event>
<event>
 7    1  0.4875579E-009  0.4778727E+02  0.7816164E-02  0.1312668E+00
        -11   -1    0    0    0    0  0.00000000000E+00  0.00000000000E+00  0.45593999997E+02  0.45594000000E+02  0.51100000000E-03 0.  1.
         11   -1    0    0    0    0 -0.00000000000E+00 -0.00000000000E+00 -0.45593999997E+02  0.45594000000E+02  0.51100000000E-03 0. -1.
    9900012    2    1    2    0    0 -0.37597835957E+02 -0.80389062207E+01  0.20134593241E+02  0.47787272738E+02  0.20000007723E+02 0.  0.
         12    1    1    2    0    0  0.37597835957E+02  0.80389062207E+01 -0.20134593241E+02  0.43400727262E+02  0.00000000000E+00 0. -1.
         11    1    3    3    0    0 -0.15367887527E+02 -0.26426564472E+01  0.13163618355E+02  0.20406774576E+02  0.51100000000E-03 0.  1.
        -11    1    3    3    0    0 -0.16508186277E+02 -0.89005884368E+01  0.83517488778E+01  0.20530280033E+02  0.51100000000E-03 0. -1.
         12    1    3    3    0    0 -0.57217621529E+01  0.35043386632E+01 -0.13807739914E+01  0.68502181291E+01  0.00000000000E+00 0. -1.
</event>
<event>
 7    1  0.4875579E-009  0.4778727E+02  0.7816164E-02  0.1312668E+00
        -11   -1    0    0    0    0  0.00000000000E+00  0.00000000000E+00  0.45593999997E+02  0.45594000000E+02  0.51100000000E-03 0.  1.
         11   -1    0    0    0    0 -0.00000000000E+00 -0.00000000000E+00 -0.45593999997E+02  0.45594000000E+02  0.51100000000E-03 0. -1.
    9900012    2    1    2    0    0 -0.79141183350E+01  0.42434637276E+02 -0.45046162715E+01  0.47787271003E+02  0.19999999810E+02 0.  0.
         12    1    1    2    0    0  0.79141183350E+01 -0.42434637276E+02  0.45046162715E+01  0.43400728997E+02  0.00000000000E+00 0. -1.
         11    1    3    3    0    0 -0.12959493879E+02  0.18896049462E+02 -0.31493426575E+01  0.23128500304E+02  0.51100000000E-03 0. -1.
        -11    1    3    3    0    0 -0.20679648311E+00  0.11268986602E+02 -0.39526858531E+00  0.11277812790E+02  0.51100000000E-03 0.  1.
         12    1    3    3    0    0  0.52521720271E+01  0.12269601212E+02 -0.96000502870E+00  0.13380957909E+02  0.00000000000E+00 0. -1.
</event>
<event>
 7    1  0.4875579E-009  0.4778726E+02  0.7816164E-02  0.1312668E+00
        -11   -1    0    0    0    0  0.00000000000E+00  0.00000000000E+00  0.45593999997E+02  0.45594000000E+02  0.51100000000E-03 0.  1.
         11   -1    0    0    0    0 -0.00000000000E+00 -0.00000000000E+00 -0.45593999997E+02  0.45594000000E+02  0.51100000000E-03 0. -1.
    9900012    2    1    2    0    0  0.34599548205E+02 -0.25423277622E+02  0.63365762336E+01  0.47787262917E+02  0.19999962942E+02 0.  0.
         12    1    1    2    0    0 -0.34599548205E+02  0.25423277622E+02 -0.63365762336E+01  0.43400737083E+02  0.00000000000E+00 0. -1.
         11    1    3    3    0    0  0.78496178066E+01 -0.10903834334E+02  0.47832912297E+01  0.14261485832E+02  0.51100000000E-03 0. -1.
        -11    1    3    3    0    0  0.71353127339E+01 -0.43278848872E+01  0.68490081444E+01  0.10795933875E+02  0.51100000000E-03 0.  1.
         12    1    3    3    0    0  0.19614617664E+02 -0.10191558401E+02 -0.52957231404E+01  0.22729843210E+02  0.00000000000E+00 0. -1.
</event>
<event>
 7    1  0.4875579E-009  0.4778727E+02  0.7816164E-02  0.1312668E+00
        -11   -1    0    0    0    0  0.00000000000E+00  0.00000000000E+00  0.45593999997E+02  0.45594000000E+02  0.51100000000E-03 0.  1.
         11   -1    0    0    0    0 -0.00000000000E+00 -0.00000000000E+00 -0.45593999997E+02  0.45594000000E+02  0.51100000000E-03 0. -1.
    9900012    2    1    2    0    0 -0.26943336168E+02 -0.83004571530E+01 -0.32996706998E+02  0.47787266993E+02  0.19999981528E+02 0.  0.
         12    1    1    2    0    0  0.26943336168E+02  0.83004571530E+01  0.32996706998E+02  0.43400733007E+02  0.00000000000E+00 0. -1.
         11    1    3    3    0    0 -0.51530526724E+01  0.28798122014E+00 -0.71133681263E-01  0.51615836029E+01  0.51100000000E-03 0. -1.
        -11    1    3    3    0    0 -0.11482550224E+02 -0.64530750918E+01 -0.76175163584E+01  0.15215705489E+02  0.51100000000E-03 0.  1.
         12    1    3    3    0    0 -0.10307733271E+02 -0.21353632814E+01 -0.25308056959E+02  0.27409977902E+02  0.00000000000E+00 0. -1.
</event>
<event>
 7    1  0.4875579E-009  0.4778726E+02  0.7816164E-02  0.1312668E+00
        -11   -1    0    0    0    0  0.00000000000E+00  0.00000000000E+00  0.45593999997E+02  0.45594000000E+02  0.51100000000E-03 0.  1.
         11   -1    0    0    0    0 -0.00000000000E+00 -0.00000000000E+00 -0.45593999997E+02  0.45594000000E+02  0.51100000000E-03 0. -1.
    9900012    2    1    2    0    0  0.19333329599E+02 -0.38836285484E+02  0.12608243616E+01  0.47787258282E+02  0.19999941811E+02 0.  0.
         12    1    1    2    0    0 -0.19333329599E+02  0.38836285484E+02 -0.12608243616E+01  0.43400741718E+02  0.00000000000E+00 0. -1.
         11    1    3    3    0    0 -0.26438230540E+01 -0.41523312327E+01  0.14888080291E+01  0.51427817974E+01  0.51100000000E-03 0. -1.
        -11    1    3    3    0    0  0.34390643954E+01 -0.41610859497E+00 -0.12153088688E+01  0.36711423544E+01  0.51100000000E-03 0.  1.
        -12    1    3    3    0    0  0.18538088258E+02 -0.34267845656E+02  0.98732520125E+00  0.38973334130E+02  0.00000000000E+00 0.  1.
</event>
<event>
 7    1  0.4875579E-009  0.4778727E+02  0.7816164E-02  0.1312668E+00
        -11   -1    0    0    0    0  0.00000000000E+00  0.00000000000E+00  0.45593999997E+02  0.45594000000E+02  0.51100000000E-03 0.  1.
         11   -1    0    0    0    0 -0.00000000000E+00 -0.00000000000E+00 -0.45593999997E+02  0.45594000000E+02  0.51100000000E-03 0. -1.
    9900012    2    1    2    0    0 -0.81166477060E+01  0.29691413751E+02  0.30596790855E+02  0.47787266928E+02  0.19999981233E+02 0.  0.
         12    1    1    2    0    0  0.81166477060E+01 -0.29691413751E+02 -0.30596790855E+02  0.43400733072E+02  0.00000000000E+00 0. -1.
         11    1    3    3    0    0 -0.95416762423E+00  0.15762486138E+00 -0.20451906368E+01  0.22623188223E+01  0.51100000000E-03 0. -1.
        -11    1    3    3    0    0 -0.75408107265E+00  0.12141336505E+02  0.75068831237E+01  0.14294543885E+02  0.51100000000E-03 0.  1.
        -12    1    3    3    0    0 -0.64083990092E+01  0.17392452385E+02  0.25135098368E+02  0.31230404221E+02  0.00000000000E+00 0.  1.
</event>
<event>
 7    1  0.4875579E-009  0.4778727E+02  0.7816164E-02  0.1312668E+00
        -11   -1    0    0    0    0  0.00000000000E+00  0.00000000000E+00  0.45593999997E+02  0.45594000000E+02  0.51100000000E-03 0. -1.
         11   -1    0    0    0    0 -0.00000000000E+00 -0.00000000000E+00 -0.45593999997E+02  0.45594000000E+02  0.51100000000E-03 0.  1.
    9900012    2    1    2    0    0 -0.16370362889E+02 -0.40168447210E+02 -0.14595796652E+01  0.47787270684E+02  0.19999998356E+02 0.  0.
         12    1    1    2    0    0  0.16370362889E+02  0.40168447210E+02  0.14595796652E+01  0.43400729316E+02  0.00000000000E+00 0. -1.
         11    1    3    3    0    0 -0.64601373231E+01 -0.18247036744E+02 -0.42895336715E+01  0.19826442534E+02  0.51100000000E-03 0. -1.
        -11    1    3    3    0    0 -0.11446885791E+02 -0.22935892623E+02  0.37430431416E+01  0.25905534871E+02  0.51100000000E-03 0.  1.
         12    1    3    3    0    0  0.15366602246E+01  0.10144821573E+01 -0.91308913527E+00  0.20552932789E+01  0.00000000000E+00 0. -1.
</event>
<event>
 7    1  0.4875579E-009  0.4778727E+02  0.7816164E-02  0.1312668E+00
        -11   -1    0    0    0    0  0.00000000000E+00  0.00000000000E+00  0.45593999997E+02  0.45594000000E+02  0.51100000000E-03 0.  1.
         11   -1    0    0    0    0 -0.00000000000E+00 -0.00000000000E+00 -0.45593999997E+02  0.45594000000E+02  0.51100000000E-03 0. -1.
    9900012    2    1    2    0    0 -0.39252946364E+02 -0.18511791736E+02 -0.37798965739E+00  0.47787272959E+02  0.20000008729E+02 0.  0.
         12    1    1    2    0    0  0.39252946364E+02  0.18511791736E+02  0.37798965739E+00  0.43400727041E+02  0.00000000000E+00 0. -1.
         11    1    3    3    0    0 -0.15511684273E+02 -0.21801810097E+01 -0.71216524876E+01  0.17207076237E+02  0.51100000000E-03 0. -1.
        -11    1    3    3    0    0 -0.10579182964E+02 -0.48827779340E+01 -0.56740879550E+00  0.11665444078E+02  0.51100000000E-03 0.  1.
        -12    1    3    3    0    0 -0.13162079127E+02 -0.11448832792E+02  0.73110716257E+01  0.18914752643E+02  0.00000000000E+00 0.  1.
</event>
<event>
 7    1  0.4875579E-009  0.4778727E+02  0.7816164E-02  0.1312668E+00
        -11   -1    0    0    0    0  0.00000000000E+00  0.00000000000E+00  0.45593999997E+02  0.45594000000E+02  0.51100000000E-03 0.  1.
         11   -1    0    0    0    0 -0.00000000000E+00 -0.00000000000E+00 -0.45593999997E+02  0.45594000000E+02  0.51100000000E-03 0. -1.
    9900012    2    1    2    0    0 -0.33025039148E+02 -0.10698578556E+02  0.26048239874E+02  0.47787267352E+02  0.19999983165E+02 0.  0.
         12    1    1    2    0    0  0.33025039148E+02  0.10698578556E+02 -0.26048239874E+02  0.43400732648E+02  0.00000000000E+00 0. -1.
         11    1    3    3    0    0  0.88985445942E+00 -0.97424816761E+00  0.70139071653E+01  0.71369387300E+01  0.51100000000E-03 0. -1.
        -11    1    3    3    0    0 -0.10873186963E+02 -0.17823404008E+01  0.92549909133E+01  0.14389502740E+02  0.51100000000E-03 0.  1.
         12    1    3    3    0    0 -0.23041706645E+02 -0.79419899879E+01  0.97793417952E+01  0.26260825882E+02  0.00000000000E+00 0. -1.
</event>
<event>
 7    1  0.4875579E-009  0.4778730E+02  0.7816164E-02  0.1312668E+00
        -11   -1    0    0    0    0  0.00000000000E+00  0.00000000000E+00  0.45593999997E+02  0.45594000000E+02  0.51100000000E-03 0.  1.
         11   -1    0    0    0    0 -0.00000000000E+00 -0.00000000000E+00 -0.45593999997E+02  0.45594000000E+02  0.51100000000E-03 0. -1.
    9900012    2    1    2    0    0 -0.21795642776E+02  0.28667764176E+02  0.24222518829E+02  0.47787295337E+02  0.20000110758E+02 0.  0.
         12    1    1    2    0    0  0.21795642776E+02 -0.28667764176E+02 -0.24222518829E+02  0.43400704663E+02  0.00000000000E+00 0. -1.
         11    1    3    3    0    0 -0.52173212444E+00  0.51191029169E+01  0.10507622691E+02  0.11699895468E+02  0.51100000000E-03 0. -1.
        -11    1    3    3    0    0 -0.79863418914E+01  0.52142953457E+01  0.86691818468E+01  0.12888958333E+02  0.51100000000E-03 0.  1.
         12    1    3    3    0    0 -0.13287568760E+02  0.18334365913E+02  0.50457142911E+01  0.23198441536E+02  0.00000000000E+00 0. -1.
</event>
<event>
 7    1  0.4875579E-009  0.4778727E+02  0.7816164E-02  0.1312668E+00
        -11   -1    0    0    0    0  0.00000000000E+00  0.00000000000E+00  0.45593999997E+02  0.45594000000E+02  0.51100000000E-03 0. -1.
         11   -1    0    0    0    0 -0.00000000000E+00 -0.00000000000E+00 -0.45593999997E+02  0.45594000000E+02  0.51100000000E-03 0.  1.
    9900012    2    1    2    0    0 -0.38259357862E+02 -0.20438679044E+02  0.14510348177E+01  0.47787267666E+02  0.19999984597E+02 0.  0.
         12    1    1    2    0    0  0.38259357862E+02  0.20438679044E+02 -0.14510348177E+01  0.43400732334E+02  0.00000000000E+00 0. -1.
         11    1    3    3    0    0  0.11418284281E+01 -0.85392672386E+00 -0.22182973645E+01  0.26370071042E+01  0.51100000000E-03 0. -1.
        -11    1    3    3    0    0 -0.21322622240E+02 -0.15369524581E+02  0.39802284208E+01  0.26584181830E+02  0.51100000000E-03 0.  1.
        -12    1    3    3    0    0 -0.18078564050E+02 -0.42152277388E+01 -0.31089623855E+00  0.18566078732E+02  0.00000000000E+00 0.  1.
</event>
<event>
 7    1  0.4875579E-009  0.4778727E+02  0.7816164E-02  0.1312668E+00
        -11   -1    0    0    0    0  0.00000000000E+00  0.00000000000E+00  0.45593999997E+02  0.45594000000E+02  0.51100000000E-03 0. -1.
         11   -1    0    0    0    0 -0.00000000000E+00 -0.00000000000E+00 -0.45593999997E+02  0.45594000000E+02  0.51100000000E-03 0.  1.
    9900012    2    1    2    0    0  0.35642683084E+02  0.14860343285E+00 -0.24762877237E+02  0.47787273860E+02  0.20000012838E+02 0.  0.
         12    1    1    2    0    0 -0.35642683084E+02 -0.14860343285E+00  0.24762877237E+02  0.43400726140E+02  0.00000000000E+00 0. -1.
         11    1    3    3    0    0  0.14661032939E+02 -0.15144985348E+01 -0.14802972706E+02  0.20889413439E+02  0.51100000000E-03 0. -1.
        -11    1    3    3    0    0  0.19046886905E+02  0.61702120522E+01 -0.87254250370E+01  0.21840065473E+02  0.51100000000E-03 0.  1.
         12    1    3    3    0    0  0.19347632409E+01 -0.45071100846E+01 -0.12344794936E+01  0.50577949477E+01  0.00000000000E+00 0. -1.
</event>
<event>
 7    1  0.4875579E-009  0.4778727E+02  0.7816164E-02  0.1312668E+00
        -11   -1    0    0    0    0  0.00000000000E+00  0.00000000000E+00  0.45593999997E+02  0.45594000000E+02  0.51100000000E-03 0.  1.
         11   -1    0    0    0    0 -0.00000000000E+00 -0.00000000000E+00 -0.45593999997E+02  0.45594000000E+02  0.51100000000E-03 0. -1.
    9900012    2    1    2    0    0  0.35364449058E+02  0.15640354378E+02  0.19706807443E+02  0.47787271874E+02  0.20000003784E+02 0.  0.
         12    1    1    2    0    0 -0.35364449058E+02 -0.15640354378E+02 -0.19706807443E+02  0.43400728126E+02  0.00000000000E+00 0. -1.
         11    1    3    3    0    0  0.21138504773E+02  0.12480564708E+02  0.20539754025E+02  0.32007536224E+02  0.51100000000E-03 0. -1.
        -11    1    3    3    0    0  0.62958146099E+01 -0.50850163793E+00  0.19488393883E+01  0.66101309171E+01  0.51100000000E-03 0.  1.
         12    1    3    3    0    0  0.79301296749E+01  0.36682913076E+01 -0.27817859704E+01  0.91696047332E+01  0.00000000000E+00 0. -1.
</event>
<event>
 7    1  0.4875579E-009  0.4778727E+02  0.7816164E-02  0.1312668E+00
        -11   -1    0    0    0    0  0.00000000000E+00  0.00000000000E+00  0.45593999997E+02  0.45594000000E+02  0.51100000000E-03 0. -1.
         11   -1    0    0    0    0 -0.00000000000E+00 -0.00000000000E+00 -0.45593999997E+02  0.45594000000E+02  0.51100000000E-03 0.  1.
    9900012    2    1    2    0    0  0.39127989784E+02 -0.11197972956E+02 -0.15074120306E+02  0.47787270907E+02  0.19999999371E+02 0.  0.
         12    1    1    2    0    0 -0.39127989784E+02  0.11197972956E+02  0.15074120306E+02  0.43400729093E+02  0.00000000000E+00 0. -1.
         11    1    3    3    0    0  0.69203860120E+01 -0.41918922464E+01 -0.69451239437E+01  0.10662947529E+02  0.51100000000E-03 0. -1.
        -11    1    3    3    0    0  0.33255113984E+02 -0.69157571571E+01 -0.96175051875E+01  0.35301936341E+02  0.51100000000E-03 0.  1.
         12    1    3    3    0    0 -0.10475102117E+01 -0.90323552396E-01  0.14885088252E+01  0.18223870364E+01  0.00000000000E+00 0. -1.
</event>
<event>
 7    1  0.4875579E-009  0.4778727E+02  0.7816164E-02  0.1312668E+00
        -11   -1    0    0    0    0  0.00000000000E+00  0.00000000000E+00  0.45593999997E+02  0.45594000000E+02  0.51100000000E-03 0. -1.
         11   -1    0    0    0    0 -0.00000000000E+00 -0.00000000000E+00 -0.45593999997E+02  0.45594000000E+02  0.51100000000E-03 0.  1.
    9900012    2    1    2    0    0 -0.41283999628E+02 -0.75176842076E+01  0.11078773023E+02  0.47787269443E+02  0.19999992699E+02 0.  0.
         12    1    1    2    0    0  0.41283999628E+02  0.75176842076E+01 -0.11078773023E+02  0.43400730557E+02  0.00000000000E+00 0. -1.
         11    1    3    3    0    0 -0.13127113109E+02 -0.37735129257E+00  0.65279957217E+01  0.14665545369E+02  0.51100000000E-03 0.  1.
        -11    1    3    3    0    0 -0.92555082338E+01 -0.36348149651E+01  0.89755043324E+01  0.13395371991E+02  0.51100000000E-03 0. -1.
        -12    1    3    3    0    0 -0.18901378286E+02 -0.35055179499E+01 -0.44247270311E+01  0.19726352083E+02  0.00000000000E+00 0.  1.
</event>
<event>
 7    1  0.4875579E-009  0.4778727E+02  0.7816164E-02  0.1312668E+00
        -11   -1    0    0    0    0  0.00000000000E+00  0.00000000000E+00  0.45593999997E+02  0.45594000000E+02  0.51100000000E-03 0. -1.
         11   -1    0    0    0    0 -0.00000000000E+00 -0.00000000000E+00 -0.45593999997E+02  0.45594000000E+02  0.51100000000E-03 0.  1.
    9900012    2    1    2    0    0  0.10977021473E+02  0.31463012261E+02 -0.27806599736E+02  0.47787272704E+02  0.20000007566E+02 0.  0.
         12    1    1    2    0    0 -0.10977021473E+02 -0.31463012261E+02  0.27806599736E+02  0.43400727296E+02  0.00000000000E+00 0. -1.
         11    1    3    3    0    0  0.77137388425E+01  0.23574063851E+02 -0.18731757555E+02  0.31082422601E+02  0.51100000000E-03 0. -1.
        -11    1    3    3    0    0  0.32121720726E+01  0.10345180828E+02 -0.92464378927E+01  0.14242100609E+02  0.51100000000E-03 0.  1.
         12    1    3    3    0    0  0.51110557822E-01 -0.24562324180E+01  0.17159571213E+00  0.24627494937E+01  0.00000000000E+00 0. -1.
</event>
<event>
 7    1  0.4875579E-009  0.4778728E+02  0.7816164E-02  0.1312668E+00
        -11   -1    0    0    0    0  0.00000000000E+00  0.00000000000E+00  0.45593999997E+02  0.45594000000E+02  0.51100000000E-03 0.  1.
         11   -1    0    0    0    0 -0.00000000000E+00 -0.00000000000E+00 -0.45593999997E+02  0.45594000000E+02  0.51100000000E-03 0. -1.
    9900012    2    1    2    0    0  0.17996485971E+02 -0.25233565081E+02  0.30381180448E+02  0.47787280657E+02  0.20000043829E+02 0.  0.
         12    1    1    2    0    0 -0.17996485971E+02  0.25233565081E+02 -0.30381180448E+02  0.43400719343E+02  0.00000000000E+00 0. -1.
         11    1    3    3    0    0  0.89491297716E+01 -0.40209316269E+01  0.85530782997E+01  0.13015758275E+02  0.51100000000E-03 0. -1.
        -11    1    3    3    0    0  0.10700810163E+01 -0.30485268079E+00  0.88150743967E+01  0.88850180314E+01  0.51100000000E-03 0.  1.
        -12    1    3    3    0    0  0.79772751835E+01 -0.20907780774E+02  0.13013027752E+02  0.25886504351E+02  0.00000000000E+00 0.  1.
</event>
<event>
 7    1  0.4875579E-009  0.4778731E+02  0.7816164E-02  0.1312668E+00
        -11   -1    0    0    0    0  0.00000000000E+00  0.00000000000E+00  0.45593999997E+02  0.45594000000E+02  0.51100000000E-03 0.  1.
         11   -1    0    0    0    0 -0.00000000000E+00 -0.00000000000E+00 -0.45593999997E+02  0.45594000000E+02  0.51100000000E-03 0. -1.
    9900012    2    1    2    0    0  0.17598847006E+02 -0.39214751341E+02 -0.60086594648E+01  0.47787307296E+02  0.20000165283E+02 0.  0.
         12    1    1    2    0    0 -0.17598847006E+02  0.39214751341E+02  0.60086594648E+01  0.43400692704E+02  0.00000000000E+00 0. -1.
         11    1    3    3    0    0 -0.75078339409E+00 -0.16156938528E+02 -0.16753117902E+01  0.16260904285E+02  0.51100000000E-03 0. -1.
        -11    1    3    3    0    0  0.88695342184E+01 -0.18643069446E+02 -0.41980120557E+01  0.21067889811E+02  0.51100000000E-03 0.  1.
         12    1    3    3    0    0  0.94800961820E+01 -0.44147433664E+01 -0.13533561893E+00  0.10458513199E+02  0.00000000000E+00 0. -1.
</event>
<event>
 7    1  0.4875579E-009  0.4778727E+02  0.7816164E-02  0.1312668E+00
        -11   -1    0    0    0    0  0.00000000000E+00  0.00000000000E+00  0.45593999997E+02  0.45594000000E+02  0.51100000000E-03 0. -1.
         11   -1    0    0    0    0 -0.00000000000E+00 -0.00000000000E+00 -0.45593999997E+02  0.45594000000E+02  0.51100000000E-03 0.  1.
    9900012    2    1    2    0    0  0.21009285319E+02  0.33357709505E+02 -0.18152038815E+02  0.47787269981E+02  0.19999995151E+02 0.  0.
         12    1    1    2    0    0 -0.21009285319E+02 -0.33357709505E+02  0.18152038815E+02  0.43400730019E+02  0.00000000000E+00 0. -1.
         11    1    3    3    0    0  0.32578798755E+00  0.21624717635E+01 -0.31333256120E+01  0.38210144717E+01  0.51100000000E-03 0. -1.
        -11    1    3    3    0    0  0.13865404567E+02  0.19937619435E+02 -0.18292933611E+02  0.30403774978E+02  0.51100000000E-03 0.  1.
         12    1    3    3    0    0  0.68180927645E+01  0.11257618306E+02  0.32742204082E+01  0.13562480531E+02  0.00000000000E+00 0. -1.
</event>
<event>
 7    1  0.4875579E-009  0.4778727E+02  0.7816164E-02  0.1312668E+00
        -11   -1    0    0    0    0  0.00000000000E+00  0.00000000000E+00  0.45593999997E+02  0.45594000000E+02  0.51100000000E-03 0. -1.
         11   -1    0    0    0    0 -0.00000000000E+00 -0.00000000000E+00 -0.45593999997E+02  0.45594000000E+02  0.51100000000E-03 0.  1.
    9900012    2    1    2    0    0 -0.15723276988E+02 -0.34859291133E+02 -0.20523925991E+02  0.47787272407E+02  0.20000006212E+02 0.  0.
         12    1    1    2    0    0  0.15723276988E+02  0.34859291133E+02  0.20523925991E+02  0.43400727593E+02  0.00000000000E+00 0. -1.
         11    1    3    3    0    0 -0.33710599614E+01 -0.13479967903E+02 -0.66280626621E+01  0.15394960047E+02  0.51100000000E-03 0. -1.
        -11    1    3    3    0    0 -0.81937497095E+01 -0.20085350908E+02 -0.46688388042E+01  0.22189116960E+02  0.51100000000E-03 0.  1.
         12    1    3    3    0    0 -0.41584673168E+01 -0.12939723215E+01 -0.92270245248E+01  0.10203195400E+02  0.00000000000E+00 0. -1.
</event>
<event>
 7    1  0.4875579E-009  0.4778727E+02  0.7816164E-02  0.1312668E+00
        -11   -1    0    0    0    0  0.00000000000E+00  0.00000000000E+00  0.45593999997E+02  0.45594000000E+02  0.51100000000E-03 0. -1.
         11   -1    0    0    0    0 -0.00000000000E+00 -0.00000000000E+00 -0.45593999997E+02  0.45594000000E+02  0.51100000000E-03 0.  1.
    9900012    2    1    2    0    0  0.79545542424E+01  0.18819040643E+02 -0.38290886818E+02  0.47787271467E+02  0.20000001926E+02 0.  0.
         12    1    1    2    0    0 -0.79545542424E+01 -0.18819040643E+02  0.38290886818E+02  0.43400728533E+02  0.00000000000E+00 0. -1.
         11    1    3    3    0    0  0.35829333852E+01 -0.32840094538E+01 -0.58634407440E+01  0.76159088332E+01  0.51100000000E-03 0. -1.
        -11    1    3    3    0    0  0.99053588047E+00  0.53025573344E+01 -0.14017146986E+02  0.15019277130E+02  0.51100000000E-03 0.  1.
        -12    1    3    3    0    0  0.33810849767E+01  0.16800492762E+02 -0.18410299087E+02  0.25152085503E+02  0.00000000000E+00 0.  1.
</event>
<event>
 7    1  0.4875579E-009  0.4778726E+02  0.7816164E-02  0.1312668E+00
        -11   -1    0    0    0    0  0.00000000000E+00  0.00000000000E+00  0.45593999997E+02  0.45594000000E+02  0.51100000000E-03 0.  1.
         11   -1    0    0    0    0 -0.00000000000E+00 -0.00000000000E+00 -0.45593999997E+02  0.45594000000E+02  0.51100000000E-03 0. -1.
    9900012    2    1    2    0    0 -0.13371176037E+02  0.12741356767E+02  0.39274588594E+02  0.47787264637E+02  0.19999970784E+02 0.  0.
         12    1    1    2    0    0  0.13371176037E+02 -0.12741356767E+02 -0.39274588594E+02  0.43400735363E+02  0.00000000000E+00 0. -1.
         11    1    3    3    0    0 -0.37209771507E+01 -0.36567514205E+01  0.92589563835E+01  0.10627595000E+02  0.51100000000E-03 0. -1.
        -11    1    3    3    0    0 -0.41586686320E+01  0.39976409010E+00  0.10689522156E+02  0.11476942986E+02  0.51100000000E-03 0.  1.
         12    1    3    3    0    0 -0.54915302541E+01  0.15998344097E+02  0.19326110054E+02  0.25682726651E+02  0.00000000000E+00 0. -1.
</event>
<event>
 7    1  0.4875579E-009  0.4778727E+02  0.7816164E-02  0.1312668E+00
        -11   -1    0    0    0    0  0.00000000000E+00  0.00000000000E+00  0.45593999997E+02  0.45594000000E+02  0.51100000000E-03 0.  1.
         11   -1    0    0    0    0 -0.00000000000E+00 -0.00000000000E+00 -0.45593999997E+02  0.45594000000E+02  0.51100000000E-03 0. -1.
    9900012    2    1    2    0    0 -0.37893518712E+02 -0.14056828197E+02  0.15814866962E+02  0.47787271937E+02  0.20000004069E+02 0.  0.
         12    1    1    2    0    0  0.37893518712E+02  0.14056828197E+02 -0.15814866962E+02  0.43400728063E+02  0.00000000000E+00 0. -1.
         11    1    3    3    0    0 -0.24546640521E+01  0.78081201265E-01 -0.94810027001E+00  0.26325589577E+01  0.51100000000E-03 0.  1.
        -11    1    3    3    0    0 -0.23383974545E+02 -0.37810278612E+01  0.17174077188E+02  0.29258423825E+02  0.51100000000E-03 0. -1.
         12    1    3    3    0    0 -0.12054880116E+02 -0.10353881537E+02 -0.41110995559E+00  0.15896289154E+02  0.00000000000E+00 0. -1.
</event>
<event>
 7    1  0.4875579E-009  0.4778727E+02  0.7816164E-02  0.1312668E+00
        -11   -1    0    0    0    0  0.00000000000E+00  0.00000000000E+00  0.45593999997E+02  0.45594000000E+02  0.51100000000E-03 0. -1.
         11   -1    0    0    0    0 -0.00000000000E+00 -0.00000000000E+00 -0.45593999997E+02  0.45594000000E+02  0.51100000000E-03 0.  1.
    9900012    2    1    2    0    0 -0.37266571763E+01  0.18124388298E+02 -0.39258655085E+02  0.47787269315E+02  0.19999992115E+02 0.  0.
         12    1    1    2    0    0  0.37266571763E+01 -0.18124388298E+02  0.39258655085E+02  0.43400730685E+02  0.00000000000E+00 0. -1.
         11    1    3    3    0    0  0.28828607527E+01  0.31820068004E+01 -0.11843591138E+02  0.12597884930E+02  0.51100000000E-03 0. -1.
        -11    1    3    3    0    0 -0.36360846332E+01 -0.23241529199E+01 -0.75957888805E+01  0.87360636006E+01  0.51100000000E-03 0.  1.
         12    1    3    3    0    0 -0.29734332958E+01  0.17266534418E+02 -0.19819275067E+02  0.26453320785E+02  0.00000000000E+00 0. -1.
</event>
<event>
 7    1  0.4875579E-009  0.4778727E+02  0.7816164E-02  0.1312668E+00
        -11   -1    0    0    0    0  0.00000000000E+00  0.00000000000E+00  0.45593999997E+02  0.45594000000E+02  0.51100000000E-03 0.  1.
         11   -1    0    0    0    0 -0.00000000000E+00 -0.00000000000E+00 -0.45593999997E+02  0.45594000000E+02  0.51100000000E-03 0. -1.
    9900012    2    1    2    0    0 -0.93462876920E+01 -0.95695093337E+01  0.41287945781E+02  0.47787273401E+02  0.20000010743E+02 0.  0.
         12    1    1    2    0    0  0.93462876920E+01  0.95695093337E+01 -0.41287945781E+02  0.43400726599E+02  0.00000000000E+00 0. -1.
         11    1    3    3    0    0  0.33530302152E+01 -0.59995232816E-01  0.80183390533E+01  0.86913849579E+01  0.51100000000E-03 0. -1.
        -11    1    3    3    0    0 -0.66677659378E+01  0.21711230880E+01  0.82069445100E+01  0.10794758752E+02  0.51100000000E-03 0.  1.
         12    1    3    3    0    0 -0.60315519693E+01 -0.11680637189E+02  0.25062662218E+02  0.28301129691E+02  0.00000000000E+00 0. -1.
</event>
<event>
 7    1  0.4875579E-009  0.4778727E+02  0.7816164E-02  0.1312668E+00
        -11   -1    0    0    0    0  0.00000000000E+00  0.00000000000E+00  0.45593999997E+02  0.45594000000E+02  0.51100000000E-03 0.  1.
         11   -1    0    0    0    0 -0.00000000000E+00 -0.00000000000E+00 -0.45593999997E+02  0.45594000000E+02  0.51100000000E-03 0. -1.
    9900012    2    1    2    0    0  0.37097230497E+02  0.83502667364E+01  0.20921091515E+02  0.47787268032E+02  0.19999986267E+02 0.  0.
         12    1    1    2    0    0 -0.37097230497E+02 -0.83502667364E+01 -0.20921091515E+02  0.43400731968E+02  0.00000000000E+00 0. -1.
         11    1    3    3    0    0  0.24889028945E+01 -0.28331781152E+01  0.29300809306E+01  0.47756581087E+01  0.51100000000E-03 0. -1.
        -11    1    3    3    0    0  0.30882553619E+02  0.43091751218E+01  0.15377698780E+02  0.34767437759E+02  0.51100000000E-03 0.  1.
         12    1    3    3    0    0  0.37257739831E+01  0.68742697298E+01  0.26133118047E+01  0.82441721647E+01  0.00000000000E+00 0. -1.
</event>
<event>
 7    1  0.4875579E-009  0.4778727E+02  0.7816164E-02  0.1312668E+00
        -11   -1    0    0    0    0  0.00000000000E+00  0.00000000000E+00  0.45593999997E+02  0.45594000000E+02  0.51100000000E-03 0.  1.
         11   -1    0    0    0    0 -0.00000000000E+00 -0.00000000000E+00 -0.45593999997E+02  0.45594000000E+02  0.51100000000E-03 0. -1.
    9900012    2    1    2    0    0  0.17562650607E+02  0.27584256160E+02  0.28535684936E+02  0.47787271907E+02  0.20000003932E+02 0.  0.
         12    1    1    2    0    0 -0.17562650607E+02 -0.27584256160E+02 -0.28535684936E+02  0.43400728093E+02  0.00000000000E+00 0. -1.
         11    1    3    3    0    0  0.48457066545E+01  0.21682617890E+01  0.84839671278E+00  0.53760589107E+01  0.51100000000E-03 0. -1.
        -11    1    3    3    0    0 -0.33329096863E+01  0.49456915530E+01  0.36423438150E+01  0.69881915144E+01  0.51100000000E-03 0.  1.
         12    1    3    3    0    0  0.16049853638E+02  0.20470302818E+02  0.24044944409E+02  0.35423021482E+02  0.00000000000E+00 0. -1.
</event>
<event>
 7    1  0.4875579E-009  0.4778728E+02  0.7816164E-02  0.1312668E+00
        -11   -1    0    0    0    0  0.00000000000E+00  0.00000000000E+00  0.45593999997E+02  0.45594000000E+02  0.51100000000E-03 0.  1.
         11   -1    0    0    0    0 -0.00000000000E+00 -0.00000000000E+00 -0.45593999997E+02  0.45594000000E+02  0.51100000000E-03 0. -1.
    9900012    2    1    2    0    0  0.54669747027E+01  0.15315223615E+02  0.40239023821E+02  0.47787275066E+02  0.20000018334E+02 0.  0.
         12    1    1    2    0    0 -0.54669747027E+01 -0.15315223615E+02 -0.40239023821E+02  0.43400724934E+02  0.00000000000E+00 0. -1.
         11    1    3    3    0    0  0.47026679227E+01  0.52021769064E+00  0.77883514989E+01  0.91128552808E+01  0.51100000000E-03 0.  1.
        -11    1    3    3    0    0  0.32503930038E+01 -0.21233432652E+01  0.49523518793E+01  0.62928078549E+01  0.51100000000E-03 0. -1.
         12    1    3    3    0    0 -0.24860862238E+01  0.16918349189E+02  0.27498320443E+02  0.32381611930E+02  0.00000000000E+00 0. -1.
</event>
<event>
 7    1  0.4875579E-009  0.4778727E+02  0.7816164E-02  0.1312668E+00
        -11   -1    0    0    0    0  0.00000000000E+00  0.00000000000E+00  0.45593999997E+02  0.45594000000E+02  0.51100000000E-03 0. -1.
         11   -1    0    0    0    0 -0.00000000000E+00 -0.00000000000E+00 -0.45593999997E+02  0.45594000000E+02  0.51100000000E-03 0.  1.
    9900012    2    1    2    0    0 -0.86313868022E+01  0.29346078951E+02 -0.30788477862E+02  0.47787267783E+02  0.19999985128E+02 0.  0.
         12    1    1    2    0    0  0.86313868022E+01 -0.29346078951E+02  0.30788477862E+02  0.43400732217E+02  0.00000000000E+00 0. -1.
         11    1    3    3    0    0  0.15750196477E+01  0.31485348967E+01  0.14963902584E+01  0.38253291300E+01  0.51100000000E-03 0. -1.
        -11    1    3    3    0    0  0.16332089853E+01  0.58934129435E+01 -0.46437606008E+01  0.76788150447E+01  0.51100000000E-03 0.  1.
        -12    1    3    3    0    0 -0.11839615435E+02  0.20304131111E+02 -0.27641107520E+02  0.36283123608E+02  0.00000000000E+00 0.  1.
</event>
<event>
 7    1  0.4875579E-009  0.4778726E+02  0.7816164E-02  0.1312668E+00
        -11   -1    0    0    0    0  0.00000000000E+00  0.00000000000E+00  0.45593999997E+02  0.45594000000E+02  0.51100000000E-03 0. -1.
         11   -1    0    0    0    0 -0.00000000000E+00 -0.00000000000E+00 -0.45593999997E+02  0.45594000000E+02  0.51100000000E-03 0.  1.
    9900012    2    1    2    0    0 -0.17085331964E+02  0.24282070795E+02 -0.31655906627E+02  0.47787263199E+02  0.19999964231E+02 0.  0.
         12    1    1    2    0    0  0.17085331964E+02 -0.24282070795E+02  0.31655906627E+02  0.43400736801E+02  0.00000000000E+00 0. -1.
         11    1    3    3    0    0 -0.17503700828E+01  0.54544924623E+01 -0.72159294458E+01  0.92133013342E+01  0.51100000000E-03 0. -1.
        -11    1    3    3    0    0 -0.13017042666E+02  0.12491264208E+02 -0.26002764323E+02  0.31648362264E+02  0.51100000000E-03 0.  1.
         12    1    3    3    0    0 -0.23179192157E+01  0.63363141254E+01  0.15627871418E+01  0.69255996013E+01  0.00000000000E+00 0. -1.
</event>
<event>
 7    1  0.4875579E-009  0.4778728E+02  0.7816164E-02  0.1312668E+00
        -11   -1    0    0    0    0  0.00000000000E+00  0.00000000000E+00  0.45593999997E+02  0.45594000000E+02  0.51100000000E-03 0.  1.
         11   -1    0    0    0    0 -0.00000000000E+00 -0.00000000000E+00 -0.45593999997E+02  0.45594000000E+02  0.51100000000E-03 0. -1.
    9900012    2    1    2    0    0 -0.21367397968E+01  0.21487117182E+02  0.37647853950E+02  0.47787276863E+02  0.20000026530E+02 0.  0.
         12    1    1    2    0    0  0.21367397968E+01 -0.21487117182E+02 -0.37647853950E+02  0.43400723137E+02  0.00000000000E+00 0. -1.
         11    1    3    3    0    0 -0.46276609045E+00  0.54260398950E+01  0.53932159171E+00  0.54723787732E+01  0.51100000000E-03 0. -1.
        -11    1    3    3    0    0  0.11080846851E+01  0.53208131039E+01  0.25204476072E+01  0.59909565311E+01  0.51100000000E-03 0.  1.
        -12    1    3    3    0    0 -0.27820583914E+01  0.10740264183E+02  0.34588084751E+02  0.36323941559E+02  0.00000000000E+00 0.  1.
</event>
<event>
 7    1  0.4875579E-009  0.4778727E+02  0.7816164E-02  0.1312668E+00
        -11   -1    0    0    0    0  0.00000000000E+00  0.00000000000E+00  0.45593999997E+02  0.45594000000E+02  0.51100000000E-03 0.  1.
         11   -1    0    0    0    0 -0.00000000000E+00 -0.00000000000E+00 -0.45593999997E+02  0.45594000000E+02  0.51100000000E-03 0. -1.
    9900012    2    1    2    0    0 -0.11229748168E+02 -0.41706811911E+02  0.42494703728E+01  0.47787269566E+02  0.19999993260E+02 0.  0.
         12    1    1    2    0    0  0.11229748168E+02  0.41706811911E+02 -0.42494703728E+01  0.43400730434E+02  0.00000000000E+00 0. -1.
         11    1    3    3    0    0  0.19327093453E+01 -0.36399378417E+01 -0.13501529916E+01  0.43367529635E+01  0.51100000000E-03 0. -1.
        -11    1    3    3    0    0 -0.38603913992E+01 -0.15820897104E+02 -0.51081444551E+01  0.17067411841E+02  0.51100000000E-03 0.  1.
        -12    1    3    3    0    0 -0.93020661145E+01 -0.22245976966E+02  0.10707767820E+02  0.26383104761E+02  0.00000000000E+00 0.  1.
</event>
<event>
 7    1  0.4875579E-009  0.4778727E+02  0.7816164E-02  0.1312668E+00
        -11   -1    0    0    0    0  0.00000000000E+00  0.00000000000E+00  0.45593999997E+02  0.45594000000E+02  0.51100000000E-03 0. -1.
         11   -1    0    0    0    0 -0.00000000000E+00 -0.00000000000E+00 -0.45593999997E+02  0.45594000000E+02  0.51100000000E-03 0.  1.
    9900012    2    1    2    0    0 -0.28007164291E+02 -0.17618503054E+02 -0.28085763756E+02  0.47787273886E+02  0.20000012957E+02 0.  0.
         12    1    1    2    0    0  0.28007164291E+02  0.17618503054E+02  0.28085763756E+02  0.43400726114E+02  0.00000000000E+00 0. -1.
         11    1    3    3    0    0 -0.22078791303E+01  0.30050661854E+01 -0.16436548794E+01  0.40751386058E+01  0.51100000000E-03 0. -1.
        -11    1    3    3    0    0 -0.14059276658E+02 -0.61726495148E+01 -0.16746257544E+02  0.22720079317E+02  0.51100000000E-03 0.  1.
        -12    1    3    3    0    0 -0.11740008503E+02 -0.14450919724E+02 -0.96958513318E+01  0.20992055963E+02  0.00000000000E+00 0.  1.
</event>
<event>
 7    1  0.4875579E-009  0.4778727E+02  0.7816164E-02  0.1312668E+00
        -11   -1    0    0    0    0  0.00000000000E+00  0.00000000000E+00  0.45593999997E+02  0.45594000000E+02  0.51100000000E-03 0. -1.
         11   -1    0    0    0    0 -0.00000000000E+00 -0.00000000000E+00 -0.45593999997E+02  0.45594000000E+02  0.51100000000E-03 0.  1.
    9900012    2    1    2    0    0 -0.42795233005E+02 -0.35393163376E+01 -0.62979855290E+01  0.47787270169E+02  0.19999996009E+02 0.  0.
         12    1    1    2    0    0  0.42795233005E+02  0.35393163376E+01  0.62979855290E+01  0.43400729831E+02  0.00000000000E+00 0. -1.
         11    1    3    3    0    0 -0.29371934000E+02 -0.39118200133E+01  0.31159055130E+01  0.29794659088E+02  0.51100000000E-03 0. -1.
        -11    1    3    3    0    0 -0.10814457809E+02  0.43947217739E+00 -0.32528066944E+01  0.11301609848E+02  0.51100000000E-03 0.  1.
         12    1    3    3    0    0 -0.26088411956E+01 -0.66968501684E-01 -0.61610843476E+01  0.66910012332E+01  0.00000000000E+00 0. -1.
</event>
<event>
 7    1  0.4875579E-009  0.4778727E+02  0.7816164E-02  0.1312668E+00
        -11   -1    0    0    0    0  0.00000000000E+00  0.00000000000E+00  0.45593999997E+02  0.45594000000E+02  0.51100000000E-03 0. -1.
         11   -1    0    0    0    0 -0.00000000000E+00 -0.00000000000E+00 -0.45593999997E+02  0.45594000000E+02  0.51100000000E-03 0.  1.
    9900012    2    1    2    0    0 -0.26461131350E+02  0.29097601831E+02  0.18351050259E+02  0.47787274773E+02  0.20000017000E+02 0.  0.
         12    1    1    2    0    0  0.26461131350E+02 -0.29097601831E+02 -0.18351050259E+02  0.43400725227E+02  0.00000000000E+00 0. -1.
         11    1    3    3    0    0  0.87852787808E-01  0.47963472922E+01  0.23140467734E+01  0.53261128594E+01  0.51100000000E-03 0. -1.
        -11    1    3    3    0    0 -0.12316564330E+02  0.46635737217E+01  0.12112213913E+02  0.17892803103E+02  0.51100000000E-03 0.  1.
        -12    1    3    3    0    0 -0.14232419808E+02  0.19637680817E+02  0.39247895724E+01  0.24568358810E+02  0.00000000000E+00 0.  1.
</event>
<event>
 7    1  0.4875579E-009  0.4778727E+02  0.7816164E-02  0.1312668E+00
        -11   -1    0    0    0    0  0.00000000000E+00  0.00000000000E+00  0.45593999997E+02  0.45594000000E+02  0.51100000000E-03 0. -1.
         11   -1    0    0    0    0 -0.00000000000E+00 -0.00000000000E+00 -0.45593999997E+02  0.45594000000E+02  0.51100000000E-03 0.  1.
    9900012    2    1    2    0    0  0.43237324369E+02  0.37275754337E+01 -0.51256217841E+00  0.47787265476E+02  0.19999974612E+02 0.  0.
         12    1    1    2    0    0 -0.43237324369E+02 -0.37275754337E+01  0.51256217841E+00  0.43400734524E+02  0.00000000000E+00 0. -1.
         11    1    3    3    0    0  0.23239512516E+02 -0.24963488817E+01  0.74475318345E+01  0.24531050333E+02  0.51100000000E-03 0. -1.
        -11    1    3    3    0    0  0.10485649436E+02  0.10090045998E+01 -0.15267840701E+01  0.10644153523E+02  0.51100000000E-03 0.  1.
         12    1    3    3    0    0  0.95121624171E+01  0.52149197156E+01 -0.64333099428E+01  0.12612061620E+02  0.00000000000E+00 0. -1.
</event>
<event>
 7    1  0.4875579E-009  0.4778727E+02  0.7816164E-02  0.1312668E+00
        -11   -1    0    0    0    0  0.00000000000E+00  0.00000000000E+00  0.45593999997E+02  0.45594000000E+02  0.51100000000E-03 0. -1.
         11   -1    0    0    0    0 -0.00000000000E+00 -0.00000000000E+00 -0.45593999997E+02  0.45594000000E+02  0.51100000000E-03 0.  1.
    9900012    2    1    2    0    0  0.22102798154E+02  0.36499143292E+02  0.79310906837E+01  0.47787270205E+02  0.19999996174E+02 0.  0.
         12    1    1    2    0    0 -0.22102798154E+02 -0.36499143292E+02 -0.79310906837E+01  0.43400729795E+02  0.00000000000E+00 0. -1.
         11    1    3    3    0    0  0.32190403503E+01  0.37689005876E+01 -0.65388443458E+00  0.49994397217E+01  0.51100000000E-03 0. -1.
        -11    1    3    3    0    0  0.19833495202E+02  0.22755052293E+02  0.96765340865E+00  0.30200931942E+02  0.51100000000E-03 0.  1.
         12    1    3    3    0    0 -0.94973739801E+00  0.99751904109E+01  0.76173217096E+01  0.12586898541E+02  0.00000000000E+00 0. -1.
</event>
<event>
 7    1  0.4875579E-009  0.4778725E+02  0.7816164E-02  0.1312668E+00
        -11   -1    0    0    0    0  0.00000000000E+00  0.00000000000E+00  0.45593999997E+02  0.45594000000E+02  0.51100000000E-03 0.  1.
         11   -1    0    0    0    0 -0.00000000000E+00 -0.00000000000E+00 -0.45593999997E+02  0.45594000000E+02  0.51100000000E-03 0. -1.
    9900012    2    1    2    0    0 -0.15683930681E+02  0.56958567334E+01  0.40064907331E+02  0.47787248106E+02  0.19999895415E+02 0.  0.
         12    1    1    2    0    0  0.15683930681E+02 -0.56958567334E+01 -0.40064907331E+02  0.43400751894E+02  0.00000000000E+00 0. -1.
         11    1    3    3    0    0  0.49342115413E+00  0.54569762861E+01  0.44216604993E+01  0.70408193028E+01  0.51100000000E-03 0. -1.
        -11    1    3    3    0    0 -0.15734457411E+01  0.42231176212E+01  0.65506297493E+01  0.79511762851E+01  0.51100000000E-03 0.  1.
         12    1    3    3    0    0 -0.14603906094E+02 -0.39842371739E+01  0.29092617082E+02  0.32795252518E+02  0.00000000000E+00 0. -1.
</event>
<event>
 7    1  0.4875579E-009  0.4778726E+02  0.7816164E-02  0.1312668E+00
        -11   -1    0    0    0    0  0.00000000000E+00  0.00000000000E+00  0.45593999997E+02  0.45594000000E+02  0.51100000000E-03 0. -1.
         11   -1    0    0    0    0 -0.00000000000E+00 -0.00000000000E+00 -0.45593999997E+02  0.45594000000E+02  0.51100000000E-03 0.  1.
    9900012    2    1    2    0    0  0.24226276109E+02  0.22632136690E+01 -0.35938688129E+02  0.47787263893E+02  0.19999967392E+02 0.  0.
         12    1    1    2    0    0 -0.24226276109E+02 -0.22632136690E+01  0.35938688129E+02  0.43400736107E+02  0.00000000000E+00 0. -1.
         11    1    3    3    0    0  0.10486904484E+02 -0.16181531140E+01 -0.91233516240E+01  0.13993896179E+02  0.51100000000E-03 0. -1.
        -11    1    3    3    0    0  0.14754813198E+02  0.25158883091E+01 -0.12856785196E+02  0.19731475675E+02  0.51100000000E-03 0.  1.
         12    1    3    3    0    0 -0.10154415727E+01  0.13654784739E+01 -0.13958551309E+02  0.14061892038E+02  0.00000000000E+00 0. -1.
</event>
<event>
 7    1  0.4875579E-009  0.4778727E+02  0.7816164E-02  0.1312668E+00
        -11   -1    0    0    0    0  0.00000000000E+00  0.00000000000E+00  0.45593999997E+02  0.45594000000E+02  0.51100000000E-03 0.  1.
         11   -1    0    0    0    0 -0.00000000000E+00 -0.00000000000E+00 -0.45593999997E+02  0.45594000000E+02  0.51100000000E-03 0. -1.
    9900012    2    1    2    0    0 -0.28917253722E+01  0.43295572556E+02  0.86872221503E+00  0.47787270089E+02  0.19999995643E+02 0.  0.
         12    1    1    2    0    0  0.28917253722E+01 -0.43295572556E+02 -0.86872221503E+00  0.43400729911E+02  0.00000000000E+00 0. -1.
         11    1    3    3    0    0 -0.61370285311E+01  0.70261616635E+01  0.23573857873E+00  0.93319687018E+01  0.51100000000E-03 0. -1.
        -11    1    3    3    0    0 -0.88212255799E+00  0.82522838432E+01  0.51652794403E+01  0.97753997767E+01  0.51100000000E-03 0.  1.
         12    1    3    3    0    0  0.41274257169E+01  0.28017127049E+02 -0.45322958040E+01  0.28679901610E+02  0.00000000000E+00 0. -1.
</event>
<event>
 7    1  0.4875579E-009  0.4778727E+02  0.7816164E-02  0.1312668E+00
        -11   -1    0    0    0    0  0.00000000000E+00  0.00000000000E+00  0.45593999997E+02  0.45594000000E+02  0.51100000000E-03 0. -1.
         11   -1    0    0    0    0 -0.00000000000E+00 -0.00000000000E+00 -0.45593999997E+02  0.45594000000E+02  0.51100000000E-03 0.  1.
    9900012    2    1    2    0    0  0.41626682972E+02 -0.12246147963E+02 -0.93506146520E+00  0.47787271721E+02  0.20000003084E+02 0.  0.
         12    1    1    2    0    0 -0.41626682972E+02  0.12246147963E+02  0.93506146520E+00  0.43400728279E+02  0.00000000000E+00 0. -1.
         11    1    3    3    0    0  0.42429244228E+01 -0.26861425945E+01 -0.20917286445E+01  0.54399539225E+01  0.51100000000E-03 0. -1.
        -11    1    3    3    0    0  0.38848163033E+02 -0.99233256036E+01  0.27033881208E+01  0.40186570762E+02  0.51100000000E-03 0.  1.
         12    1    3    3    0    0 -0.14644044830E+01  0.36332023517E+00 -0.15467209415E+01  0.21607470361E+01  0.00000000000E+00 0. -1.
</event>
<event>
 7    1  0.4875579E-009  0.4778727E+02  0.7816164E-02  0.1312668E+00
        -11   -1    0    0    0    0  0.00000000000E+00  0.00000000000E+00  0.45593999997E+02  0.45594000000E+02  0.51100000000E-03 0.  1.
         11   -1    0    0    0    0 -0.00000000000E+00 -0.00000000000E+00 -0.45593999997E+02  0.45594000000E+02  0.51100000000E-03 0. -1.
    9900012    2    1    2    0    0  0.21146060597E+02  0.22556151478E+01  0.37833577434E+02  0.47787271205E+02  0.20000000731E+02 0.  0.
         12    1    1    2    0    0 -0.21146060597E+02 -0.22556151478E+01 -0.37833577434E+02  0.43400728795E+02  0.00000000000E+00 0. -1.
         11    1    3    3    0    0  0.38649881216E+01 -0.58527138929E+01  0.20103626760E+02  0.21291975067E+02  0.51100000000E-03 0.  1.
        -11    1    3    3    0    0  0.76424137265E+01  0.46826706695E+01  0.11259584978E+02  0.14391391396E+02  0.51100000000E-03 0. -1.
        -12    1    3    3    0    0  0.96386587493E+01  0.34256583712E+01  0.64703656965E+01  0.12103904742E+02  0.00000000000E+00 0.  1.
</event>
<event>
 7    1  0.4875579E-009  0.4778727E+02  0.7816164E-02  0.1312668E+00
        -11   -1    0    0    0    0  0.00000000000E+00  0.00000000000E+00  0.45593999997E+02  0.45594000000E+02  0.51100000000E-03 0.  1.
         11   -1    0    0    0    0 -0.00000000000E+00 -0.00000000000E+00 -0.45593999997E+02  0.45594000000E+02  0.51100000000E-03 0. -1.
    9900012    2    1    2    0    0  0.10240143783E+02 -0.36784746466E+02 -0.20631168041E+02  0.47787271758E+02  0.20000003251E+02 0.  0.
         12    1    1    2    0    0 -0.10240143783E+02  0.36784746466E+02  0.20631168041E+02  0.43400728242E+02  0.00000000000E+00 0. -1.
         11    1    3    3    0    0  0.14496685827E+02 -0.24965740975E+02 -0.10740234993E+02  0.30802512403E+02  0.51100000000E-03 0. -1.
        -11    1    3    3    0    0 -0.16210201007E+00 -0.56465399131E+01 -0.16085397370E+01  0.58734223753E+01  0.51100000000E-03 0.  1.
         12    1    3    3    0    0 -0.40944400339E+01 -0.61724655780E+01 -0.82823933113E+01  0.11111336979E+02  0.00000000000E+00 0. -1.
</event>
<event>
 7    1  0.4875579E-009  0.4778728E+02  0.7816164E-02  0.1312668E+00
        -11   -1    0    0    0    0  0.00000000000E+00  0.00000000000E+00  0.45593999997E+02  0.45594000000E+02  0.51100000000E-03 0.  1.
         11   -1    0    0    0    0 -0.00000000000E+00 -0.00000000000E+00 -0.45593999997E+02  0.45594000000E+02  0.51100000000E-03 0. -1.
    9900012    2    1    2    0    0  0.41666316934E+01  0.34969261047E+02  0.25365583525E+02  0.47787275750E+02  0.20000021455E+02 0.  0.
         12    1    1    2    0    0 -0.41666316934E+01 -0.34969261047E+02 -0.25365583525E+02  0.43400724250E+02  0.00000000000E+00 0. -1.
         11    1    3    3    0    0  0.96894974512E+00 -0.29029941260E+00  0.12794536839E+01  0.16309933623E+01  0.51100000000E-03 0.  1.
        -11    1    3    3    0    0 -0.55139627329E+00  0.35405853340E+02  0.23093895736E+02  0.42275365275E+02  0.51100000000E-03 0. -1.
         12    1    3    3    0    0  0.37490782216E+01 -0.14629288045E+00  0.99223410461E+00  0.38809171128E+01  0.00000000000E+00 0. -1.
</event>
<event>
 7    1  0.4875579E-009  0.4778727E+02  0.7816164E-02  0.1312668E+00
        -11   -1    0    0    0    0  0.00000000000E+00  0.00000000000E+00  0.45593999997E+02  0.45594000000E+02  0.51100000000E-03 0.  1.
         11   -1    0    0    0    0 -0.00000000000E+00 -0.00000000000E+00 -0.45593999997E+02  0.45594000000E+02  0.51100000000E-03 0. -1.
    9900012    2    1    2    0    0 -0.31726107857E+02  0.86679244741E+01  0.28318630349E+02  0.47787266604E+02  0.19999979755E+02 0.  0.
         12    1    1    2    0    0  0.31726107857E+02 -0.86679244741E+01 -0.28318630349E+02  0.43400733396E+02  0.00000000000E+00 0. -1.
         11    1    3    3    0    0 -0.12477053214E+02 -0.40219885287E+01  0.14367464460E+02  0.19449351761E+02  0.51100000000E-03 0. -1.
        -11    1    3    3    0    0 -0.13327118917E+02  0.50625589951E+01  0.11650359665E+02  0.18411205359E+02  0.51100000000E-03 0.  1.
        -12    1    3    3    0    0 -0.59219357260E+01  0.76273540078E+01  0.23008062242E+01  0.99267094842E+01  0.00000000000E+00 0.  1.
</event>
<event>
 7    1  0.4875579E-009  0.4778727E+02  0.7816164E-02  0.1312668E+00
        -11   -1    0    0    0    0  0.00000000000E+00  0.00000000000E+00  0.45593999997E+02  0.45594000000E+02  0.51100000000E-03 0.  1.
         11   -1    0    0    0    0 -0.00000000000E+00 -0.00000000000E+00 -0.45593999997E+02  0.45594000000E+02  0.51100000000E-03 0. -1.
    9900012    2    1    2    0    0 -0.99388908271E+01 -0.85662903885E+01  0.41369803704E+02  0.47787267974E+02  0.19999986000E+02 0.  0.
         12    1    1    2    0    0  0.99388908271E+01  0.85662903885E+01 -0.41369803704E+02  0.43400732026E+02  0.00000000000E+00 0. -1.
         11    1    3    3    0    0 -0.49919932261E+00 -0.28896044460E+01 -0.55870799796E+00  0.29851580706E+01  0.51100000000E-03 0. -1.
        -11    1    3    3    0    0 -0.17498417642E+01 -0.71116547022E+01  0.14015246988E+02  0.15813435023E+02  0.51100000000E-03 0.  1.
        -12    1    3    3    0    0 -0.76898497404E+01  0.14349687598E+01  0.27913264714E+02  0.28988674881E+02  0.00000000000E+00 0.  1.
</event>
<event>
 7    1  0.4875579E-009  0.4778727E+02  0.7816164E-02  0.1312668E+00
        -11   -1    0    0    0    0  0.00000000000E+00  0.00000000000E+00  0.45593999997E+02  0.45594000000E+02  0.51100000000E-03 0.  1.
         11   -1    0    0    0    0 -0.00000000000E+00 -0.00000000000E+00 -0.45593999997E+02  0.45594000000E+02  0.51100000000E-03 0. -1.
    9900012    2    1    2    0    0 -0.20355948140E+02 -0.35336384305E+02  0.14852556049E+02  0.47787273029E+02  0.20000009049E+02 0.  0.
         12    1    1    2    0    0  0.20355948140E+02  0.35336384305E+02 -0.14852556049E+02  0.43400726971E+02  0.00000000000E+00 0. -1.
         11    1    3    3    0    0 -0.15446037630E+02 -0.20533917060E+02  0.80707411884E+01  0.26932483953E+02  0.51100000000E-03 0. -1.
        -11    1    3    3    0    0 -0.88803952869E+01 -0.10143828863E+02  0.35904050834E+01  0.13951691416E+02  0.51100000000E-03 0.  1.
         12    1    3    3    0    0  0.39704847764E+01 -0.46586383811E+01  0.31914097774E+01  0.69030976592E+01  0.00000000000E+00 0. -1.
</event>
<event>
 7    1  0.4875579E-009  0.4778727E+02  0.7816164E-02  0.1312668E+00
        -11   -1    0    0    0    0  0.00000000000E+00  0.00000000000E+00  0.45593999997E+02  0.45594000000E+02  0.51100000000E-03 0. -1.
         11   -1    0    0    0    0 -0.00000000000E+00 -0.00000000000E+00 -0.45593999997E+02  0.45594000000E+02  0.51100000000E-03 0.  1.
    9900012    2    1    2    0    0 -0.34112630754E+02  0.18905352205E+02 -0.19040462712E+02  0.47787272596E+02  0.20000007073E+02 0.  0.
         12    1    1    2    0    0  0.34112630754E+02 -0.18905352205E+02  0.19040462712E+02  0.43400727404E+02  0.00000000000E+00 0. -1.
         11    1    3    3    0    0  0.40675329682E-01  0.65699611492E+01 -0.18452271295E+01  0.68242880511E+01  0.51100000000E-03 0. -1.
        -11    1    3    3    0    0 -0.94880746445E+00  0.84690205815E+00  0.78427273968E+00  0.14941762587E+01  0.51100000000E-03 0.  1.
        -12    1    3    3    0    0 -0.33204498619E+02  0.11488488997E+02 -0.17979508323E+02  0.39468808286E+02  0.00000000000E+00 0.  1.
</event>
<event>
 7    1  0.4875579E-009  0.4778728E+02  0.7816164E-02  0.1312668E+00
        -11   -1    0    0    0    0  0.00000000000E+00  0.00000000000E+00  0.45593999997E+02  0.45594000000E+02  0.51100000000E-03 0.  1.
         11   -1    0    0    0    0 -0.00000000000E+00 -0.00000000000E+00 -0.45593999997E+02  0.45594000000E+02  0.51100000000E-03 0. -1.
    9900012    2    1    2    0    0 -0.75683502727E+01 -0.41184712041E+02  0.11408871252E+02  0.47787276792E+02  0.20000026204E+02 0.  0.
         12    1    1    2    0    0  0.75683502727E+01  0.41184712041E+02 -0.11408871252E+02  0.43400723208E+02  0.00000000000E+00 0. -1.
         11    1    3    3    0    0  0.33467621716E+00 -0.13232302098E+02 -0.88450262465E+00  0.13266053375E+02  0.51100000000E-03 0. -1.
        -11    1    3    3    0    0  0.34662106665E+00 -0.17219177967E+02  0.16512398099E+01  0.17301642384E+02  0.51100000000E-03 0.  1.
         12    1    3    3    0    0 -0.82496475565E+01 -0.10733231976E+02  0.10642134066E+02  0.17219581033E+02  0.00000000000E+00 0. -1.
</event>
<event>
 7    1  0.4875579E-009  0.4778728E+02  0.7816164E-02  0.1312668E+00
        -11   -1    0    0    0    0  0.00000000000E+00  0.00000000000E+00  0.45593999997E+02  0.45594000000E+02  0.51100000000E-03 0. -1.
         11   -1    0    0    0    0 -0.00000000000E+00 -0.00000000000E+00 -0.45593999997E+02  0.45594000000E+02  0.51100000000E-03 0.  1.
    9900012    2    1    2    0    0 -0.21557360223E+02 -0.13667943662E+02 -0.35101144175E+02  0.47787276664E+02  0.20000025621E+02 0.  0.
         12    1    1    2    0    0  0.21557360223E+02  0.13667943662E+02  0.35101144175E+02  0.43400723336E+02  0.00000000000E+00 0. -1.
         11    1    3    3    0    0  0.11300317730E+01 -0.12949612654E+01 -0.14219551046E+01  0.22306620245E+01  0.51100000000E-03 0. -1.
        -11    1    3    3    0    0 -0.10000487308E+02  0.31049344213E+01 -0.92095023674E+01  0.13945081508E+02  0.51100000000E-03 0.  1.
        -12    1    3    3    0    0 -0.12686904688E+02 -0.15477916817E+02 -0.24469686703E+02  0.31611533131E+02  0.00000000000E+00 0.  1.
</event>
<event>
 7    1  0.4875579E-009  0.4778726E+02  0.7816164E-02  0.1312668E+00
        -11   -1    0    0    0    0  0.00000000000E+00  0.00000000000E+00  0.45593999997E+02  0.45594000000E+02  0.51100000000E-03 0. -1.
         11   -1    0    0    0    0 -0.00000000000E+00 -0.00000000000E+00 -0.45593999997E+02  0.45594000000E+02  0.51100000000E-03 0.  1.
    9900012    2    1    2    0    0 -0.75988243213E+01 -0.30088058256E+02 -0.30341235062E+02  0.47787263534E+02  0.19999965759E+02 0.  0.
         12    1    1    2    0    0  0.75988243213E+01  0.30088058256E+02  0.30341235062E+02  0.43400736466E+02  0.00000000000E+00 0. -1.
         11    1    3    3    0    0  0.25052826080E+01 -0.22967852594E+02 -0.17090969909E+02  0.28738475019E+02  0.51100000000E-03 0. -1.
        -11    1    3    3    0    0 -0.26750318612E+00 -0.26623566802E+01 -0.14153148796E+01  0.30270146211E+01  0.51100000000E-03 0.  1.
         12    1    3    3    0    0 -0.98366037432E+01 -0.44578489814E+01 -0.11834950273E+02  0.16021773894E+02  0.00000000000E+00 0. -1.
</event>
<event>
 7    1  0.4875579E-009  0.4778727E+02  0.7816164E-02  0.1312668E+00
        -11   -1    0    0    0    0  0.00000000000E+00  0.00000000000E+00  0.45593999997E+02  0.45594000000E+02  0.51100000000E-03 0.  1.
         11   -1    0    0    0    0 -0.00000000000E+00 -0.00000000000E+00 -0.45593999997E+02  0.45594000000E+02  0.51100000000E-03 0. -1.
    9900012    2    1    2    0    0 -0.41657284704E+02  0.10314071197E+02  0.64741169986E+01  0.47787267005E+02  0.19999981584E+02 0.  0.
         12    1    1    2    0    0  0.41657284704E+02 -0.10314071197E+02 -0.64741169986E+01  0.43400732995E+02  0.00000000000E+00 0. -1.
         11    1    3    3    0    0 -0.41042754068E+02  0.10734677569E+02  0.22008549169E+01  0.42480404031E+02  0.51100000000E-03 0. -1.
        -11    1    3    3    0    0 -0.16283678677E+01  0.29035917154E-01  0.11532677632E+01  0.19956081258E+01  0.51100000000E-03 0.  1.
         12    1    3    3    0    0  0.10138372319E+01 -0.44964228983E+00  0.31199943185E+01  0.33112548482E+01  0.00000000000E+00 0. -1.
</event>
<event>
 7    1  0.4875579E-009  0.4778727E+02  0.7816164E-02  0.1312668E+00
        -11   -1    0    0    0    0  0.00000000000E+00  0.00000000000E+00  0.45593999997E+02  0.45594000000E+02  0.51100000000E-03 0.  1.
         11   -1    0    0    0    0 -0.00000000000E+00 -0.00000000000E+00 -0.45593999997E+02  0.45594000000E+02  0.51100000000E-03 0. -1.
    9900012    2    1    2    0    0  0.80071900112E+01 -0.49161548842E+01  0.42371449152E+02  0.47787269891E+02  0.19999994742E+02 0.  0.
         12    1    1    2    0    0 -0.80071900112E+01  0.49161548842E+01 -0.42371449152E+02  0.43400730109E+02  0.00000000000E+00 0. -1.
         11    1    3    3    0    0  0.74697187235E+00 -0.32550301391E+01  0.13864525785E+00  0.33425156624E+01  0.51100000000E-03 0. -1.
        -11    1    3    3    0    0  0.41919659104E+01 -0.64954266028E+01  0.18905358245E+02  0.20424879818E+02  0.51100000000E-03 0.  1.
         12    1    3    3    0    0  0.30682522285E+01  0.48343018577E+01  0.23327445649E+02  0.24019874410E+02  0.00000000000E+00 0. -1.
</event>
<event>
 7    1  0.4875579E-009  0.4778728E+02  0.7816164E-02  0.1312668E+00
        -11   -1    0    0    0    0  0.00000000000E+00  0.00000000000E+00  0.45593999997E+02  0.45594000000E+02  0.51100000000E-03 0.  1.
         11   -1    0    0    0    0 -0.00000000000E+00 -0.00000000000E+00 -0.45593999997E+02  0.45594000000E+02  0.51100000000E-03 0. -1.
    9900012    2    1    2    0    0 -0.28947216758E+02 -0.12190571370E+02  0.29951142944E+02  0.47787281665E+02  0.20000048422E+02 0.  0.
         12    1    1    2    0    0  0.28947216758E+02  0.12190571370E+02 -0.29951142944E+02  0.43400718335E+02  0.00000000000E+00 0. -1.
         11    1    3    3    0    0 -0.48942267201E+01 -0.48220723839E+01  0.17623684850E+01  0.70930797403E+01  0.51100000000E-03 0. -1.
        -11    1    3    3    0    0 -0.20882494298E+02 -0.45511166830E+01  0.13207919661E+02  0.25124497472E+02  0.51100000000E-03 0.  1.
         12    1    3    3    0    0 -0.31704957401E+01 -0.28173823027E+01  0.14980854798E+02  0.15569704453E+02  0.00000000000E+00 0. -1.
</event>
<event>
 7    1  0.4875579E-009  0.4778727E+02  0.7816164E-02  0.1312668E+00
        -11   -1    0    0    0    0  0.00000000000E+00  0.00000000000E+00  0.45593999997E+02  0.45594000000E+02  0.51100000000E-03 0. -1.
         11   -1    0    0    0    0 -0.00000000000E+00 -0.00000000000E+00 -0.45593999997E+02  0.45594000000E+02  0.51100000000E-03 0.  1.
    9900012    2    1    2    0    0  0.37041280374E+02 -0.19915472687E+02 -0.10721035606E+02  0.47787272949E+02  0.20000008683E+02 0.  0.
         12    1    1    2    0    0 -0.37041280374E+02  0.19915472687E+02  0.10721035606E+02  0.43400727051E+02  0.00000000000E+00 0. -1.
         11    1    3    3    0    0  0.41202978881E+01 -0.20457012946E+01  0.28080038172E+01  0.53894929420E+01  0.51100000000E-03 0. -1.
        -11    1    3    3    0    0  0.88840414711E+00 -0.10671206586E+01  0.24793580545E+01  0.28416940462E+01  0.51100000000E-03 0.  1.
        -12    1    3    3    0    0  0.32032578339E+02 -0.16802650734E+02 -0.16008397478E+02  0.39556085961E+02  0.00000000000E+00 0.  1.
</event>
<event>
 7    1  0.4875579E-009  0.4778731E+02  0.7816164E-02  0.1312668E+00
        -11   -1    0    0    0    0  0.00000000000E+00  0.00000000000E+00  0.45593999997E+02  0.45594000000E+02  0.51100000000E-03 0.  1.
         11   -1    0    0    0    0 -0.00000000000E+00 -0.00000000000E+00 -0.45593999997E+02  0.45594000000E+02  0.51100000000E-03 0. -1.
    9900012    2    1    2    0    0  0.19452380267E+02  0.19796703238E+02  0.33366379621E+02  0.47787310534E+02  0.20000180046E+02 0.  0.
         12    1    1    2    0    0 -0.19452380267E+02 -0.19796703238E+02 -0.33366379621E+02  0.43400689466E+02  0.00000000000E+00 0. -1.
         11    1    3    3    0    0 -0.14578377480E+01 -0.26664292081E+00  0.62153301950E+00  0.16070758856E+01  0.51100000000E-03 0. -1.
        -11    1    3    3    0    0  0.41001737702E+01  0.64468582219E+01  0.91500380489E+00  0.76948449045E+01  0.51100000000E-03 0.  1.
        -12    1    3    3    0    0  0.16810044245E+02  0.13616487937E+02  0.31829842797E+02  0.38485389743E+02  0.00000000000E+00 0.  1.
</event>
<event>
 7    1  0.4875579E-009  0.4778727E+02  0.7816164E-02  0.1312668E+00
        -11   -1    0    0    0    0  0.00000000000E+00  0.00000000000E+00  0.45593999997E+02  0.45594000000E+02  0.51100000000E-03 0.  1.
         11   -1    0    0    0    0 -0.00000000000E+00 -0.00000000000E+00 -0.45593999997E+02  0.45594000000E+02  0.51100000000E-03 0. -1.
    9900012    2    1    2    0    0 -0.73536138462E+00 -0.11061205028E+02  0.41961077739E+02  0.47787273530E+02  0.20000011334E+02 0.  0.
         12    1    1    2    0    0  0.73536138462E+00  0.11061205028E+02 -0.41961077739E+02  0.43400726470E+02  0.00000000000E+00 0. -1.
         11    1    3    3    0    0  0.21866103204E+01  0.25462773420E+01  0.15415785534E+01  0.36934073283E+01  0.51100000000E-03 0. -1.
        -11    1    3    3    0    0  0.28766356925E+01 -0.34222162896E+01  0.20503179884E+02  0.20984922751E+02  0.51100000000E-03 0.  1.
         12    1    3    3    0    0 -0.57986073975E+01 -0.10185266081E+02  0.19916319302E+02  0.23108943451E+02  0.00000000000E+00 0. -1.
</event>
<event>
 7    1  0.4875579E-009  0.4778727E+02  0.7816164E-02  0.1312668E+00
        -11   -1    0    0    0    0  0.00000000000E+00  0.00000000000E+00  0.45593999997E+02  0.45594000000E+02  0.51100000000E-03 0. -1.
         11   -1    0    0    0    0 -0.00000000000E+00 -0.00000000000E+00 -0.45593999997E+02  0.45594000000E+02  0.51100000000E-03 0.  1.
    9900012    2    1    2    0    0 -0.12623936500E+02  0.24650913462E+02 -0.33415444592E+02  0.47787271382E+02  0.20000001541E+02 0.  0.
         12    1    1    2    0    0  0.12623936500E+02 -0.24650913462E+02  0.33415444592E+02  0.43400728618E+02  0.00000000000E+00 0. -1.
         11    1    3    3    0    0 -0.19364068085E+00 -0.98592909198E-01  0.76341496280E-01  0.23031621784E+00  0.51100000000E-03 0. -1.
        -11    1    3    3    0    0  0.24897833266E+01 -0.11990256137E+01 -0.72191654882E+01  0.77300086703E+01  0.51100000000E-03 0.  1.
        -12    1    3    3    0    0 -0.14920079145E+02  0.25948531985E+02 -0.26272620600E+02  0.39826946494E+02  0.00000000000E+00 0.  1.
</event>
<event>
 7    1  0.4875579E-009  0.4778727E+02  0.7816164E-02  0.1312668E+00
        -11   -1    0    0    0    0  0.00000000000E+00  0.00000000000E+00  0.45593999997E+02  0.45594000000E+02  0.51100000000E-03 0.  1.
         11   -1    0    0    0    0 -0.00000000000E+00 -0.00000000000E+00 -0.45593999997E+02  0.45594000000E+02  0.51100000000E-03 0. -1.
    9900012    2    1    2    0    0  0.35364852090E+02  0.24840765361E+01  0.25035571670E+02  0.47787271337E+02  0.20000001334E+02 0.  0.
         12    1    1    2    0    0 -0.35364852090E+02 -0.24840765361E+01 -0.25035571670E+02  0.43400728663E+02  0.00000000000E+00 0. -1.
         11    1    3    3    0    0  0.18365953495E+02  0.22504925879E+01  0.90304853676E+01  0.20589381508E+02  0.51100000000E-03 0.  1.
        -11    1    3    3    0    0  0.67839271991E+01  0.28548113372E+01 -0.75203323544E+00  0.73984572893E+01  0.51100000000E-03 0. -1.
         12    1    3    3    0    0  0.10214971397E+02 -0.26212273889E+01  0.16757119538E+02  0.19799432539E+02  0.00000000000E+00 0. -1.
</event>
<event>
 7    1  0.4875579E-009  0.4778727E+02  0.7816164E-02  0.1312668E+00
        -11   -1    0    0    0    0  0.00000000000E+00  0.00000000000E+00  0.45593999997E+02  0.45594000000E+02  0.51100000000E-03 0. -1.
         11   -1    0    0    0    0 -0.00000000000E+00 -0.00000000000E+00 -0.45593999997E+02  0.45594000000E+02  0.51100000000E-03 0.  1.
    9900012    2    1    2    0    0 -0.11042477535E+02 -0.36211243952E+02 -0.21223406038E+02  0.47787268871E+02  0.19999990091E+02 0.  0.
         12    1    1    2    0    0  0.11042477535E+02  0.36211243952E+02  0.21223406038E+02  0.43400731129E+02  0.00000000000E+00 0. -1.
         11    1    3    3    0    0  0.84641376928E+00 -0.21239029811E+01 -0.25552342190E+01  0.34287902119E+01  0.51100000000E-03 0. -1.
        -11    1    3    3    0    0 -0.11519079323E+02 -0.11842712739E+02 -0.21737904561E+01  0.16663264946E+02  0.51100000000E-03 0.  1.
        -12    1    3    3    0    0 -0.36981198205E+00 -0.22244628232E+02 -0.16494381363E+02  0.27695213713E+02  0.00000000000E+00 0.  1.
</event>
<event>
 7    1  0.4875579E-009  0.4778728E+02  0.7816164E-02  0.1312668E+00
        -11   -1    0    0    0    0  0.00000000000E+00  0.00000000000E+00  0.45593999997E+02  0.45594000000E+02  0.51100000000E-03 0.  1.
         11   -1    0    0    0    0 -0.00000000000E+00 -0.00000000000E+00 -0.45593999997E+02  0.45594000000E+02  0.51100000000E-03 0. -1.
    9900012    2    1    2    0    0 -0.38393544669E+02  0.18236565940E+02 -0.87741723575E+01  0.47787277540E+02  0.20000029614E+02 0.  0.
         12    1    1    2    0    0  0.38393544669E+02 -0.18236565940E+02  0.87741723575E+01  0.43400722460E+02  0.00000000000E+00 0. -1.
         11    1    3    3    0    0 -0.16445530789E+01  0.47807619175E+01 -0.25602265381E+01  0.56670097519E+01  0.51100000000E-03 0. -1.
        -11    1    3    3    0    0 -0.40884839040E+01  0.52953964568E+01  0.28270113920E+01  0.72628450307E+01  0.51100000000E-03 0.  1.
        -12    1    3    3    0    0 -0.32660507686E+02  0.81604075652E+01 -0.90409572114E+01  0.34857422757E+02  0.00000000000E+00 0.  1.
</event>
<event>
 7    1  0.4875579E-009  0.4778727E+02  0.7816164E-02  0.1312668E+00
        -11   -1    0    0    0    0  0.00000000000E+00  0.00000000000E+00  0.45593999997E+02  0.45594000000E+02  0.51100000000E-03 0.  1.
         11   -1    0    0    0    0 -0.00000000000E+00 -0.00000000000E+00 -0.45593999997E+02  0.45594000000E+02  0.51100000000E-03 0. -1.
    9900012    2    1    2    0    0  0.55237469643E+01  0.35726305348E+02  0.24015466429E+02  0.47787270719E+02  0.19999998517E+02 0.  0.
         12    1    1    2    0    0 -0.55237469643E+01 -0.35726305348E+02 -0.24015466429E+02  0.43400729281E+02  0.00000000000E+00 0. -1.
         11    1    3    3    0    0 -0.28548036394E+01  0.70084414755E+01 -0.21163025560E+00  0.75705312470E+01  0.51100000000E-03 0. -1.
        -11    1    3    3    0    0  0.34717188557E+01  0.26202189600E+02  0.21466200297E+02  0.34050041514E+02  0.51100000000E-03 0.  1.
         12    1    3    3    0    0  0.49068317480E+01  0.25156742724E+01  0.27608963876E+01  0.61666979584E+01  0.00000000000E+00 0. -1.
</event>
<event>
 7    1  0.4875579E-009  0.4778727E+02  0.7816164E-02  0.1312668E+00
        -11   -1    0    0    0    0  0.00000000000E+00  0.00000000000E+00  0.45593999997E+02  0.45594000000E+02  0.51100000000E-03 0.  1.
         11   -1    0    0    0    0 -0.00000000000E+00 -0.00000000000E+00 -0.45593999997E+02  0.45594000000E+02  0.51100000000E-03 0. -1.
    9900012    2    1    2    0    0  0.20802276943E+02 -0.57469278681E+01  0.37654499722E+02  0.47787271259E+02  0.20000000979E+02 0.  0.
         12    1    1    2    0    0 -0.20802276943E+02  0.57469278681E+01 -0.37654499722E+02  0.43400728741E+02  0.00000000000E+00 0. -1.
         11    1    3    3    0    0  0.50008362818E+01  0.89118561919E+00  0.24052288588E+01  0.56202937156E+01  0.51100000000E-03 0. -1.
        -11    1    3    3    0    0  0.12457119207E+02  0.33670158532E-02  0.10396136711E+02  0.16225273157E+02  0.51100000000E-03 0.  1.
        -12    1    3    3    0    0  0.33443214543E+01 -0.66414805031E+01  0.24853134152E+02  0.25941704386E+02  0.00000000000E+00 0.  1.
</event>
<event>
 7    1  0.4875579E-009  0.4778727E+02  0.7816164E-02  0.1312668E+00
        -11   -1    0    0    0    0  0.00000000000E+00  0.00000000000E+00  0.45593999997E+02  0.45594000000E+02  0.51100000000E-03 0.  1.
         11   -1    0    0    0    0 -0.00000000000E+00 -0.00000000000E+00 -0.45593999997E+02  0.45594000000E+02  0.51100000000E-03 0. -1.
    9900012    2    1    2    0    0 -0.16712713156E+01  0.94813494029E+01  0.42319429739E+02  0.47787271115E+02  0.20000000322E+02 0.  0.
         12    1    1    2    0    0  0.16712713156E+01 -0.94813494029E+01 -0.42319429739E+02  0.43400728885E+02  0.00000000000E+00 0. -1.
         11    1    3    3    0    0  0.18304350083E-01  0.36652489467E+01  0.10632663386E+02  0.11246684659E+02  0.51100000000E-03 0. -1.
        -11    1    3    3    0    0 -0.84157417320E+01 -0.11526723282E+01  0.15624383135E+02  0.17784114007E+02  0.51100000000E-03 0.  1.
        -12    1    3    3    0    0  0.67261660663E+01  0.69687727844E+01  0.16062383219E+02  0.18756472449E+02  0.00000000000E+00 0.  1.
</event>
<event>
 7    1  0.4875579E-009  0.4778727E+02  0.7816164E-02  0.1312668E+00
        -11   -1    0    0    0    0  0.00000000000E+00  0.00000000000E+00  0.45593999997E+02  0.45594000000E+02  0.51100000000E-03 0.  1.
         11   -1    0    0    0    0 -0.00000000000E+00 -0.00000000000E+00 -0.45593999997E+02  0.45594000000E+02  0.51100000000E-03 0. -1.
    9900012    2    1    2    0    0 -0.15389702361E+02 -0.40466214503E+02 -0.30439890832E+01  0.47787270462E+02  0.19999997343E+02 0.  0.
         12    1    1    2    0    0  0.15389702361E+02  0.40466214503E+02  0.30439890832E+01  0.43400729538E+02  0.00000000000E+00 0. -1.
         11    1    3    3    0    0  0.26278148919E+00 -0.43470635238E+01  0.29724397442E+01  0.52727045892E+01  0.51100000000E-03 0. -1.
        -11    1    3    3    0    0  0.20684388042E+01 -0.65204709289E+01  0.19409449073E+01  0.71107135799E+01  0.51100000000E-03 0.  1.
        -12    1    3    3    0    0 -0.17720922654E+02 -0.29598680050E+02 -0.79573737347E+01  0.35403852293E+02  0.00000000000E+00 0.  1.
</event>
<event>
 7    1  0.4875579E-009  0.4778728E+02  0.7816164E-02  0.1312668E+00
        -11   -1    0    0    0    0  0.00000000000E+00  0.00000000000E+00  0.45593999997E+02  0.45594000000E+02  0.51100000000E-03 0. -1.
         11   -1    0    0    0    0 -0.00000000000E+00 -0.00000000000E+00 -0.45593999997E+02  0.45594000000E+02  0.51100000000E-03 0.  1.
    9900012    2    1    2    0    0  0.50172935651E+01 -0.43049732581E+02 -0.22738032017E+01  0.47787275455E+02  0.20000020111E+02 0.  0.
         12    1    1    2    0    0 -0.50172935651E+01  0.43049732581E+02  0.22738032017E+01  0.43400724545E+02  0.00000000000E+00 0. -1.
         11    1    3    3    0    0  0.61921612844E+00 -0.17419484771E+02  0.53950195681E+01  0.18246317839E+02  0.51100000000E-03 0. -1.
        -11    1    3    3    0    0  0.27035260497E+01 -0.41711948893E+00  0.86478467118E+00  0.28689535650E+01  0.51100000000E-03 0.  1.
        -12    1    3    3    0    0  0.16945513870E+01 -0.25213128321E+02 -0.85336074409E+01  0.26672004051E+02  0.00000000000E+00 0.  1.
</event>
<event>
 7    1  0.4875579E-009  0.4778727E+02  0.7816164E-02  0.1312668E+00
        -11   -1    0    0    0    0  0.00000000000E+00  0.00000000000E+00  0.45593999997E+02  0.45594000000E+02  0.51100000000E-03 0. -1.
         11   -1    0    0    0    0 -0.00000000000E+00 -0.00000000000E+00 -0.45593999997E+02  0.45594000000E+02  0.51100000000E-03 0.  1.
    9900012    2    1    2    0    0  0.26481550857E+02 -0.39101262097E+01 -0.34162285024E+02  0.47787270273E+02  0.19999996482E+02 0.  0.
         12    1    1    2    0    0 -0.26481550857E+02  0.39101262097E+01  0.34162285024E+02  0.43400729727E+02  0.00000000000E+00 0. -1.
         11    1    3    3    0    0  0.20876176324E+02 -0.19194540771E+01 -0.17675483768E+02  0.27421191961E+02  0.51100000000E-03 0. -1.
        -11    1    3    3    0    0  0.76401976113E+01 -0.43080622616E+01 -0.10965502250E+02  0.14041875225E+02  0.51100000000E-03 0.  1.
        -12    1    3    3    0    0 -0.20348230777E+01  0.23173901290E+01 -0.55212990061E+01  0.63242030867E+01  0.00000000000E+00 0.  1.
</event>
<event>
 7    1  0.4875579E-009  0.4778727E+02  0.7816164E-02  0.1312668E+00
        -11   -1    0    0    0    0  0.00000000000E+00  0.00000000000E+00  0.45593999997E+02  0.45594000000E+02  0.51100000000E-03 0.  1.
         11   -1    0    0    0    0 -0.00000000000E+00 -0.00000000000E+00 -0.45593999997E+02  0.45594000000E+02  0.51100000000E-03 0. -1.
    9900012    2    1    2    0    0 -0.32782747159E+01  0.14585972355E+02  0.40744640428E+02  0.47787269612E+02  0.19999993467E+02 0.  0.
         12    1    1    2    0    0  0.32782747159E+01 -0.14585972355E+02 -0.40744640428E+02  0.43400730388E+02  0.00000000000E+00 0. -1.
         11    1    3    3    0    0  0.24156879650E+01  0.59759234386E+00  0.19251272619E+01  0.31462326979E+01  0.51100000000E-03 0. -1.
        -11    1    3    3    0    0 -0.10009766439E+02  0.97463335637E+01  0.17033304053E+02  0.22029977062E+02  0.51100000000E-03 0.  1.
         12    1    3    3    0    0  0.43158037583E+01  0.42420464479E+01  0.21786209112E+02  0.22611059852E+02  0.00000000000E+00 0. -1.
</event>
<event>
 7    1  0.4875579E-009  0.4778724E+02  0.7816164E-02  0.1312668E+00
        -11   -1    0    0    0    0  0.00000000000E+00  0.00000000000E+00  0.45593999997E+02  0.45594000000E+02  0.51100000000E-03 0.  1.
         11   -1    0    0    0    0 -0.00000000000E+00 -0.00000000000E+00 -0.45593999997E+02  0.45594000000E+02  0.51100000000E-03 0. -1.
    9900012    2    1    2    0    0  0.23758591957E+02 -0.21131302281E+02  0.29540194835E+02  0.47787242648E+02  0.19999870527E+02 0.  0.
         12    1    1    2    0    0 -0.23758591957E+02  0.21131302281E+02 -0.29540194835E+02  0.43400757352E+02  0.00000000000E+00 0. -1.
         11    1    3    3    0    0  0.11984350241E+02 -0.41592810397E+01  0.73790145496E+01  0.14675630326E+02  0.51100000000E-03 0. -1.
        -11    1    3    3    0    0  0.11968226193E+02 -0.12374078406E+02  0.95489554450E+01  0.19686005307E+02  0.51100000000E-03 0.  1.
        -12    1    3    3    0    0 -0.19398447698E+00 -0.45979428355E+01  0.12612224840E+02  0.13425607015E+02  0.00000000000E+00 0.  1.
</event>
<event>
 7    1  0.4875579E-009  0.4778728E+02  0.7816164E-02  0.1312668E+00
        -11   -1    0    0    0    0  0.00000000000E+00  0.00000000000E+00  0.45593999997E+02  0.45594000000E+02  0.51100000000E-03 0.  1.
         11   -1    0    0    0    0 -0.00000000000E+00 -0.00000000000E+00 -0.45593999997E+02  0.45594000000E+02  0.51100000000E-03 0. -1.
    9900012    2    1    2    0    0  0.35898270309E+02 -0.48837131775E+01  0.23897413026E+02  0.47787276332E+02  0.20000024107E+02 0.  0.
         12    1    1    2    0    0 -0.35898270309E+02  0.48837131775E+01 -0.23897413026E+02  0.43400723668E+02  0.00000000000E+00 0. -1.
         11    1    3    3    0    0  0.18091972916E+02  0.53497661683E+01  0.11042790021E+02  0.21860528213E+02  0.51100000000E-03 0.  1.
        -11    1    3    3    0    0  0.48044940953E+01  0.14587303391E+01  0.31715618360E+01  0.59388435284E+01  0.51100000000E-03 0. -1.
        -12    1    3    3    0    0  0.13001803298E+02 -0.11692209685E+02  0.96830611687E+01  0.19987904590E+02  0.00000000000E+00 0.  1.
</event>
<event>
 7    1  0.4875579E-009  0.4778727E+02  0.7816164E-02  0.1312668E+00
        -11   -1    0    0    0    0  0.00000000000E+00  0.00000000000E+00  0.45593999997E+02  0.45594000000E+02  0.51100000000E-03 0.  1.
         11   -1    0    0    0    0 -0.00000000000E+00 -0.00000000000E+00 -0.45593999997E+02  0.45594000000E+02  0.51100000000E-03 0. -1.
    9900012    2    1    2    0    0 -0.22274426886E+02  0.21227225314E+02  0.30608465012E+02  0.47787270536E+02  0.19999997680E+02 0.  0.
         12    1    1    2    0    0  0.22274426886E+02 -0.21227225314E+02 -0.30608465012E+02  0.43400729464E+02  0.00000000000E+00 0. -1.
         11    1    3    3    0    0  0.19425274466E+01  0.13256535565E+00  0.43957543093E+01  0.48076649908E+01  0.51100000000E-03 0. -1.
        -11    1    3    3    0    0 -0.75681580928E+01  0.21464572351E+01  0.22348261710E+01  0.81779425197E+01  0.51100000000E-03 0.  1.
        -12    1    3    3    0    0 -0.16648796240E+02  0.18948202723E+02  0.23977884532E+02  0.34801663025E+02  0.00000000000E+00 0.  1.
</event>
<event>
 7    1  0.4875579E-009  0.4778727E+02  0.7816164E-02  0.1312668E+00
        -11   -1    0    0    0    0  0.00000000000E+00  0.00000000000E+00  0.45593999997E+02  0.45594000000E+02  0.51100000000E-03 0.  1.
         11   -1    0    0    0    0 -0.00000000000E+00 -0.00000000000E+00 -0.45593999997E+02  0.45594000000E+02  0.51100000000E-03 0. -1.
    9900012    2    1    2    0    0 -0.16437851612E+02 -0.30616636696E+02  0.26000807701E+02  0.47787269484E+02  0.19999992886E+02 0.  0.
         12    1    1    2    0    0  0.16437851612E+02  0.30616636696E+02 -0.26000807701E+02  0.43400730516E+02  0.00000000000E+00 0. -1.
         11    1    3    3    0    0 -0.42004971734E+01 -0.11821361899E+00 -0.41410157837E+00  0.42225148125E+01  0.51100000000E-03 0. -1.
        -11    1    3    3    0    0 -0.35902040231E+00  0.59766780209E+00 -0.41444381073E+00  0.81108962778E+00  0.51100000000E-03 0.  1.
        -12    1    3    3    0    0 -0.11878334036E+02 -0.31096090879E+02  0.26829353090E+02  0.42753665044E+02  0.00000000000E+00 0.  1.
</event>
<event>
 7    1  0.4875579E-009  0.4778727E+02  0.7816164E-02  0.1312668E+00
        -11   -1    0    0    0    0  0.00000000000E+00  0.00000000000E+00  0.45593999997E+02  0.45594000000E+02  0.51100000000E-03 0. -1.
         11   -1    0    0    0    0 -0.00000000000E+00 -0.00000000000E+00 -0.45593999997E+02  0.45594000000E+02  0.51100000000E-03 0.  1.
    9900012    2    1    2    0    0 -0.71643867745E+01  0.40148747565E+02 -0.14844969726E+02  0.47787268496E+02  0.19999988382E+02 0.  0.
         12    1    1    2    0    0  0.71643867745E+01 -0.40148747565E+02  0.14844969726E+02  0.43400731504E+02  0.00000000000E+00 0. -1.
         11    1    3    3    0    0 -0.11975037821E+01  0.21727757814E+02  0.14989218325E+01  0.21812295658E+02  0.51100000000E-03 0. -1.
        -11    1    3    3    0    0 -0.49234105416E+01  0.14518702795E+02 -0.95229843410E+01  0.18047712687E+02  0.51100000000E-03 0.  1.
        -12    1    3    3    0    0 -0.10434724508E+01  0.39022869559E+01 -0.68209072174E+01  0.79272601515E+01  0.00000000000E+00 0.  1.
</event>
<event>
 7    1  0.4875579E-009  0.4778728E+02  0.7816164E-02  0.1312668E+00
        -11   -1    0    0    0    0  0.00000000000E+00  0.00000000000E+00  0.45593999997E+02  0.45594000000E+02  0.51100000000E-03 0. -1.
         11   -1    0    0    0    0 -0.00000000000E+00 -0.00000000000E+00 -0.45593999997E+02  0.45594000000E+02  0.51100000000E-03 0.  1.
    9900012    2    1    2    0    0 -0.32879697625E+01 -0.28271344450E+01 -0.43183552244E+02  0.47787278592E+02  0.20000034410E+02 0.  0.
         12    1    1    2    0    0  0.32879697625E+01  0.28271344450E+01  0.43183552244E+02  0.43400721408E+02  0.00000000000E+00 0. -1.
         11    1    3    3    0    0  0.17556229489E+01 -0.10758554028E+01 -0.18602315417E+02  0.18715924127E+02  0.51100000000E-03 0. -1.
        -11    1    3    3    0    0  0.23371643536E+01  0.48530912698E+01 -0.11153632762E+02  0.12386216377E+02  0.51100000000E-03 0.  1.
        -12    1    3    3    0    0 -0.73807570651E+01 -0.66043703120E+01 -0.13427604066E+02  0.16685138088E+02  0.00000000000E+00 0.  1.
</event>
<event>
 7    1  0.4875579E-009  0.4778727E+02  0.7816164E-02  0.1312668E+00
        -11   -1    0    0    0    0  0.00000000000E+00  0.00000000000E+00  0.45593999997E+02  0.45594000000E+02  0.51100000000E-03 0.  1.
         11   -1    0    0    0    0 -0.00000000000E+00 -0.00000000000E+00 -0.45593999997E+02  0.45594000000E+02  0.51100000000E-03 0. -1.
    9900012    2    1    2    0    0  0.32134792071E+02  0.28118668475E+02  0.77665205146E+01  0.47787271675E+02  0.20000002876E+02 0.  0.
         12    1    1    2    0    0 -0.32134792071E+02 -0.28118668475E+02 -0.77665205146E+01  0.43400728325E+02  0.00000000000E+00 0. -1.
         11    1    3    3    0    0  0.12270653512E+02  0.88467612137E+01  0.72739281377E+01  0.16785236144E+02  0.51100000000E-03 0.  1.
        -11    1    3    3    0    0  0.82669296706E+01  0.60367933561E-01 -0.17479149409E+01  0.84499099030E+01  0.51100000000E-03 0. -1.
         12    1    3    3    0    0  0.11597208888E+02  0.19211539327E+02  0.22405073179E+01  0.22552125629E+02  0.00000000000E+00 0. -1.
</event>
<event>
 7    1  0.4875579E-009  0.4778727E+02  0.7816164E-02  0.1312668E+00
        -11   -1    0    0    0    0  0.00000000000E+00  0.00000000000E+00  0.45593999997E+02  0.45594000000E+02  0.51100000000E-03 0. -1.
         11   -1    0    0    0    0 -0.00000000000E+00 -0.00000000000E+00 -0.45593999997E+02  0.45594000000E+02  0.51100000000E-03 0.  1.
    9900012    2    1    2    0    0  0.49358753185E+01  0.38762552443E+02  0.18887166262E+02  0.47787269748E+02  0.19999994087E+02 0.  0.
         12    1    1    2    0    0 -0.49358753185E+01 -0.38762552443E+02 -0.18887166262E+02  0.43400730252E+02  0.00000000000E+00 0. -1.
         11    1    3    3    0    0 -0.57744731660E+00 -0.20881532132E+01 -0.44678512457E+00  0.22121135716E+01  0.51100000000E-03 0.  1.
        -11    1    3    3    0    0  0.27421535460E+01  0.23261293783E+02  0.99599629213E+01  0.25452073711E+02  0.51100000000E-03 0. -1.
        -12    1    3    3    0    0  0.27711690891E+01  0.17589411873E+02  0.93739884647E+01  0.20123082465E+02  0.00000000000E+00 0.  1.
</event>
<event>
 7    1  0.4875579E-009  0.4778727E+02  0.7816164E-02  0.1312668E+00
        -11   -1    0    0    0    0  0.00000000000E+00  0.00000000000E+00  0.45593999997E+02  0.45594000000E+02  0.51100000000E-03 0.  1.
         11   -1    0    0    0    0 -0.00000000000E+00 -0.00000000000E+00 -0.45593999997E+02  0.45594000000E+02  0.51100000000E-03 0. -1.
    9900012    2    1    2    0    0  0.18985893620E+02  0.10686501712E+02  0.37536086724E+02  0.47787270951E+02  0.19999999576E+02 0.  0.
         12    1    1    2    0    0 -0.18985893620E+02 -0.10686501712E+02 -0.37536086724E+02  0.43400729049E+02  0.00000000000E+00 0. -1.
         11    1    3    3    0    0  0.87044016752E+01 -0.34869839223E+01  0.82714100243E+01  0.12503675038E+02  0.51100000000E-03 0. -1.
        -11    1    3    3    0    0  0.77654934321E+01  0.32100595761E+01  0.13880951723E+02  0.16226157639E+02  0.51100000000E-03 0.  1.
        -12    1    3    3    0    0  0.25159985129E+01  0.10963426058E+02  0.15383724977E+02  0.19057438275E+02  0.00000000000E+00 0.  1.
</event>
<event>
 7    1  0.4875579E-009  0.4778727E+02  0.7816164E-02  0.1312668E+00
        -11   -1    0    0    0    0  0.00000000000E+00  0.00000000000E+00  0.45593999997E+02  0.45594000000E+02  0.51100000000E-03 0. -1.
         11   -1    0    0    0    0 -0.00000000000E+00 -0.00000000000E+00 -0.45593999997E+02  0.45594000000E+02  0.51100000000E-03 0.  1.
    9900012    2    1    2    0    0  0.85676087274E+01  0.31484446747E+01 -0.42430019841E+02  0.47787271816E+02  0.20000003519E+02 0.  0.
         12    1    1    2    0    0 -0.85676087274E+01 -0.31484446747E+01  0.42430019841E+02  0.43400728184E+02  0.00000000000E+00 0. -1.
         11    1    3    3    0    0  0.17977134793E+01  0.29064656380E+01 -0.80096787510E-02  0.34175108887E+01  0.51100000000E-03 0. -1.
        -11    1    3    3    0    0  0.73929692436E+01  0.39320488805E+01 -0.20730284386E+02  0.22357586937E+02  0.51100000000E-03 0.  1.
         12    1    3    3    0    0 -0.62307399548E+00 -0.36900698438E+01 -0.21691725776E+02  0.22012173991E+02  0.00000000000E+00 0. -1.
</event>
<event>
 7    1  0.4875579E-009  0.4778728E+02  0.7816164E-02  0.1312668E+00
        -11   -1    0    0    0    0  0.00000000000E+00  0.00000000000E+00  0.45593999997E+02  0.45594000000E+02  0.51100000000E-03 0. -1.
         11   -1    0    0    0    0 -0.00000000000E+00 -0.00000000000E+00 -0.45593999997E+02  0.45594000000E+02  0.51100000000E-03 0.  1.
    9900012    2    1    2    0    0 -0.20282343828E+02 -0.37503630092E+02  0.81072008585E+01  0.47787280570E+02  0.20000043431E+02 0.  0.
         12    1    1    2    0    0  0.20282343828E+02  0.37503630092E+02 -0.81072008585E+01  0.43400719430E+02  0.00000000000E+00 0. -1.
         11    1    3    3    0    0 -0.49939221981E+01 -0.40468140431E+01  0.69336689948E+01  0.94547199224E+01  0.51100000000E-03 0. -1.
        -11    1    3    3    0    0 -0.97538393755E+01 -0.18331531607E+02  0.58282384618E+01  0.21567354901E+02  0.51100000000E-03 0.  1.
        -12    1    3    3    0    0 -0.55345822545E+01 -0.15125284443E+02 -0.46547065981E+01  0.16765205747E+02  0.00000000000E+00 0.  1.
</event>
<event>
 7    1  0.4875579E-009  0.4778727E+02  0.7816164E-02  0.1312668E+00
        -11   -1    0    0    0    0  0.00000000000E+00  0.00000000000E+00  0.45593999997E+02  0.45594000000E+02  0.51100000000E-03 0.  1.
         11   -1    0    0    0    0 -0.00000000000E+00 -0.00000000000E+00 -0.45593999997E+02  0.45594000000E+02  0.51100000000E-03 0. -1.
    9900012    2    1    2    0    0 -0.27091456256E+02  0.73738921813E+01  0.33095348126E+02  0.47787270103E+02  0.19999995708E+02 0.  0.
         12    1    1    2    0    0  0.27091456256E+02 -0.73738921813E+01 -0.33095348126E+02  0.43400729897E+02  0.00000000000E+00 0. -1.
         11    1    3    3    0    0 -0.88839565495E+01  0.14676587624E+01  0.14631102034E+02  0.17179867672E+02  0.51100000000E-03 0. -1.
        -11    1    3    3    0    0 -0.15344018591E+02 -0.10046586434E+01  0.17111440977E+02  0.23005426710E+02  0.51100000000E-03 0.  1.
         12    1    3    3    0    0 -0.28634811156E+01  0.69108920623E+01  0.13528051146E+01  0.76019757217E+01  0.00000000000E+00 0. -1.
</event>
<event>
 7    1  0.4875579E-009  0.4778727E+02  0.7816164E-02  0.1312668E+00
        -11   -1    0    0    0    0  0.00000000000E+00  0.00000000000E+00  0.45593999997E+02  0.45594000000E+02  0.51100000000E-03 0. -1.
         11   -1    0    0    0    0 -0.00000000000E+00 -0.00000000000E+00 -0.45593999997E+02  0.45594000000E+02  0.51100000000E-03 0.  1.
    9900012    2    1    2    0    0 -0.60547540894E+01 -0.42378506859E+02 -0.71431987078E+01  0.47787272143E+02  0.20000005011E+02 0.  0.
         12    1    1    2    0    0  0.60547540894E+01  0.42378506859E+02  0.71431987078E+01  0.43400727857E+02  0.00000000000E+00 0. -1.
         11    1    3    3    0    0 -0.72028104036E+01 -0.73262743958E+01  0.28457480865E+01  0.10660818761E+02  0.51100000000E-03 0. -1.
        -11    1    3    3    0    0  0.44386553044E-01 -0.28362504693E+00  0.68238232405E+00  0.74031022594E+00  0.51100000000E-03 0.  1.
        -12    1    3    3    0    0  0.11036697612E+01 -0.34768607416E+02 -0.10671329118E+02  0.36386143156E+02  0.00000000000E+00 0.  1.
</event>
<event>
 7    1  0.4875579E-009  0.4778727E+02  0.7816164E-02  0.1312668E+00
        -11   -1    0    0    0    0  0.00000000000E+00  0.00000000000E+00  0.45593999997E+02  0.45594000000E+02  0.51100000000E-03 0.  1.
         11   -1    0    0    0    0 -0.00000000000E+00 -0.00000000000E+00 -0.45593999997E+02  0.45594000000E+02  0.51100000000E-03 0. -1.
    9900012    2    1    2    0    0 -0.25432265984E+02 -0.15006625582E+02  0.31806039750E+02  0.47787272713E+02  0.20000007606E+02 0.  0.
         12    1    1    2    0    0  0.25432265984E+02  0.15006625582E+02 -0.31806039750E+02  0.43400727287E+02  0.00000000000E+00 0. -1.
         11    1    3    3    0    0 -0.50718797649E+00 -0.16541095492E+01  0.95620241828E+01  0.97172848460E+01  0.51100000000E-03 0. -1.
        -11    1    3    3    0    0 -0.21345140809E+01 -0.58375034582E+01  0.81153484037E+01  0.10222107266E+02  0.51100000000E-03 0.  1.
        -12    1    3    3    0    0 -0.22790563927E+02 -0.75150125750E+01  0.14128667164E+02  0.27847880600E+02  0.00000000000E+00 0.  1.
</event>
<event>
 7    1  0.4875579E-009  0.4778726E+02  0.7816164E-02  0.1312668E+00
        -11   -1    0    0    0    0  0.00000000000E+00  0.00000000000E+00  0.45593999997E+02  0.45594000000E+02  0.51100000000E-03 0. -1.
         11   -1    0    0    0    0 -0.00000000000E+00 -0.00000000000E+00 -0.45593999997E+02  0.45594000000E+02  0.51100000000E-03 0.  1.
    9900012    2    1    2    0    0  0.28636820070E+02  0.20335430564E+02 -0.25495622095E+02  0.47787263302E+02  0.19999964697E+02 0.  0.
         12    1    1    2    0    0 -0.28636820070E+02 -0.20335430564E+02  0.25495622095E+02  0.43400736698E+02  0.00000000000E+00 0. -1.
         11    1    3    3    0    0  0.12413193813E+02  0.73320711020E+01 -0.13805857852E+02  0.19961171272E+02  0.51100000000E-03 0. -1.
        -11    1    3    3    0    0  0.14616664081E+02  0.57263151742E+01 -0.12846201651E+02  0.20284537250E+02  0.51100000000E-03 0.  1.
         12    1    3    3    0    0  0.16069621766E+01  0.72770442880E+01  0.11564374082E+01  0.75415547790E+01  0.00000000000E+00 0. -1.
</event>
<event>
 7    1  0.4875579E-009  0.4778729E+02  0.7816164E-02  0.1312668E+00
        -11   -1    0    0    0    0  0.00000000000E+00  0.00000000000E+00  0.45593999997E+02  0.45594000000E+02  0.51100000000E-03 0.  1.
         11   -1    0    0    0    0 -0.00000000000E+00 -0.00000000000E+00 -0.45593999997E+02  0.45594000000E+02  0.51100000000E-03 0. -1.
    9900012    2    1    2    0    0  0.29190915916E+02  0.30802892893E+02  0.90936332842E+01  0.47787286309E+02  0.20000069595E+02 0.  0.
         12    1    1    2    0    0 -0.29190915916E+02 -0.30802892893E+02 -0.90936332842E+01  0.43400713691E+02  0.00000000000E+00 0. -1.
         11    1    3    3    0    0  0.45851999754E+01  0.20725705490E+01  0.75536073617E+01  0.90761551293E+01  0.51100000000E-03 0. -1.
        -11    1    3    3    0    0  0.30664841491E+01  0.50682685543E+00  0.75687197189E+00  0.31989144941E+01  0.51100000000E-03 0.  1.
        -12    1    3    3    0    0  0.21539231792E+02  0.28223495489E+02  0.78315395065E+00  0.35512216685E+02  0.00000000000E+00 0.  1.
</event>
<event>
 7    1  0.4875579E-009  0.4778727E+02  0.7816164E-02  0.1312668E+00
        -11   -1    0    0    0    0  0.00000000000E+00  0.00000000000E+00  0.45593999997E+02  0.45594000000E+02  0.51100000000E-03 0. -1.
         11   -1    0    0    0    0 -0.00000000000E+00 -0.00000000000E+00 -0.45593999997E+02  0.45594000000E+02  0.51100000000E-03 0.  1.
    9900012    2    1    2    0    0  0.41399289309E+02 -0.12929753724E+02 -0.15947851963E+01  0.47787273895E+02  0.20000012996E+02 0.  0.
         12    1    1    2    0    0 -0.41399289309E+02  0.12929753724E+02  0.15947851963E+01  0.43400726105E+02  0.00000000000E+00 0. -1.
         11    1    3    3    0    0  0.13418141212E+02 -0.62374313804E+01  0.53727392787E+01  0.15742248614E+02  0.51100000000E-03 0. -1.
        -11    1    3    3    0    0  0.21319437453E+02 -0.83264036906E+01 -0.92907282527E+00  0.22906562123E+02  0.51100000000E-03 0.  1.
         12    1    3    3    0    0  0.66617106444E+01  0.16340813473E+01 -0.60384516497E+01  0.91384631578E+01  0.00000000000E+00 0. -1.
</event>
<event>
 7    1  0.4875579E-009  0.4778727E+02  0.7816164E-02  0.1312668E+00
        -11   -1    0    0    0    0  0.00000000000E+00  0.00000000000E+00  0.45593999997E+02  0.45594000000E+02  0.51100000000E-03 0. -1.
         11   -1    0    0    0    0 -0.00000000000E+00 -0.00000000000E+00 -0.45593999997E+02  0.45594000000E+02  0.51100000000E-03 0.  1.
    9900012    2    1    2    0    0  0.93554119227E+01 -0.24212683145E+02 -0.34782830402E+02  0.47787273645E+02  0.20000011857E+02 0.  0.
         12    1    1    2    0    0 -0.93554119227E+01  0.24212683145E+02  0.34782830402E+02  0.43400726355E+02  0.00000000000E+00 0. -1.
         11    1    3    3    0    0  0.63246669285E+00 -0.13941617704E+02 -0.16837397281E+02  0.21869308763E+02  0.51100000000E-03 0. -1.
        -11    1    3    3    0    0  0.58926518181E+01 -0.11474537738E+02 -0.72667202538E+01  0.14805187782E+02  0.51100000000E-03 0.  1.
         12    1    3    3    0    0  0.28302934117E+01  0.12034722966E+01 -0.10678712868E+02  0.11112777100E+02  0.00000000000E+00 0. -1.
</event>
<event>
 7    1  0.4875579E-009  0.4778727E+02  0.7816164E-02  0.1312668E+00
        -11   -1    0    0    0    0  0.00000000000E+00  0.00000000000E+00  0.45593999997E+02  0.45594000000E+02  0.51100000000E-03 0. -1.
         11   -1    0    0    0    0 -0.00000000000E+00 -0.00000000000E+00 -0.45593999997E+02  0.45594000000E+02  0.51100000000E-03 0.  1.
    9900012    2    1    2    0    0 -0.41783653749E+02 -0.52261104748E+01 -0.10508921063E+02  0.47787269900E+02  0.19999994783E+02 0.  0.
         12    1    1    2    0    0  0.41783653749E+02  0.52261104748E+01  0.10508921063E+02  0.43400730100E+02  0.00000000000E+00 0. -1.
         11    1    3    3    0    0 -0.65530741164E+01  0.17627801311E+01 -0.16427027193E+01  0.69820231058E+01  0.51100000000E-03 0. -1.
        -11    1    3    3    0    0 -0.13664502627E+02 -0.52511006414E+01 -0.12019117830E+02  0.18940746650E+02  0.51100000000E-03 0.  1.
         12    1    3    3    0    0 -0.21566077006E+02 -0.17377899645E+01  0.31528994869E+01  0.21864500144E+02  0.00000000000E+00 0. -1.
</event>
<event>
 7    1  0.4875579E-009  0.4778727E+02  0.7816164E-02  0.1312668E+00
        -11   -1    0    0    0    0  0.00000000000E+00  0.00000000000E+00  0.45593999997E+02  0.45594000000E+02  0.51100000000E-03 0. -1.
         11   -1    0    0    0    0 -0.00000000000E+00 -0.00000000000E+00 -0.45593999997E+02  0.45594000000E+02  0.51100000000E-03 0.  1.
    9900012    2    1    2    0    0 -0.40639514111E+02  0.15196732181E+02  0.10546067895E+01  0.47787274526E+02  0.20000015873E+02 0.  0.
         12    1    1    2    0    0  0.40639514111E+02 -0.15196732181E+02 -0.10546067895E+01  0.43400725474E+02  0.00000000000E+00 0. -1.
         11    1    3    3    0    0 -0.12187722022E+02  0.43312626697E+01 -0.38674970042E+01  0.13500293987E+02  0.51100000000E-03 0.  1.
        -11    1    3    3    0    0 -0.17009809462E+02  0.71659567879E+01 -0.45139037339E+01  0.19001575772E+02  0.51100000000E-03 0. -1.
         12    1    3    3    0    0 -0.11441982627E+02  0.36995127238E+01  0.94360075277E+01  0.15285404767E+02  0.00000000000E+00 0. -1.
</event>
<event>
 7    1  0.4875579E-009  0.4778727E+02  0.7816164E-02  0.1312668E+00
        -11   -1    0    0    0    0  0.00000000000E+00  0.00000000000E+00  0.45593999997E+02  0.45594000000E+02  0.51100000000E-03 0.  1.
         11   -1    0    0    0    0 -0.00000000000E+00 -0.00000000000E+00 -0.45593999997E+02  0.45594000000E+02  0.51100000000E-03 0. -1.
    9900012    2    1    2    0    0 -0.20673934828E+02  0.12894534252E+02  0.35915775664E+02  0.47787268020E+02  0.19999986211E+02 0.  0.
         12    1    1    2    0    0  0.20673934828E+02 -0.12894534252E+02 -0.35915775664E+02  0.43400731980E+02  0.00000000000E+00 0. -1.
         11    1    3    3    0    0 -0.46112817752E+00  0.11769558993E+00 -0.13671250478E+00  0.49515857872E+00  0.51100000000E-03 0. -1.
        -11    1    3    3    0    0 -0.20151212581E+02  0.73687682852E+01  0.35969711894E+02  0.41883054909E+02  0.51100000000E-03 0.  1.
        -12    1    3    3    0    0 -0.61594069885E-01  0.54080703766E+01  0.82776275097E-01  0.54090545328E+01  0.00000000000E+00 0.  1.
</event>
<event>
 7    1  0.4875579E-009  0.4778726E+02  0.7816164E-02  0.1312668E+00
        -11   -1    0    0    0    0  0.00000000000E+00  0.00000000000E+00  0.45593999997E+02  0.45594000000E+02  0.51100000000E-03 0. -1.
         11   -1    0    0    0    0 -0.00000000000E+00 -0.00000000000E+00 -0.45593999997E+02  0.45594000000E+02  0.51100000000E-03 0.  1.
    9900012    2    1    2    0    0 -0.95781316772E+01 -0.40356604479E+01 -0.42137832401E+02  0.47787261744E+02  0.19999957597E+02 0.  0.
         12    1    1    2    0    0  0.95781316772E+01  0.40356604479E+01  0.42137832401E+02  0.43400738256E+02  0.00000000000E+00 0. -1.
         11    1    3    3    0    0 -0.74104086753E+01  0.17507477402E+01 -0.43298629928E+01  0.87593942817E+01  0.51100000000E-03 0. -1.
        -11    1    3    3    0    0 -0.45966600614E+01 -0.17963746953E+01 -0.21840732141E+02  0.22391378396E+02  0.51100000000E-03 0.  1.
        -12    1    3    3    0    0  0.24289370595E+01 -0.39900334928E+01 -0.15967237267E+02  0.16636489066E+02  0.00000000000E+00 0.  1.
</event>
<event>
 7    1  0.4875579E-009  0.4778727E+02  0.7816164E-02  0.1312668E+00
        -11   -1    0    0    0    0  0.00000000000E+00  0.00000000000E+00  0.45593999997E+02  0.45594000000E+02  0.51100000000E-03 0.  1.
         11   -1    0    0    0    0 -0.00000000000E+00 -0.00000000000E+00 -0.45593999997E+02  0.45594000000E+02  0.51100000000E-03 0. -1.
    9900012    2    1    2    0    0 -0.54308908530E+01 -0.40270571124E+02 -0.15244994268E+02  0.47787270463E+02  0.19999997349E+02 0.  0.
         12    1    1    2    0    0  0.54308908530E+01  0.40270571124E+02  0.15244994268E+02  0.43400729537E+02  0.00000000000E+00 0. -1.
         11    1    3    3    0    0 -0.16504164384E+01 -0.15582254676E+01 -0.29519297200E+01  0.37236850513E+01  0.51100000000E-03 0.  1.
        -11    1    3    3    0    0 -0.31704346835E+00 -0.20266525544E+01 -0.64324702641E+01  0.67516302547E+01  0.51100000000E-03 0. -1.
        -12    1    3    3    0    0 -0.34634309463E+01 -0.36685693102E+02 -0.58605942838E+01  0.37311955157E+02  0.00000000000E+00 0.  1.
</event>
<event>
 7    1  0.4875579E-009  0.4778727E+02  0.7816164E-02  0.1312668E+00
        -11   -1    0    0    0    0  0.00000000000E+00  0.00000000000E+00  0.45593999997E+02  0.45594000000E+02  0.51100000000E-03 0.  1.
         11   -1    0    0    0    0 -0.00000000000E+00 -0.00000000000E+00 -0.45593999997E+02  0.45594000000E+02  0.51100000000E-03 0. -1.
    9900012    2    1    2    0    0  0.51330013353E+01 -0.41522751769E+02 -0.11538482679E+02  0.47787271899E+02  0.20000003895E+02 0.  0.
         12    1    1    2    0    0 -0.51330013353E+01  0.41522751769E+02  0.11538482679E+02  0.43400728101E+02  0.00000000000E+00 0. -1.
         11    1    3    3    0    0  0.31718014795E+01 -0.95835447287E+01 -0.20762659028E+00  0.10096918503E+02  0.51100000000E-03 0. -1.
        -11    1    3    3    0    0  0.62657465031E+01 -0.20621816370E+02 -0.67878558442E+00  0.21563386556E+02  0.51100000000E-03 0.  1.
         12    1    3    3    0    0 -0.43045466473E+01 -0.11317390670E+02 -0.10652070504E+02  0.16126966839E+02  0.00000000000E+00 0. -1.
</event>
<event>
 7    1  0.4875579E-009  0.4778726E+02  0.7816164E-02  0.1312668E+00
        -11   -1    0    0    0    0  0.00000000000E+00  0.00000000000E+00  0.45593999997E+02  0.45594000000E+02  0.51100000000E-03 0.  1.
         11   -1    0    0    0    0 -0.00000000000E+00 -0.00000000000E+00 -0.45593999997E+02  0.45594000000E+02  0.51100000000E-03 0. -1.
    9900012    2    1    2    0    0 -0.29228824485E+01  0.43193563630E+02  0.30654799289E+01  0.47787258669E+02  0.19999943577E+02 0.  0.
         12    1    1    2    0    0  0.29228824485E+01 -0.43193563630E+02 -0.30654799289E+01  0.43400741331E+02  0.00000000000E+00 0. -1.
         11    1    3    3    0    0  0.44538769269E+01  0.15534210661E+02  0.44022718306E+01  0.16748991554E+02  0.51100000000E-03 0. -1.
        -11    1    3    3    0    0  0.20451047144E+01  0.92711387097E+00 -0.14881976476E+01  0.26938310863E+01  0.51100000000E-03 0.  1.
         12    1    3    3    0    0 -0.94218640898E+01  0.26732239098E+02  0.15140574584E+00  0.28344436030E+02  0.00000000000E+00 0. -1.
</event>
<event>
 7    1  0.4875579E-009  0.4778727E+02  0.7816164E-02  0.1312668E+00
        -11   -1    0    0    0    0  0.00000000000E+00  0.00000000000E+00  0.45593999997E+02  0.45594000000E+02  0.51100000000E-03 0. -1.
         11   -1    0    0    0    0 -0.00000000000E+00 -0.00000000000E+00 -0.45593999997E+02  0.45594000000E+02  0.51100000000E-03 0.  1.
    9900012    2    1    2    0    0  0.18736191962E+02 -0.31816250313E+02 -0.22810189936E+02  0.47787269152E+02  0.19999991370E+02 0.  0.
         12    1    1    2    0    0 -0.18736191962E+02  0.31816250313E+02  0.22810189936E+02  0.43400730848E+02  0.00000000000E+00 0. -1.
         11    1    3    3    0    0  0.24761253478E+01 -0.24194500821E+01  0.19305527330E+01  0.39638326849E+01  0.51100000000E-03 0. -1.
        -11    1    3    3    0    0  0.11433529348E+01 -0.15607629277E+02 -0.94656778416E+01  0.18289461579E+02  0.51100000000E-03 0.  1.
        -12    1    3    3    0    0  0.15116713679E+02 -0.13789170954E+02 -0.15275064828E+02  0.25533974888E+02  0.00000000000E+00 0.  1.
</event>
<event>
 7    1  0.4875579E-009  0.4778727E+02  0.7816164E-02  0.1312668E+00
        -11   -1    0    0    0    0  0.00000000000E+00  0.00000000000E+00  0.45593999997E+02  0.45594000000E+02  0.51100000000E-03 0. -1.
         11   -1    0    0    0    0 -0.00000000000E+00 -0.00000000000E+00 -0.45593999997E+02  0.45594000000E+02  0.51100000000E-03 0.  1.
    9900012    2    1    2    0    0 -0.17142000144E+02  0.26548384750E+02 -0.29748248148E+02  0.47787272245E+02  0.20000005474E+02 0.  0.
         12    1    1    2    0    0  0.17142000144E+02 -0.26548384750E+02  0.29748248148E+02  0.43400727755E+02  0.00000000000E+00 0. -1.
         11    1    3    3    0    0 -0.14066548197E+02  0.27414507263E+02 -0.20719877986E+02  0.37131338929E+02  0.51100000000E-03 0. -1.
        -11    1    3    3    0    0 -0.29769515940E+00  0.15845293560E+01 -0.46457484224E+01  0.49175536960E+01  0.51100000000E-03 0.  1.
         12    1    3    3    0    0 -0.27777567877E+01 -0.24506518685E+01 -0.43826217398E+01  0.57383796203E+01  0.00000000000E+00 0. -1.
</event>
<event>
 7    1  0.4875579E-009  0.4778727E+02  0.7816164E-02  0.1312668E+00
        -11   -1    0    0    0    0  0.00000000000E+00  0.00000000000E+00  0.45593999997E+02  0.45594000000E+02  0.51100000000E-03 0.  1.
         11   -1    0    0    0    0 -0.00000000000E+00 -0.00000000000E+00 -0.45593999997E+02  0.45594000000E+02  0.51100000000E-03 0. -1.
    9900012    2    1    2    0    0  0.22554215200E+02 -0.36402592889E+02 -0.70556272265E+01  0.47787271114E+02  0.20000000316E+02 0.  0.
         12    1    1    2    0    0 -0.22554215200E+02  0.36402592889E+02  0.70556272265E+01  0.43400728886E+02  0.00000000000E+00 0. -1.
         11    1    3    3    0    0  0.13709495928E+02 -0.17457271619E+02 -0.63473852713E+01  0.23086704204E+02  0.51100000000E-03 0. -1.
        -11    1    3    3    0    0  0.99800656896E+01 -0.11771208254E+02  0.41271421729E+01  0.15974866438E+02  0.51100000000E-03 0.  1.
         12    1    3    3    0    0 -0.11353464180E+01 -0.71741130159E+01 -0.48353841281E+01  0.87257004716E+01  0.00000000000E+00 0. -1.
</event>
<event>
 7    1  0.4875579E-009  0.4778727E+02  0.7816164E-02  0.1312668E+00
        -11   -1    0    0    0    0  0.00000000000E+00  0.00000000000E+00  0.45593999997E+02  0.45594000000E+02  0.51100000000E-03 0. -1.
         11   -1    0    0    0    0 -0.00000000000E+00 -0.00000000000E+00 -0.45593999997E+02  0.45594000000E+02  0.51100000000E-03 0.  1.
    9900012    2    1    2    0    0 -0.36975412428E+02 -0.22719484923E+02 -0.51706937558E+00  0.47787268668E+02  0.19999989165E+02 0.  0.
         12    1    1    2    0    0  0.36975412428E+02  0.22719484923E+02  0.51706937558E+00  0.43400731332E+02  0.00000000000E+00 0. -1.
         11    1    3    3    0    0 -0.12651071972E+02 -0.13282197802E+02 -0.20922890696E+01  0.18461962905E+02  0.51100000000E-03 0. -1.
        -11    1    3    3    0    0 -0.42730578908E+01 -0.97453955688E-02 -0.46452426794E+01  0.63116874545E+01  0.51100000000E-03 0.  1.
         12    1    3    3    0    0 -0.20051282566E+02 -0.94275417251E+01  0.62204623735E+01  0.23013618309E+02  0.00000000000E+00 0. -1.
</event>
<event>
 7    1  0.4875579E-009  0.4778726E+02  0.7816164E-02  0.1312668E+00
        -11   -1    0    0    0    0  0.00000000000E+00  0.00000000000E+00  0.45593999997E+02  0.45594000000E+02  0.51100000000E-03 0.  1.
         11   -1    0    0    0    0 -0.00000000000E+00 -0.00000000000E+00 -0.45593999997E+02  0.45594000000E+02  0.51100000000E-03 0. -1.
    9900012    2    1    2    0    0  0.15192549029E+02 -0.26456178097E+02  0.30868770916E+02  0.47787263562E+02  0.19999965883E+02 0.  0.
         12    1    1    2    0    0 -0.15192549029E+02  0.26456178097E+02 -0.30868770916E+02  0.43400736438E+02  0.00000000000E+00 0. -1.
         11    1    3    3    0    0  0.22314526096E-02  0.16931204698E+01 -0.57259748418E+00  0.17873248291E+01  0.51100000000E-03 0.  1.
        -11    1    3    3    0    0  0.26016479834E+00 -0.24582851174E+01 -0.33551093819E+00  0.24946781940E+01  0.51100000000E-03 0. -1.
        -12    1    3    3    0    0  0.14930152778E+02 -0.25691013449E+02  0.31776879339E+02  0.43505260539E+02  0.00000000000E+00 0.  1.
</event>
<event>
 7    1  0.4875579E-009  0.4778727E+02  0.7816164E-02  0.1312668E+00
        -11   -1    0    0    0    0  0.00000000000E+00  0.00000000000E+00  0.45593999997E+02  0.45594000000E+02  0.51100000000E-03 0. -1.
         11   -1    0    0    0    0 -0.00000000000E+00 -0.00000000000E+00 -0.45593999997E+02  0.45594000000E+02  0.51100000000E-03 0.  1.
    9900012    2    1    2    0    0  0.61811210534E+01 -0.97616354416E+00 -0.42947221765E+02  0.47787274084E+02  0.20000013857E+02 0.  0.
         12    1    1    2    0    0 -0.61811210534E+01  0.97616354416E+00  0.42947221765E+02  0.43400725916E+02  0.00000000000E+00 0. -1.
         11    1    3    3    0    0  0.15309980184E+01 -0.78882113822E+01 -0.15040887191E+02  0.17052745277E+02  0.51100000000E-03 0. -1.
        -11    1    3    3    0    0 -0.88873385562E+00  0.61167814248E+00  0.44580222637E+00  0.11673636547E+01  0.51100000000E-03 0.  1.
        -12    1    3    3    0    0  0.55388568906E+01  0.63003696956E+01 -0.28352136801E+02  0.29567165152E+02  0.00000000000E+00 0.  1.
</event>
<event>
 7    1  0.4875579E-009  0.4778727E+02  0.7816164E-02  0.1312668E+00
        -11   -1    0    0    0    0  0.00000000000E+00  0.00000000000E+00  0.45593999997E+02  0.45594000000E+02  0.51100000000E-03 0.  1.
         11   -1    0    0    0    0 -0.00000000000E+00 -0.00000000000E+00 -0.45593999997E+02  0.45594000000E+02  0.51100000000E-03 0. -1.
    9900012    2    1    2    0    0 -0.24312322894E+02  0.35848286832E+02  0.27266865724E+01  0.47787268059E+02  0.19999986390E+02 0.  0.
         12    1    1    2    0    0  0.24312322894E+02 -0.35848286832E+02 -0.27266865724E+01  0.43400731941E+02  0.00000000000E+00 0. -1.
         11    1    3    3    0    0 -0.88209787608E+01  0.14758605906E+02 -0.46974060884E+01  0.17823909190E+02  0.51100000000E-03 0. -1.
        -11    1    3    3    0    0 -0.75387059467E+01  0.16905812623E+02  0.32816684008E+00  0.18513408155E+02  0.51100000000E-03 0.  1.
        -12    1    3    3    0    0 -0.79526381867E+01  0.41838683033E+01  0.70959258207E+01  0.11449950714E+02  0.00000000000E+00 0.  1.
</event>
<event>
 7    1  0.4875579E-009  0.4778727E+02  0.7816164E-02  0.1312668E+00
        -11   -1    0    0    0    0  0.00000000000E+00  0.00000000000E+00  0.45593999997E+02  0.45594000000E+02  0.51100000000E-03 0.  1.
         11   -1    0    0    0    0 -0.00000000000E+00 -0.00000000000E+00 -0.45593999997E+02  0.45594000000E+02  0.51100000000E-03 0. -1.
    9900012    2    1    2    0    0 -0.35232986141E+02 -0.25319061916E+02 -0.10977792038E+01  0.47787270422E+02  0.19999997164E+02 0.  0.
         12    1    1    2    0    0  0.35232986141E+02  0.25319061916E+02  0.10977792038E+01  0.43400729578E+02  0.00000000000E+00 0. -1.
         11    1    3    3    0    0 -0.12182384430E+02 -0.17834721451E+01  0.14552482706E+01  0.12397943825E+02  0.51100000000E-03 0. -1.
        -11    1    3    3    0    0 -0.62664617472E+01 -0.16760234639E+01 -0.42863338776E+01  0.77749762605E+01  0.51100000000E-03 0.  1.
        -12    1    3    3    0    0 -0.16784139963E+02 -0.21859566307E+02  0.17333064032E+01  0.27614350337E+02  0.00000000000E+00 0.  1.
</event>
<event>
 7    1  0.4875579E-009  0.4778727E+02  0.7816164E-02  0.1312668E+00
        -11   -1    0    0    0    0  0.00000000000E+00  0.00000000000E+00  0.45593999997E+02  0.45594000000E+02  0.51100000000E-03 0.  1.
         11   -1    0    0    0    0 -0.00000000000E+00 -0.00000000000E+00 -0.45593999997E+02  0.45594000000E+02  0.51100000000E-03 0. -1.
    9900012    2    1    2    0    0  0.36181772354E+01 -0.26858455984E+02  0.33899193851E+02  0.47787271802E+02  0.20000003455E+02 0.  0.
         12    1    1    2    0    0 -0.36181772354E+01  0.26858455984E+02 -0.33899193851E+02  0.43400728198E+02  0.00000000000E+00 0. -1.
         11    1    3    3    0    0  0.56015461798E+01 -0.27710912262E+01  0.98239545234E+01  0.11643296308E+02  0.51100000000E-03 0. -1.
        -11    1    3    3    0    0 -0.44872779367E+01 -0.30052371685E+01  0.73292407886E+01  0.91041136042E+01  0.51100000000E-03 0.  1.
         12    1    3    3    0    0  0.25039089923E+01 -0.21082127589E+02  0.16745998539E+02  0.27039861890E+02  0.00000000000E+00 0. -1.
</event>
<event>
 7    1  0.4875579E-009  0.4778727E+02  0.7816164E-02  0.1312668E+00
        -11   -1    0    0    0    0  0.00000000000E+00  0.00000000000E+00  0.45593999997E+02  0.45594000000E+02  0.51100000000E-03 0.  1.
         11   -1    0    0    0    0 -0.00000000000E+00 -0.00000000000E+00 -0.45593999997E+02  0.45594000000E+02  0.51100000000E-03 0. -1.
    9900012    2    1    2    0    0 -0.45314503353E+01  0.91984463467E+00  0.43153715080E+02  0.47787270956E+02  0.19999999598E+02 0.  0.
         12    1    1    2    0    0  0.45314503353E+01 -0.91984463467E+00 -0.43153715080E+02  0.43400729044E+02  0.00000000000E+00 0. -1.
         11    1    3    3    0    0  0.44874458015E+01 -0.81248578557E+00  0.63788703690E+01  0.78413831955E+01  0.51100000000E-03 0. -1.
        -11    1    3    3    0    0 -0.12897781543E+01  0.34914747658E+01  0.27475954740E+02  0.27726918561E+02  0.51100000000E-03 0.  1.
        -12    1    3    3    0    0 -0.77291179824E+01 -0.17591443456E+01  0.92988899713E+01  0.12218969200E+02  0.00000000000E+00 0.  1.
</event>
<event>
 7    1  0.4875579E-009  0.4778728E+02  0.7816164E-02  0.1312668E+00
        -11   -1    0    0    0    0  0.00000000000E+00  0.00000000000E+00  0.45593999997E+02  0.45594000000E+02  0.51100000000E-03 0.  1.
         11   -1    0    0    0    0 -0.00000000000E+00 -0.00000000000E+00 -0.45593999997E+02  0.45594000000E+02  0.51100000000E-03 0. -1.
    9900012    2    1    2    0    0 -0.11402565212E+02 -0.13513814670E+02  0.39635602013E+02  0.47787278493E+02  0.20000033962E+02 0.  0.
         12    1    1    2    0    0  0.11402565212E+02  0.13513814670E+02 -0.39635602013E+02  0.43400721507E+02  0.00000000000E+00 0. -1.
         11    1    3    3    0    0 -0.73955285820E+01 -0.17120639291E+01  0.21659795590E+02  0.22951508690E+02  0.51100000000E-03 0. -1.
        -11    1    3    3    0    0 -0.54026848673E+01 -0.17632396469E+00  0.50909396428E+01  0.74254804978E+01  0.51100000000E-03 0.  1.
        -12    1    3    3    0    0  0.13956482372E+01 -0.11625426776E+02  0.12884866781E+02  0.17410289305E+02  0.00000000000E+00 0.  1.
</event>
<event>
 7    1  0.4875579E-009  0.4778727E+02  0.7816164E-02  0.1312668E+00
        -11   -1    0    0    0    0  0.00000000000E+00  0.00000000000E+00  0.45593999997E+02  0.45594000000E+02  0.51100000000E-03 0. -1.
         11   -1    0    0    0    0 -0.00000000000E+00 -0.00000000000E+00 -0.45593999997E+02  0.45594000000E+02  0.51100000000E-03 0.  1.
    9900012    2    1    2    0    0  0.84248520404E+01  0.35416436142E+02 -0.23628819677E+02  0.47787271893E+02  0.20000003869E+02 0.  0.
         12    1    1    2    0    0 -0.84248520404E+01 -0.35416436142E+02  0.23628819677E+02  0.43400728107E+02  0.00000000000E+00 0. -1.
         11    1    3    3    0    0 -0.49781941842E+01  0.19012715885E+02 -0.13391297006E+02  0.23782191203E+02  0.51100000000E-03 0. -1.
        -11    1    3    3    0    0  0.16555534495E+01  0.68902945114E+00 -0.21073077249E+01  0.27670137182E+01  0.51100000000E-03 0.  1.
         12    1    3    3    0    0  0.11747492775E+02  0.15714690805E+02 -0.81302149463E+01  0.21238066972E+02  0.00000000000E+00 0. -1.
</event>
<event>
 7    1  0.4875579E-009  0.4778727E+02  0.7816164E-02  0.1312668E+00
        -11   -1    0    0    0    0  0.00000000000E+00  0.00000000000E+00  0.45593999997E+02  0.45594000000E+02  0.51100000000E-03 0.  1.
         11   -1    0    0    0    0 -0.00000000000E+00 -0.00000000000E+00 -0.45593999997E+02  0.45594000000E+02  0.51100000000E-03 0. -1.
    9900012    2    1    2    0    0 -0.61813648627E+01  0.96633902523E+01  0.41857288638E+02  0.47787274259E+02  0.20000014655E+02 0.  0.
         12    1    1    2    0    0  0.61813648627E+01 -0.96633902523E+01 -0.41857288638E+02  0.43400725741E+02  0.00000000000E+00 0. -1.
         11    1    3    3    0    0  0.32948889617E+01 -0.83656702242E-01 -0.15368286352E-01  0.32959866746E+01  0.51100000000E-03 0. -1.
        -11    1    3    3    0    0 -0.33219940938E+01 -0.57013850725E-01  0.70187488826E+01  0.77654189505E+01  0.51100000000E-03 0.  1.
         12    1    3    3    0    0 -0.61542597306E+01  0.98040608052E+01  0.34853908042E+02  0.36725868634E+02  0.00000000000E+00 0. -1.
</event>
<event>
 7    1  0.4875579E-009  0.4778728E+02  0.7816164E-02  0.1312668E+00
        -11   -1    0    0    0    0  0.00000000000E+00  0.00000000000E+00  0.45593999997E+02  0.45594000000E+02  0.51100000000E-03 0.  1.
         11   -1    0    0    0    0 -0.00000000000E+00 -0.00000000000E+00 -0.45593999997E+02  0.45594000000E+02  0.51100000000E-03 0. -1.
    9900012    2    1    2    0    0 -0.23190932017E+02 -0.10494884425E+02  0.35151967000E+02  0.47787277531E+02  0.20000029574E+02 0.  0.
         12    1    1    2    0    0  0.23190932017E+02  0.10494884425E+02 -0.35151967000E+02  0.43400722469E+02  0.00000000000E+00 0. -1.
         11    1    3    3    0    0 -0.58862756208E+01  0.90450261564E+00  0.30278417365E+01  0.66808825397E+01  0.51100000000E-03 0. -1.
        -11    1    3    3    0    0  0.87052094814E+00  0.25258518502E+01  0.24435857848E+01  0.36206140417E+01  0.51100000000E-03 0.  1.
        -12    1    3    3    0    0 -0.18175177344E+02 -0.13925238891E+02  0.29680539478E+02  0.37485780949E+02  0.00000000000E+00 0.  1.
</event>
<event>
 7    1  0.4875579E-009  0.4778726E+02  0.7816164E-02  0.1312668E+00
        -11   -1    0    0    0    0  0.00000000000E+00  0.00000000000E+00  0.45593999997E+02  0.45594000000E+02  0.51100000000E-03 0. -1.
         11   -1    0    0    0    0 -0.00000000000E+00 -0.00000000000E+00 -0.45593999997E+02  0.45594000000E+02  0.51100000000E-03 0.  1.
    9900012    2    1    2    0    0 -0.24937151581E+02  0.10285817068E+02 -0.33999482176E+02  0.47787258648E+02  0.19999943478E+02 0.  0.
         12    1    1    2    0    0  0.24937151581E+02 -0.10285817068E+02  0.33999482176E+02  0.43400741352E+02  0.00000000000E+00 0. -1.
         11    1    3    3    0    0  0.83593042549E+00  0.32239531088E+01 -0.28071674565E+01  0.43557826753E+01  0.51100000000E-03 0. -1.
        -11    1    3    3    0    0 -0.20604738354E+02  0.39951888932E+01 -0.14026297745E+02  0.25243886500E+02  0.51100000000E-03 0.  1.
         12    1    3    3    0    0 -0.51683436529E+01  0.30666750657E+01 -0.17166016974E+02  0.18187589473E+02  0.00000000000E+00 0. -1.
</event>
<event>
 7    1  0.4875579E-009  0.4778727E+02  0.7816164E-02  0.1312668E+00
        -11   -1    0    0    0    0  0.00000000000E+00  0.00000000000E+00  0.45593999997E+02  0.45594000000E+02  0.51100000000E-03 0. -1.
         11   -1    0    0    0    0 -0.00000000000E+00 -0.00000000000E+00 -0.45593999997E+02  0.45594000000E+02  0.51100000000E-03 0.  1.
    9900012    2    1    2    0    0  0.33316689660E+02  0.24269813412E+02 -0.13586674365E+02  0.47787269900E+02  0.19999994781E+02 0.  0.
         12    1    1    2    0    0 -0.33316689660E+02 -0.24269813412E+02  0.13586674365E+02  0.43400730100E+02  0.00000000000E+00 0. -1.
         11    1    3    3    0    0  0.76429834984E-02 -0.68569856413E+00  0.16198401566E+01  0.17590120324E+01  0.51100000000E-03 0. -1.
        -11    1    3    3    0    0 -0.11558786502E+00 -0.63352244735E+00  0.76948568491E+00  0.10034040693E+01  0.51100000000E-03 0.  1.
        -12    1    3    3    0    0  0.33424634542E+02  0.25589034423E+02 -0.15976000206E+02  0.45024853798E+02  0.00000000000E+00 0.  1.
</event>
<event>
 7    1  0.4875579E-009  0.4778727E+02  0.7816164E-02  0.1312668E+00
        -11   -1    0    0    0    0  0.00000000000E+00  0.00000000000E+00  0.45593999997E+02  0.45594000000E+02  0.51100000000E-03 0.  1.
         11   -1    0    0    0    0 -0.00000000000E+00 -0.00000000000E+00 -0.45593999997E+02  0.45594000000E+02  0.51100000000E-03 0. -1.
    9900012    2    1    2    0    0  0.14171192395E+02  0.27724032226E+02  0.30235386818E+02  0.47787271057E+02  0.20000000056E+02 0.  0.
         12    1    1    2    0    0 -0.14171192395E+02 -0.27724032226E+02 -0.30235386818E+02  0.43400728943E+02  0.00000000000E+00 0. -1.
         11    1    3    3    0    0  0.70077827690E+01  0.66409906471E+01  0.35001717168E+01  0.10269516952E+02  0.51100000000E-03 0. -1.
        -11    1    3    3    0    0  0.24624516070E+01 -0.16758822553E+01  0.41781824750E+01  0.51312238604E+01  0.51100000000E-03 0.  1.
        -12    1    3    3    0    0  0.47009580194E+01  0.22758923835E+02  0.22557032626E+02  0.32386530245E+02  0.00000000000E+00 0.  1.
</event>
<event>
 7    1  0.4875579E-009  0.4778727E+02  0.7816164E-02  0.1312668E+00
        -11   -1    0    0    0    0  0.00000000000E+00  0.00000000000E+00  0.45593999997E+02  0.45594000000E+02  0.51100000000E-03 0. -1.
         11   -1    0    0    0    0 -0.00000000000E+00 -0.00000000000E+00 -0.45593999997E+02  0.45594000000E+02  0.51100000000E-03 0.  1.
    9900012    2    1    2    0    0  0.20794058758E+02  0.83681475722E+01 -0.37164564604E+02  0.47787266877E+02  0.19999980998E+02 0.  0.
         12    1    1    2    0    0 -0.20794058758E+02 -0.83681475722E+01  0.37164564604E+02  0.43400733123E+02  0.00000000000E+00 0. -1.
         11    1    3    3    0    0  0.33879576210E+00  0.35152920133E+01 -0.53930597878E+01  0.64464838976E+01  0.51100000000E-03 0. -1.
        -11    1    3    3    0    0  0.12324557642E+02  0.62614899711E+00 -0.29385525542E+02  0.31871553073E+02  0.51100000000E-03 0.  1.
        -12    1    3    3    0    0  0.81307053543E+01  0.42267065618E+01 -0.23859792740E+01  0.94692299061E+01  0.00000000000E+00 0.  1.
</event>
<event>
 7    1  0.4875579E-009  0.4778727E+02  0.7816164E-02  0.1312668E+00
        -11   -1    0    0    0    0  0.00000000000E+00  0.00000000000E+00  0.45593999997E+02  0.45594000000E+02  0.51100000000E-03 0.  1.
         11   -1    0    0    0    0 -0.00000000000E+00 -0.00000000000E+00 -0.45593999997E+02  0.45594000000E+02  0.51100000000E-03 0. -1.
    9900012    2    1    2    0    0 -0.20568818941E+02 -0.23860456558E+02  0.29853408827E+02  0.47787265924E+02  0.19999976652E+02 0.  0.
         12    1    1    2    0    0  0.20568818941E+02  0.23860456558E+02 -0.29853408827E+02  0.43400734076E+02  0.00000000000E+00 0. -1.
         11    1    3    3    0    0 -0.10254058198E+02 -0.80635420853E+01  0.16810512764E+02  0.21278152179E+02  0.51100000000E-03 0. -1.
        -11    1    3    3    0    0  0.45911237779E+00 -0.65364863196E+01  0.10039023909E+02  0.11988262547E+02  0.51100000000E-03 0.  1.
         12    1    3    3    0    0 -0.10773873121E+02 -0.92604281536E+01  0.30038721537E+01  0.14520851198E+02  0.00000000000E+00 0. -1.
</event>
<event>
 7    1  0.4875579E-009  0.4778727E+02  0.7816164E-02  0.1312668E+00
        -11   -1    0    0    0    0  0.00000000000E+00  0.00000000000E+00  0.45593999997E+02  0.45594000000E+02  0.51100000000E-03 0. -1.
         11   -1    0    0    0    0 -0.00000000000E+00 -0.00000000000E+00 -0.45593999997E+02  0.45594000000E+02  0.51100000000E-03 0.  1.
    9900012    2    1    2    0    0  0.72632601875E+01  0.13357536878E+02 -0.40650268774E+02  0.47787273147E+02  0.20000009585E+02 0.  0.
         12    1    1    2    0    0 -0.72632601875E+01 -0.13357536878E+02  0.40650268774E+02  0.43400726853E+02  0.00000000000E+00 0. -1.
         11    1    3    3    0    0  0.35262390760E+01 -0.34260591219E-01 -0.15190681542E+02  0.15594625414E+02  0.51100000000E-03 0.  1.
        -11    1    3    3    0    0 -0.38013665591E+01  0.64303125528E+01 -0.18053947411E+02  0.19538278445E+02  0.51100000000E-03 0. -1.
         12    1    3    3    0    0  0.75383876706E+01  0.69614849160E+01 -0.74056398211E+01  0.12654369288E+02  0.00000000000E+00 0. -1.
</event>
<event>
 7    1  0.4875579E-009  0.4778727E+02  0.7816164E-02  0.1312668E+00
        -11   -1    0    0    0    0  0.00000000000E+00  0.00000000000E+00  0.45593999997E+02  0.45594000000E+02  0.51100000000E-03 0.  1.
         11   -1    0    0    0    0 -0.00000000000E+00 -0.00000000000E+00 -0.45593999997E+02  0.45594000000E+02  0.51100000000E-03 0. -1.
    9900012    2    1    2    0    0 -0.41186625077E+02 -0.13138136464E+02  0.38307331415E+01  0.47787271534E+02  0.20000002231E+02 0.  0.
         12    1    1    2    0    0  0.41186625077E+02  0.13138136464E+02 -0.38307331415E+01  0.43400728466E+02  0.00000000000E+00 0. -1.
         11    1    3    3    0    0 -0.20905775109E+01 -0.25221565639E+01 -0.42978998535E+01  0.54040476936E+01  0.51100000000E-03 0. -1.
        -11    1    3    3    0    0 -0.10318549331E+02  0.13788876722E+01  0.16558039840E+01  0.10541132700E+02  0.51100000000E-03 0.  1.
         12    1    3    3    0    0 -0.28777498235E+02 -0.11994867572E+02  0.64728290110E+01  0.31842091140E+02  0.00000000000E+00 0. -1.
</event>
<event>
 7    1  0.4875579E-009  0.4778727E+02  0.7816164E-02  0.1312668E+00
        -11   -1    0    0    0    0  0.00000000000E+00  0.00000000000E+00  0.45593999997E+02  0.45594000000E+02  0.51100000000E-03 0.  1.
         11   -1    0    0    0    0 -0.00000000000E+00 -0.00000000000E+00 -0.45593999997E+02  0.45594000000E+02  0.51100000000E-03 0. -1.
    9900012    2    1    2    0    0 -0.25438992581E+01 -0.21449528481E+02  0.37643980971E+02  0.47787274213E+02  0.20000014445E+02 0.  0.
         12    1    1    2    0    0  0.25438992581E+01  0.21449528481E+02 -0.37643980971E+02  0.43400725787E+02  0.00000000000E+00 0. -1.
         11    1    3    3    0    0  0.50616627195E+01 -0.40994807055E+01  0.12717031877E+02  0.14288074453E+02  0.51100000000E-03 0. -1.
        -11    1    3    3    0    0 -0.17866085400E+01 -0.14369358566E+02  0.21996138328E+02  0.26334398366E+02  0.51100000000E-03 0.  1.
         12    1    3    3    0    0 -0.58189534375E+01 -0.29806892097E+01  0.29308107663E+01  0.71648013944E+01  0.00000000000E+00 0. -1.
</event>
<event>
 7    1  0.4875579E-009  0.4778727E+02  0.7816164E-02  0.1312668E+00
        -11   -1    0    0    0    0  0.00000000000E+00  0.00000000000E+00  0.45593999997E+02  0.45594000000E+02  0.51100000000E-03 0.  1.
         11   -1    0    0    0    0 -0.00000000000E+00 -0.00000000000E+00 -0.45593999997E+02  0.45594000000E+02  0.51100000000E-03 0. -1.
    9900012    2    1    2    0    0  0.92802508553E+01 -0.69553815107E+01  0.41822515178E+02  0.47787272313E+02  0.20000005785E+02 0.  0.
         12    1    1    2    0    0 -0.92802508553E+01  0.69553815107E+01 -0.41822515178E+02  0.43400727687E+02  0.00000000000E+00 0. -1.
         11    1    3    3    0    0 -0.19589167826E+00 -0.60688270342E+01  0.25092864181E+02  0.25817065444E+02  0.51100000000E-03 0. -1.
        -11    1    3    3    0    0  0.97661474322E+01 -0.28560046991E+01  0.17144637201E+02  0.19936724494E+02  0.51100000000E-03 0.  1.
        -12    1    3    3    0    0 -0.29000489859E+00  0.19694502226E+01 -0.41498620345E+00  0.20334823751E+01  0.00000000000E+00 0.  1.
</event>
<event>
 7    1  0.4875579E-009  0.4778726E+02  0.7816164E-02  0.1312668E+00
        -11   -1    0    0    0    0  0.00000000000E+00  0.00000000000E+00  0.45593999997E+02  0.45594000000E+02  0.51100000000E-03 0.  1.
         11   -1    0    0    0    0 -0.00000000000E+00 -0.00000000000E+00 -0.45593999997E+02  0.45594000000E+02  0.51100000000E-03 0. -1.
    9900012    2    1    2    0    0 -0.32615702781E+01  0.19163449106E+02  0.38803975378E+02  0.47787261211E+02  0.19999955165E+02 0.  0.
         12    1    1    2    0    0  0.32615702781E+01 -0.19163449106E+02 -0.38803975378E+02  0.43400738789E+02  0.00000000000E+00 0. -1.
         11    1    3    3    0    0 -0.73267229985E+00  0.81483487056E+01  0.63008328824E+01  0.10326320284E+02  0.51100000000E-03 0. -1.
        -11    1    3    3    0    0  0.82077452274E+00  0.14062809097E+02  0.24088770242E+02  0.27905288433E+02  0.51100000000E-03 0.  1.
         12    1    3    3    0    0 -0.33496725010E+01 -0.30477086970E+01  0.84143722534E+01  0.95556524939E+01  0.00000000000E+00 0. -1.
</event>
<event>
 7    1  0.4875579E-009  0.4778726E+02  0.7816164E-02  0.1312668E+00
        -11   -1    0    0    0    0  0.00000000000E+00  0.00000000000E+00  0.45593999997E+02  0.45594000000E+02  0.51100000000E-03 0.  1.
         11   -1    0    0    0    0 -0.00000000000E+00 -0.00000000000E+00 -0.45593999997E+02  0.45594000000E+02  0.51100000000E-03 0. -1.
    9900012    2    1    2    0    0  0.26786211738E+02  0.29157599714E+01  0.34023831101E+02  0.47787264081E+02  0.19999968253E+02 0.  0.
         12    1    1    2    0    0 -0.26786211738E+02 -0.29157599714E+01 -0.34023831101E+02  0.43400735919E+02  0.00000000000E+00 0. -1.
         11    1    3    3    0    0  0.29205471690E+01  0.52670322097E+01  0.46119023080E+01  0.75855696704E+01  0.51100000000E-03 0. -1.
        -11    1    3    3    0    0  0.18273509518E+02  0.33943562895E+01  0.15755219872E+02  0.24365339280E+02  0.51100000000E-03 0.  1.
         12    1    3    3    0    0  0.55921550508E+01 -0.57456285279E+01  0.13656708921E+02  0.15836355131E+02  0.00000000000E+00 0. -1.
</event>
<event>
 7    1  0.4875579E-009  0.4778727E+02  0.7816164E-02  0.1312668E+00
        -11   -1    0    0    0    0  0.00000000000E+00  0.00000000000E+00  0.45593999997E+02  0.45594000000E+02  0.51100000000E-03 0. -1.
         11   -1    0    0    0    0 -0.00000000000E+00 -0.00000000000E+00 -0.45593999997E+02  0.45594000000E+02  0.51100000000E-03 0.  1.
    9900012    2    1    2    0    0  0.11461306957E+02  0.19761133561E+02 -0.36902024111E+02  0.47787270280E+02  0.19999996513E+02 0.  0.
         12    1    1    2    0    0 -0.11461306957E+02 -0.19761133561E+02  0.36902024111E+02  0.43400729720E+02  0.00000000000E+00 0. -1.
         11    1    3    3    0    0 -0.25327393151E+00  0.54725494674E+00 -0.33239486621E+01  0.33782052381E+01  0.51100000000E-03 0. -1.
        -11    1    3    3    0    0  0.54665894968E+00 -0.15940948151E+01 -0.12931014450E+02  0.13040364613E+02  0.51100000000E-03 0.  1.
         12    1    3    3    0    0  0.11167921938E+02  0.20807973429E+02 -0.20647060999E+02  0.31368700428E+02  0.00000000000E+00 0. -1.
</event>
<event>
 7    1  0.4875579E-009  0.4778727E+02  0.7816164E-02  0.1312668E+00
        -11   -1    0    0    0    0  0.00000000000E+00  0.00000000000E+00  0.45593999997E+02  0.45594000000E+02  0.51100000000E-03 0. -1.
         11   -1    0    0    0    0 -0.00000000000E+00 -0.00000000000E+00 -0.45593999997E+02  0.45594000000E+02  0.51100000000E-03 0.  1.
    9900012    2    1    2    0    0  0.18634093265E+02 -0.26722167855E+02  0.28676113814E+02  0.47787272009E+02  0.20000004396E+02 0.  0.
         12    1    1    2    0    0 -0.18634093265E+02  0.26722167855E+02 -0.28676113814E+02  0.43400727991E+02  0.00000000000E+00 0. -1.
         11    1    3    3    0    0  0.11439804211E-01  0.80075793257E-01 -0.62467946433E+00  0.62989498813E+00  0.51100000000E-03 0. -1.
        -11    1    3    3    0    0  0.99184590543E+01 -0.16742850933E+02  0.27565150383E+02  0.33742205075E+02  0.51100000000E-03 0.  1.
        -12    1    3    3    0    0  0.87041944069E+01 -0.10059392715E+02  0.17356428946E+01  0.13415171946E+02  0.00000000000E+00 0.  1.
</event>
<event>
 7    1  0.4875579E-009  0.4778727E+02  0.7816164E-02  0.1312668E+00
        -11   -1    0    0    0    0  0.00000000000E+00  0.00000000000E+00  0.45593999997E+02  0.45594000000E+02  0.51100000000E-03 0.  1.
         11   -1    0    0    0    0 -0.00000000000E+00 -0.00000000000E+00 -0.45593999997E+02  0.45594000000E+02  0.51100000000E-03 0. -1.
    9900012    2    1    2    0    0  0.65211781551E+01  0.77902954425E+01  0.42194889984E+02  0.47787271799E+02  0.20000003441E+02 0.  0.
         12    1    1    2    0    0 -0.65211781551E+01 -0.77902954425E+01 -0.42194889984E+02  0.43400728201E+02  0.00000000000E+00 0. -1.
         11    1    3    3    0    0 -0.20977773066E+01 -0.35837265833E+01  0.12267263395E+02  0.12951043097E+02  0.51100000000E-03 0. -1.
        -11    1    3    3    0    0  0.56844171563E+01  0.32601179776E+00  0.57477724335E+01  0.80904740472E+01  0.51100000000E-03 0.  1.
         12    1    3    3    0    0  0.29345383053E+01  0.11048010228E+02  0.24179854156E+02  0.26745754655E+02  0.00000000000E+00 0. -1.
</event>
<event>
 7    1  0.4875579E-009  0.4778727E+02  0.7816164E-02  0.1312668E+00
        -11   -1    0    0    0    0  0.00000000000E+00  0.00000000000E+00  0.45593999997E+02  0.45594000000E+02  0.51100000000E-03 0.  1.
         11   -1    0    0    0    0 -0.00000000000E+00 -0.00000000000E+00 -0.45593999997E+02  0.45594000000E+02  0.51100000000E-03 0. -1.
    9900012    2    1    2    0    0 -0.21701362758E+02 -0.34609219944E+02 -0.14658665242E+02  0.47787265935E+02  0.19999976705E+02 0.  0.
         12    1    1    2    0    0  0.21701362758E+02  0.34609219944E+02  0.14658665242E+02  0.43400734065E+02  0.00000000000E+00 0. -1.
         11    1    3    3    0    0 -0.21087337611E+02 -0.24085613621E+02 -0.82710030263E+01  0.33063606614E+02  0.51100000000E-03 0. -1.
        -11    1    3    3    0    0 -0.14252783286E+01 -0.59620204635E+00  0.13962703542E+01  0.20824135894E+01  0.51100000000E-03 0.  1.
         12    1    3    3    0    0  0.81125318155E+00 -0.99274042769E+01 -0.77839325696E+01  0.12641245732E+02  0.00000000000E+00 0. -1.
</event>
<event>
 7    1  0.4875579E-009  0.4778727E+02  0.7816164E-02  0.1312668E+00
        -11   -1    0    0    0    0  0.00000000000E+00  0.00000000000E+00  0.45593999997E+02  0.45594000000E+02  0.51100000000E-03 0.  1.
         11   -1    0    0    0    0 -0.00000000000E+00 -0.00000000000E+00 -0.45593999997E+02  0.45594000000E+02  0.51100000000E-03 0. -1.
    9900012    2    1    2    0    0  0.47223877534E+01  0.19840081500E+02  0.38310484763E+02  0.47787273937E+02  0.20000013187E+02 0.  0.
         12    1    1    2    0    0 -0.47223877534E+01 -0.19840081500E+02 -0.38310484763E+02  0.43400726063E+02  0.00000000000E+00 0. -1.
         11    1    3    3    0    0  0.20423913604E+01  0.31397278716E+01 -0.77473608502E+00  0.38248489956E+01  0.51100000000E-03 0. -1.
        -11    1    3    3    0    0  0.15647849192E+01 -0.57805920616E+00  0.98057126697E+01  0.99465926583E+01  0.51100000000E-03 0.  1.
         12    1    3    3    0    0  0.11152114737E+01  0.17278412835E+02  0.29279508178E+02  0.34015832283E+02  0.00000000000E+00 0. -1.
</event>
<event>
 7    1  0.4875579E-009  0.4778727E+02  0.7816164E-02  0.1312668E+00
        -11   -1    0    0    0    0  0.00000000000E+00  0.00000000000E+00  0.45593999997E+02  0.45594000000E+02  0.51100000000E-03 0. -1.
         11   -1    0    0    0    0 -0.00000000000E+00 -0.00000000000E+00 -0.45593999997E+02  0.45594000000E+02  0.51100000000E-03 0.  1.
    9900012    2    1    2    0    0 -0.10892324092E+02  0.31099997982E+02 -0.28244835656E+02  0.47787270285E+02  0.19999996537E+02 0.  0.
         12    1    1    2    0    0  0.10892324092E+02 -0.31099997982E+02  0.28244835656E+02  0.43400729715E+02  0.00000000000E+00 0. -1.
         11    1    3    3    0    0  0.26884925348E+01  0.49262523988E+01 -0.43544998135E+01  0.71033529895E+01  0.51100000000E-03 0. -1.
        -11    1    3    3    0    0  0.71340857271E+00  0.11576101909E+02 -0.42740613431E+01  0.12360529431E+02  0.51100000000E-03 0.  1.
         12    1    3    3    0    0 -0.14294225199E+02  0.14597643674E+02 -0.19616274499E+02  0.28323387864E+02  0.00000000000E+00 0. -1.
</event>
<event>
 7    1  0.4875579E-009  0.4778727E+02  0.7816164E-02  0.1312668E+00
        -11   -1    0    0    0    0  0.00000000000E+00  0.00000000000E+00  0.45593999997E+02  0.45594000000E+02  0.51100000000E-03 0. -1.
         11   -1    0    0    0    0 -0.00000000000E+00 -0.00000000000E+00 -0.45593999997E+02  0.45594000000E+02  0.51100000000E-03 0.  1.
    9900012    2    1    2    0    0 -0.26877391122E+02  0.33313948934E+02 -0.71700627554E+01  0.47787272506E+02  0.20000006662E+02 0.  0.
         12    1    1    2    0    0  0.26877391122E+02 -0.33313948934E+02  0.71700627554E+01  0.43400727494E+02  0.00000000000E+00 0. -1.
         11    1    3    3    0    0 -0.35670417851E+00  0.50382839391E+01  0.18902565488E+01  0.53930152052E+01  0.51100000000E-03 0. -1.
        -11    1    3    3    0    0 -0.41548284505E+01  0.14644271687E+02 -0.33518648406E+01  0.15586926922E+02  0.51100000000E-03 0.  1.
         12    1    3    3    0    0 -0.22365858493E+02  0.13631393308E+02 -0.57084544636E+01  0.26807330378E+02  0.00000000000E+00 0. -1.
</event>
<event>
 7    1  0.4875579E-009  0.4778727E+02  0.7816164E-02  0.1312668E+00
        -11   -1    0    0    0    0  0.00000000000E+00  0.00000000000E+00  0.45593999997E+02  0.45594000000E+02  0.51100000000E-03 0. -1.
         11   -1    0    0    0    0 -0.00000000000E+00 -0.00000000000E+00 -0.45593999997E+02  0.45594000000E+02  0.51100000000E-03 0.  1.
    9900012    2    1    2    0    0 -0.40024699404E+02 -0.82437383875E+01  0.14618052972E+02  0.47787271231E+02  0.20000000849E+02 0.  0.
         12    1    1    2    0    0  0.40024699404E+02  0.82437383875E+01 -0.14618052972E+02  0.43400728769E+02  0.00000000000E+00 0. -1.
         11    1    3    3    0    0 -0.19333523358E+02  0.14591961375E+01  0.90704985277E+01  0.21405333975E+02  0.51100000000E-03 0. -1.
        -11    1    3    3    0    0 -0.16362450517E+02 -0.69552303060E+01  0.92653288708E+01  0.20048724021E+02  0.51100000000E-03 0.  1.
         12    1    3    3    0    0 -0.43287255290E+01 -0.27477042190E+01 -0.37177744262E+01  0.63332132338E+01  0.00000000000E+00 0. -1.
</event>
<event>
 7    1  0.4875579E-009  0.4778727E+02  0.7816164E-02  0.1312668E+00
        -11   -1    0    0    0    0  0.00000000000E+00  0.00000000000E+00  0.45593999997E+02  0.45594000000E+02  0.51100000000E-03 0.  1.
         11   -1    0    0    0    0 -0.00000000000E+00 -0.00000000000E+00 -0.45593999997E+02  0.45594000000E+02  0.51100000000E-03 0. -1.
    9900012    2    1    2    0    0  0.15719064186E+02  0.23785410282E+02  0.32722907207E+02  0.47787269854E+02  0.19999994571E+02 0.  0.
         12    1    1    2    0    0 -0.15719064186E+02 -0.23785410282E+02 -0.32722907207E+02  0.43400730146E+02  0.00000000000E+00 0. -1.
         11    1    3    3    0    0 -0.17720944806E+01  0.55604142760E+01  0.58121594489E+01  0.82364873271E+01  0.51100000000E-03 0. -1.
        -11    1    3    3    0    0  0.11996684718E+02  0.19011957903E+02  0.25138515559E+02  0.33724174597E+02  0.51100000000E-03 0.  1.
        -12    1    3    3    0    0  0.54944739480E+01 -0.78696189635E+00  0.17722321991E+01  0.58266079291E+01  0.00000000000E+00 0.  1.
</event>
<event>
 7    1  0.4875579E-009  0.4778727E+02  0.7816164E-02  0.1312668E+00
        -11   -1    0    0    0    0  0.00000000000E+00  0.00000000000E+00  0.45593999997E+02  0.45594000000E+02  0.51100000000E-03 0.  1.
         11   -1    0    0    0    0 -0.00000000000E+00 -0.00000000000E+00 -0.45593999997E+02  0.45594000000E+02  0.51100000000E-03 0. -1.
    9900012    2    1    2    0    0  0.10007612202E+02 -0.37632775408E+02  0.19163648401E+02  0.47787268359E+02  0.19999987757E+02 0.  0.
         12    1    1    2    0    0 -0.10007612202E+02  0.37632775408E+02 -0.19163648401E+02  0.43400731641E+02  0.00000000000E+00 0. -1.
         11    1    3    3    0    0  0.79615322761E+00 -0.79178053011E+01  0.91103846044E+01  0.12096470917E+02  0.51100000000E-03 0.  1.
        -11    1    3    3    0    0  0.29980586460E+01 -0.71327206598E+00  0.45952898427E+01  0.55329740361E+01  0.51100000000E-03 0. -1.
         12    1    3    3    0    0  0.62134003287E+01 -0.29001698041E+02  0.54579739542E+01  0.30157823406E+02  0.00000000000E+00 0. -1.
</event>
<event>
 7    1  0.4875579E-009  0.4778725E+02  0.7816164E-02  0.1312668E+00
        -11   -1    0    0    0    0  0.00000000000E+00  0.00000000000E+00  0.45593999997E+02  0.45594000000E+02  0.51100000000E-03 0.  1.
         11   -1    0    0    0    0 -0.00000000000E+00 -0.00000000000E+00 -0.45593999997E+02  0.45594000000E+02  0.51100000000E-03 0. -1.
    9900012    2    1    2    0    0 -0.22207742226E+02  0.13724400902E+01  0.37263350379E+02  0.47787254752E+02  0.19999925718E+02 0.  0.
         12    1    1    2    0    0  0.22207742226E+02 -0.13724400902E+01 -0.37263350379E+02  0.43400745248E+02  0.00000000000E+00 0. -1.
         11    1    3    3    0    0 -0.10146277890E+02  0.11692934159E+01  0.20401691091E+02  0.22815415879E+02  0.51100000000E-03 0. -1.
        -11    1    3    3    0    0 -0.10324189994E+02  0.55004189196E+01  0.15148847261E+02  0.19139777452E+02  0.51100000000E-03 0.  1.
         12    1    3    3    0    0 -0.17372743421E+01 -0.52972722453E+01  0.17128120271E+01  0.58320614212E+01  0.00000000000E+00 0. -1.
</event>
<event>
 7    1  0.4875579E-009  0.4778732E+02  0.7816164E-02  0.1312668E+00
        -11   -1    0    0    0    0  0.00000000000E+00  0.00000000000E+00  0.45593999997E+02  0.45594000000E+02  0.51100000000E-03 0. -1.
         11   -1    0    0    0    0 -0.00000000000E+00 -0.00000000000E+00 -0.45593999997E+02  0.45594000000E+02  0.51100000000E-03 0.  1.
    9900012    2    1    2    0    0 -0.21560027043E+02 -0.29368482774E+01 -0.37552089203E+02  0.47787317431E+02  0.20000211495E+02 0.  0.
         12    1    1    2    0    0  0.21560027043E+02  0.29368482774E+01  0.37552089203E+02  0.43400682569E+02  0.00000000000E+00 0. -1.
         11    1    3    3    0    0 -0.88474991987E+01 -0.56415698329E+01 -0.22575455142E+02  0.24894913685E+02  0.51100000000E-03 0. -1.
        -11    1    3    3    0    0 -0.20389097765E+01 -0.21195673089E+00 -0.10914566635E+02  0.11105397058E+02  0.51100000000E-03 0.  1.
        -12    1    3    3    0    0 -0.10673618068E+02  0.29166782864E+01 -0.40620674260E+01  0.11787006688E+02  0.00000000000E+00 0.  1.
</event>
<event>
 7    1  0.4875579E-009  0.4778727E+02  0.7816164E-02  0.1312668E+00
        -11   -1    0    0    0    0  0.00000000000E+00  0.00000000000E+00  0.45593999997E+02  0.45594000000E+02  0.51100000000E-03 0.  1.
         11   -1    0    0    0    0 -0.00000000000E+00 -0.00000000000E+00 -0.45593999997E+02  0.45594000000E+02  0.51100000000E-03 0. -1.
    9900012    2    1    2    0    0  0.13712587695E-01  0.43319646472E+02 -0.26516761339E+01  0.47787270227E+02  0.19999996272E+02 0.  0.
         12    1    1    2    0    0 -0.13712587695E-01 -0.43319646472E+02  0.26516761339E+01  0.43400729773E+02  0.00000000000E+00 0. -1.
         11    1    3    3    0    0 -0.34758605461E+01  0.24282750366E+02 -0.26857400383E+01  0.24676846875E+02  0.51100000000E-03 0. -1.
        -11    1    3    3    0    0 -0.35744933337E+01  0.37848986310E+01 -0.30320453962E+01  0.60245962342E+01  0.51100000000E-03 0.  1.
         12    1    3    3    0    0  0.70640664675E+01  0.15251997476E+02  0.30661093006E+01  0.17085827118E+02  0.00000000000E+00 0. -1.
</event>
<event>
 7    1  0.4875579E-009  0.4778725E+02  0.7816164E-02  0.1312668E+00
        -11   -1    0    0    0    0  0.00000000000E+00  0.00000000000E+00  0.45593999997E+02  0.45594000000E+02  0.51100000000E-03 0.  1.
         11   -1    0    0    0    0 -0.00000000000E+00 -0.00000000000E+00 -0.45593999997E+02  0.45594000000E+02  0.51100000000E-03 0. -1.
    9900012    2    1    2    0    0  0.40211398261E+02  0.13523936692E+02  0.91527045847E+01  0.47787246378E+02  0.19999887535E+02 0.  0.
         12    1    1    2    0    0 -0.40211398261E+02 -0.13523936692E+02 -0.91527045847E+01  0.43400753622E+02  0.00000000000E+00 0. -1.
         11    1    3    3    0    0  0.26933508812E+02 -0.22653533016E-01  0.30092058717E+01  0.27101102014E+02  0.51100000000E-03 0. -1.
        -11    1    3    3    0    0  0.87413699255E+01  0.51589910444E+01  0.40164352051E+01  0.10915974019E+02  0.51100000000E-03 0.  1.
         12    1    3    3    0    0  0.45365195229E+01  0.83875991808E+01  0.21270635080E+01  0.97701703447E+01  0.00000000000E+00 0. -1.
</event>
<event>
 7    1  0.4875579E-009  0.4778727E+02  0.7816164E-02  0.1312668E+00
        -11   -1    0    0    0    0  0.00000000000E+00  0.00000000000E+00  0.45593999997E+02  0.45594000000E+02  0.51100000000E-03 0. -1.
         11   -1    0    0    0    0 -0.00000000000E+00 -0.00000000000E+00 -0.45593999997E+02  0.45594000000E+02  0.51100000000E-03 0.  1.
    9900012    2    1    2    0    0  0.11363754385E+02 -0.35403321895E+02 -0.22385110149E+02  0.47787271074E+02  0.20000000136E+02 0.  0.
         12    1    1    2    0    0 -0.11363754385E+02  0.35403321895E+02  0.22385110149E+02  0.43400728926E+02  0.00000000000E+00 0. -1.
         11    1    3    3    0    0  0.45037401447E+01 -0.26106206068E+02 -0.11849807088E+02  0.29021295609E+02  0.51100000000E-03 0. -1.
        -11    1    3    3    0    0  0.77714062584E+01 -0.88364008310E+01 -0.44268372543E+01  0.12572733323E+02  0.51100000000E-03 0.  1.
         12    1    3    3    0    0 -0.91139201836E+00 -0.46071499583E+00 -0.61084658064E+01  0.61932421418E+01  0.00000000000E+00 0. -1.
</event>
<event>
 7    1  0.4875579E-009  0.4778728E+02  0.7816164E-02  0.1312668E+00
        -11   -1    0    0    0    0  0.00000000000E+00  0.00000000000E+00  0.45593999997E+02  0.45594000000E+02  0.51100000000E-03 0. -1.
         11   -1    0    0    0    0 -0.00000000000E+00 -0.00000000000E+00 -0.45593999997E+02  0.45594000000E+02  0.51100000000E-03 0.  1.
    9900012    2    1    2    0    0 -0.34544928947E+02 -0.14128956089E+02 -0.22150470933E+02  0.47787275597E+02  0.20000020758E+02 0.  0.
         12    1    1    2    0    0  0.34544928947E+02  0.14128956089E+02  0.22150470933E+02  0.43400724403E+02  0.00000000000E+00 0. -1.
         11    1    3    3    0    0  0.40423201397E+00 -0.15229352658E+01 -0.93845236790E+00  0.18339652268E+01  0.51100000000E-03 0. -1.
        -11    1    3    3    0    0 -0.33866726207E+02 -0.10978885221E+02 -0.23715383406E+02  0.42777452882E+02  0.51100000000E-03 0.  1.
        -12    1    3    3    0    0 -0.10824347532E+01 -0.16271356024E+01  0.25033648405E+01  0.31758574886E+01  0.00000000000E+00 0.  1.
</event>
<event>
 7    1  0.4875579E-009  0.4778727E+02  0.7816164E-02  0.1312668E+00
        -11   -1    0    0    0    0  0.00000000000E+00  0.00000000000E+00  0.45593999997E+02  0.45594000000E+02  0.51100000000E-03 0.  1.
         11   -1    0    0    0    0 -0.00000000000E+00 -0.00000000000E+00 -0.45593999997E+02  0.45594000000E+02  0.51100000000E-03 0. -1.
    9900012    2    1    2    0    0  0.41629588584E+02 -0.42462919521E+01  0.11513886835E+02  0.47787271538E+02  0.20000002249E+02 0.  0.
         12    1    1    2    0    0 -0.41629588584E+02  0.42462919521E+01 -0.11513886835E+02  0.43400728462E+02  0.00000000000E+00 0. -1.
         11    1    3    3    0    0 -0.12709619318E+00  0.36402759098E+00  0.23717963592E+00  0.45268528818E+00  0.51100000000E-03 0. -1.
        -11    1    3    3    0    0  0.41042273519E+02 -0.51993365044E+00  0.75071326900E+01  0.41726437519E+02  0.51100000000E-03 0.  1.
        -12    1    3    3    0    0  0.71441125854E+00 -0.40903858926E+01  0.37695745094E+01  0.56081487301E+01  0.00000000000E+00 0.  1.
</event>
<event>
 7    1  0.4875579E-009  0.4778727E+02  0.7816164E-02  0.1312668E+00
        -11   -1    0    0    0    0  0.00000000000E+00  0.00000000000E+00  0.45593999997E+02  0.45594000000E+02  0.51100000000E-03 0.  1.
         11   -1    0    0    0    0 -0.00000000000E+00 -0.00000000000E+00 -0.45593999997E+02  0.45594000000E+02  0.51100000000E-03 0. -1.
    9900012    2    1    2    0    0  0.19839247595E+02  0.28895086948E+02  0.25594951008E+02  0.47787270605E+02  0.19999997997E+02 0.  0.
         12    1    1    2    0    0 -0.19839247595E+02 -0.28895086948E+02 -0.25594951008E+02  0.43400729395E+02  0.00000000000E+00 0. -1.
         11    1    3    3    0    0  0.94486125484E+01  0.72561110962E+01  0.62542653056E+01  0.13455231774E+02  0.51100000000E-03 0. -1.
        -11    1    3    3    0    0  0.13093429527E+02  0.20602508957E+02  0.19760987474E+02  0.31406972129E+02  0.51100000000E-03 0.  1.
         12    1    3    3    0    0 -0.27027944808E+01  0.10364668952E+01 -0.42030177102E+00  0.29250667016E+01  0.00000000000E+00 0. -1.
</event>
<event>
 7    1  0.4875579E-009  0.4778726E+02  0.7816164E-02  0.1312668E+00
        -11   -1    0    0    0    0  0.00000000000E+00  0.00000000000E+00  0.45593999997E+02  0.45594000000E+02  0.51100000000E-03 0.  1.
         11   -1    0    0    0    0 -0.00000000000E+00 -0.00000000000E+00 -0.45593999997E+02  0.45594000000E+02  0.51100000000E-03 0. -1.
    9900012    2    1    2    0    0  0.12155440226E+02 -0.13015472615E+02  0.39578612931E+02  0.47787264338E+02  0.19999969421E+02 0.  0.
         12    1    1    2    0    0 -0.12155440226E+02  0.13015472615E+02 -0.39578612931E+02  0.43400735662E+02  0.00000000000E+00 0. -1.
         11    1    3    3    0    0 -0.11920573508E+01  0.18368697386E+01  0.17867478327E+01  0.28262270331E+01  0.51100000000E-03 0. -1.
        -11    1    3    3    0    0  0.54912429739E+00  0.20447354221E+01  0.87734280469E+01  0.90252712089E+01  0.51100000000E-03 0.  1.
        -12    1    3    3    0    0  0.12798373280E+02 -0.16897077776E+02  0.29018437052E+02  0.35935766096E+02  0.00000000000E+00 0.  1.
</event>
<event>
 7    1  0.4875579E-009  0.4778727E+02  0.7816164E-02  0.1312668E+00
        -11   -1    0    0    0    0  0.00000000000E+00  0.00000000000E+00  0.45593999997E+02  0.45594000000E+02  0.51100000000E-03 0.  1.
         11   -1    0    0    0    0 -0.00000000000E+00 -0.00000000000E+00 -0.45593999997E+02  0.45594000000E+02  0.51100000000E-03 0. -1.
    9900012    2    1    2    0    0  0.13215358116E+02 -0.40343195849E+02  0.90224354137E+01  0.47787268644E+02  0.19999989055E+02 0.  0.
         12    1    1    2    0    0 -0.13215358116E+02  0.40343195849E+02 -0.90224354137E+01  0.43400731356E+02  0.00000000000E+00 0. -1.
         11    1    3    3    0    0  0.16103020949E+01 -0.17190173792E+01 -0.33066553978E+01  0.40598108044E+01  0.51100000000E-03 0. -1.
        -11    1    3    3    0    0  0.84187453278E+01 -0.10537084791E+02  0.20130885976E+01  0.13636640156E+02  0.51100000000E-03 0.  1.
        -12    1    3    3    0    0  0.31863106936E+01 -0.28087093679E+02  0.10316002214E+02  0.30090817683E+02  0.00000000000E+00 0.  1.
</event>
<event>
 7    1  0.4875579E-009  0.4778727E+02  0.7816164E-02  0.1312668E+00
        -11   -1    0    0    0    0  0.00000000000E+00  0.00000000000E+00  0.45593999997E+02  0.45594000000E+02  0.51100000000E-03 0.  1.
         11   -1    0    0    0    0 -0.00000000000E+00 -0.00000000000E+00 -0.45593999997E+02  0.45594000000E+02  0.51100000000E-03 0. -1.
    9900012    2    1    2    0    0  0.76092341293E+01  0.21830192343E+02  0.36730992614E+02  0.47787267746E+02  0.19999984961E+02 0.  0.
         12    1    1    2    0    0 -0.76092341293E+01 -0.21830192343E+02 -0.36730992614E+02  0.43400732254E+02  0.00000000000E+00 0. -1.
         11    1    3    3    0    0  0.40440417792E+01  0.14946151372E+02  0.11134353457E+02  0.19071327744E+02  0.51100000000E-03 0. -1.
        -11    1    3    3    0    0 -0.10956138264E+01  0.36811241334E+01  0.17728526749E+01  0.42301360983E+01  0.51100000000E-03 0.  1.
        -12    1    3    3    0    0  0.46608061765E+01  0.32029168380E+01  0.23823786482E+02  0.24485803904E+02  0.00000000000E+00 0.  1.
</event>
<event>
 7    1  0.4875579E-009  0.4778726E+02  0.7816164E-02  0.1312668E+00
        -11   -1    0    0    0    0  0.00000000000E+00  0.00000000000E+00  0.45593999997E+02  0.45594000000E+02  0.51100000000E-03 0.  1.
         11   -1    0    0    0    0 -0.00000000000E+00 -0.00000000000E+00 -0.45593999997E+02  0.45594000000E+02  0.51100000000E-03 0. -1.
    9900012    2    1    2    0    0 -0.25553879027E+02  0.55117672590E+01  0.34644539670E+02  0.47787257603E+02  0.19999938716E+02 0.  0.
         12    1    1    2    0    0  0.25553879027E+02 -0.55117672590E+01 -0.34644539670E+02  0.43400742397E+02  0.00000000000E+00 0. -1.
         11    1    3    3    0    0 -0.21216175016E+00 -0.12772582015E+01  0.26471304606E+01  0.29468120160E+01  0.51100000000E-03 0. -1.
        -11    1    3    3    0    0 -0.27903704421E+02  0.70457255982E+01  0.30080219405E+02  0.41630260260E+02  0.51100000000E-03 0.  1.
        -12    1    3    3    0    0  0.25619871442E+01 -0.25670013770E+00  0.19171898041E+01  0.32101853269E+01  0.00000000000E+00 0.  1.
</event>
<event>
 7    1  0.4875579E-009  0.4778727E+02  0.7816164E-02  0.1312668E+00
        -11   -1    0    0    0    0  0.00000000000E+00  0.00000000000E+00  0.45593999997E+02  0.45594000000E+02  0.51100000000E-03 0. -1.
         11   -1    0    0    0    0 -0.00000000000E+00 -0.00000000000E+00 -0.45593999997E+02  0.45594000000E+02  0.51100000000E-03 0.  1.
    9900012    2    1    2    0    0 -0.21118020458E+02 -0.35123086590E+02 -0.14283609138E+02  0.47787268558E+02  0.19999988663E+02 0.  0.
         12    1    1    2    0    0  0.21118020458E+02  0.35123086590E+02  0.14283609138E+02  0.43400731442E+02  0.00000000000E+00 0. -1.
         11    1    3    3    0    0  0.18121143881E+01 -0.86772140015E+01 -0.23210243288E+01  0.91632393606E+01  0.51100000000E-03 0. -1.
        -11    1    3    3    0    0 -0.17595147912E+01 -0.93467328353E+01 -0.31762501215E+01  0.10027256459E+02  0.51100000000E-03 0.  1.
         12    1    3    3    0    0 -0.21170620055E+02 -0.17099139753E+02 -0.87863346873E+01  0.28596772739E+02  0.00000000000E+00 0. -1.
</event>
<event>
 7    1  0.4875579E-009  0.4778727E+02  0.7816164E-02  0.1312668E+00
        -11   -1    0    0    0    0  0.00000000000E+00  0.00000000000E+00  0.45593999997E+02  0.45594000000E+02  0.51100000000E-03 0.  1.
         11   -1    0    0    0    0 -0.00000000000E+00 -0.00000000000E+00 -0.45593999997E+02  0.45594000000E+02  0.51100000000E-03 0. -1.
    9900012    2    1    2    0    0 -0.42430392051E+02  0.75506213699E+01 -0.51257597192E+01  0.47787268838E+02  0.19999989942E+02 0.  0.
         12    1    1    2    0    0  0.42430392051E+02 -0.75506213699E+01  0.51257597192E+01  0.43400731162E+02  0.00000000000E+00 0. -1.
         11    1    3    3    0    0 -0.65375103676E+01 -0.10153465459E+01 -0.28719669246E+01  0.72123619358E+01  0.51100000000E-03 0. -1.
        -11    1    3    3    0    0 -0.31450959841E+02  0.52010337944E+01  0.40805845360E+01  0.32138213980E+02  0.51100000000E-03 0.  1.
        -12    1    3    3    0    0 -0.44419218426E+01  0.33649341214E+01 -0.63343773306E+01  0.84366929222E+01  0.00000000000E+00 0.  1.
</event>
<event>
 7    1  0.4875579E-009  0.4778727E+02  0.7816164E-02  0.1312668E+00
        -11   -1    0    0    0    0  0.00000000000E+00  0.00000000000E+00  0.45593999997E+02  0.45594000000E+02  0.51100000000E-03 0.  1.
         11   -1    0    0    0    0 -0.00000000000E+00 -0.00000000000E+00 -0.45593999997E+02  0.45594000000E+02  0.51100000000E-03 0. -1.
    9900012    2    1    2    0    0 -0.13747219527E+02 -0.74051964548E+01  0.40494447603E+02  0.47787271136E+02  0.20000000419E+02 0.  0.
         12    1    1    2    0    0  0.13747219527E+02  0.74051964548E+01 -0.40494447603E+02  0.43400728864E+02  0.00000000000E+00 0. -1.
         11    1    3    3    0    0 -0.63127016769E+01 -0.65772024381E+01  0.26677022972E+02  0.28191724837E+02  0.51100000000E-03 0.  1.
        -11    1    3    3    0    0 -0.19906907404E+01 -0.28804155070E+01  0.13301749889E+02  0.13754860722E+02  0.51100000000E-03 0. -1.
        -12    1    3    3    0    0 -0.54438271093E+01  0.20524214903E+01  0.51567474145E+00  0.58406855769E+01  0.00000000000E+00 0.  1.
</event>
<event>
 7    1  0.4875579E-009  0.4778733E+02  0.7816164E-02  0.1312667E+00
        -11   -1    0    0    0    0  0.00000000000E+00  0.00000000000E+00  0.45593999997E+02  0.45594000000E+02  0.51100000000E-03 0.  1.
         11   -1    0    0    0    0 -0.00000000000E+00 -0.00000000000E+00 -0.45593999997E+02  0.45594000000E+02  0.51100000000E-03 0. -1.
    9900012    2    1    2    0    0  0.70462912870E+01 -0.34574940227E+02  0.25269376022E+02  0.47787330914E+02  0.20000272965E+02 0.  0.
         12    1    1    2    0    0 -0.70462912870E+01  0.34574940227E+02 -0.25269376022E+02  0.43400669086E+02  0.00000000000E+00 0. -1.
         11    1    3    3    0    0  0.24815199226E+00 -0.93747427270E+01  0.10441495414E+02  0.14034678741E+02  0.51100000000E-03 0. -1.
        -11    1    3    3    0    0 -0.33264420621E+01 -0.59929112237E+00  0.34155246513E+01  0.48052237770E+01  0.51100000000E-03 0.  1.
        -12    1    3    3    0    0  0.10124581357E+02 -0.24600906378E+02  0.11412355956E+02  0.28947428396E+02  0.00000000000E+00 0.  1.
</event>
<event>
 7    1  0.4875579E-009  0.4778727E+02  0.7816164E-02  0.1312668E+00
        -11   -1    0    0    0    0  0.00000000000E+00  0.00000000000E+00  0.45593999997E+02  0.45594000000E+02  0.51100000000E-03 0.  1.
         11   -1    0    0    0    0 -0.00000000000E+00 -0.00000000000E+00 -0.45593999997E+02  0.45594000000E+02  0.51100000000E-03 0. -1.
    9900012    2    1    2    0    0 -0.41996603548E+02  0.17838140009E+01  0.10804006289E+02  0.47787271275E+02  0.20000001053E+02 0.  0.
         12    1    1    2    0    0  0.41996603548E+02 -0.17838140009E+01 -0.10804006289E+02  0.43400728725E+02  0.00000000000E+00 0. -1.
         11    1    3    3    0    0 -0.96530349859E+01 -0.31680777445E+01  0.26908751799E+01  0.10509929140E+02  0.51100000000E-03 0. -1.
        -11    1    3    3    0    0 -0.21905138565E+02 -0.33936434382E+01  0.89076432529E+01  0.23889286718E+02  0.51100000000E-03 0.  1.
         12    1    3    3    0    0 -0.10438429997E+02  0.83455351836E+01 -0.79451214399E+00  0.13388055417E+02  0.00000000000E+00 0. -1.
</event>
<event>
 7    1  0.4875579E-009  0.4778727E+02  0.7816164E-02  0.1312668E+00
        -11   -1    0    0    0    0  0.00000000000E+00  0.00000000000E+00  0.45593999997E+02  0.45594000000E+02  0.51100000000E-03 0.  1.
         11   -1    0    0    0    0 -0.00000000000E+00 -0.00000000000E+00 -0.45593999997E+02  0.45594000000E+02  0.51100000000E-03 0. -1.
    9900012    2    1    2    0    0  0.36286448096E+02 -0.16650499669E+02  0.17019920733E+02  0.47787272398E+02  0.20000006171E+02 0.  0.
         12    1    1    2    0    0 -0.36286448096E+02  0.16650499669E+02 -0.17019920733E+02  0.43400727602E+02  0.00000000000E+00 0. -1.
         11    1    3    3    0    0 -0.15875559937E+00 -0.21371525363E+01 -0.44842133249E+00  0.21894534149E+01  0.51100000000E-03 0. -1.
        -11    1    3    3    0    0  0.28062530493E+02 -0.15551478828E+02  0.83167579332E+01  0.33143967387E+02  0.51100000000E-03 0.  1.
        -12    1    3    3    0    0  0.83826732026E+01  0.10381316951E+01  0.91515841322E+01  0.12453851596E+02  0.00000000000E+00 0.  1.
</event>
<event>
 7    1  0.4875579E-009  0.4778727E+02  0.7816164E-02  0.1312668E+00
        -11   -1    0    0    0    0  0.00000000000E+00  0.00000000000E+00  0.45593999997E+02  0.45594000000E+02  0.51100000000E-03 0.  1.
         11   -1    0    0    0    0 -0.00000000000E+00 -0.00000000000E+00 -0.45593999997E+02  0.45594000000E+02  0.51100000000E-03 0. -1.
    9900012    2    1    2    0    0 -0.67258864710E+01  0.12720397987E+00  0.42876214613E+02  0.47787268334E+02  0.19999987640E+02 0.  0.
         12    1    1    2    0    0  0.67258864710E+01 -0.12720397987E+00 -0.42876214613E+02  0.43400731666E+02  0.00000000000E+00 0. -1.
         11    1    3    3    0    0 -0.45637332173E+01  0.57167089769E+01  0.50645346993E+01  0.88970744847E+01  0.51100000000E-03 0. -1.
        -11    1    3    3    0    0  0.21922047181E+01 -0.73973018163E+00  0.62970509564E+01  0.67086372146E+01  0.51100000000E-03 0.  1.
         12    1    3    3    0    0 -0.43543579718E+01 -0.48497748154E+01  0.31514628957E+02  0.32181556634E+02  0.00000000000E+00 0. -1.
</event>
<event>
 7    1  0.4875579E-009  0.4778727E+02  0.7816164E-02  0.1312668E+00
        -11   -1    0    0    0    0  0.00000000000E+00  0.00000000000E+00  0.45593999997E+02  0.45594000000E+02  0.51100000000E-03 0.  1.
         11   -1    0    0    0    0 -0.00000000000E+00 -0.00000000000E+00 -0.45593999997E+02  0.45594000000E+02  0.51100000000E-03 0. -1.
    9900012    2    1    2    0    0 -0.25216019613E+02 -0.74208237740E+00  0.35316071495E+02  0.47787271467E+02  0.20000001924E+02 0.  0.
         12    1    1    2    0    0  0.25216019613E+02  0.74208237740E+00 -0.35316071495E+02  0.43400728533E+02  0.00000000000E+00 0. -1.
         11    1    3    3    0    0  0.10662571955E+01  0.26360026808E+01  0.54340970424E+01  0.61330926512E+01  0.51100000000E-03 0. -1.
        -11    1    3    3    0    0 -0.75417059263E+01  0.39766641230E+01  0.12043985988E+02  0.14756313380E+02  0.51100000000E-03 0.  1.
         12    1    3    3    0    0 -0.18740570882E+02 -0.73547491812E+01  0.17837988465E+02  0.26897865435E+02  0.00000000000E+00 0. -1.
</event>
<event>
 7    1  0.4875579E-009  0.4778727E+02  0.7816164E-02  0.1312668E+00
        -11   -1    0    0    0    0  0.00000000000E+00  0.00000000000E+00  0.45593999997E+02  0.45594000000E+02  0.51100000000E-03 0.  1.
         11   -1    0    0    0    0 -0.00000000000E+00 -0.00000000000E+00 -0.45593999997E+02  0.45594000000E+02  0.51100000000E-03 0. -1.
    9900012    2    1    2    0    0  0.42386048922E+02  0.51131524315E+01  0.78039425724E+01  0.47787274307E+02  0.20000014875E+02 0.  0.
         12    1    1    2    0    0 -0.42386048922E+02 -0.51131524315E+01 -0.78039425724E+01  0.43400725693E+02  0.00000000000E+00 0. -1.
         11    1    3    3    0    0  0.32154614505E+01 -0.33491899052E+01  0.25159065121E+01  0.52807244957E+01  0.51100000000E-03 0. -1.
        -11    1    3    3    0    0  0.16734927332E+02  0.28708767865E+01  0.87919838303E+01  0.19120635614E+02  0.51100000000E-03 0.  1.
         12    1    3    3    0    0  0.22435660139E+02  0.55914655501E+01 -0.35039477700E+01  0.23385914198E+02  0.00000000000E+00 0. -1.
</event>
<event>
 7    1  0.4875579E-009  0.4778727E+02  0.7816164E-02  0.1312668E+00
        -11   -1    0    0    0    0  0.00000000000E+00  0.00000000000E+00  0.45593999997E+02  0.45594000000E+02  0.51100000000E-03 0.  1.
         11   -1    0    0    0    0 -0.00000000000E+00 -0.00000000000E+00 -0.45593999997E+02  0.45594000000E+02  0.51100000000E-03 0. -1.
    9900012    2    1    2    0    0  0.19771982487E+02  0.29966865549E+02  0.24386049843E+02  0.47787265568E+02  0.19999975029E+02 0.  0.
         12    1    1    2    0    0 -0.19771982487E+02 -0.29966865549E+02 -0.24386049843E+02  0.43400734432E+02  0.00000000000E+00 0. -1.
         11    1    3    3    0    0  0.29667620210E+00  0.90983299518E+01  0.88762017307E+01  0.12714345524E+02  0.51100000000E-03 0. -1.
        -11    1    3    3    0    0  0.75949703684E+01  0.16323898223E+02  0.53171162629E+01  0.18772984678E+02  0.51100000000E-03 0.  1.
        -12    1    3    3    0    0  0.11880335917E+02  0.45446373737E+01  0.10192731850E+02  0.16299935366E+02  0.00000000000E+00 0.  1.
</event>
<event>
 7    1  0.4875579E-009  0.4778732E+02  0.7816164E-02  0.1312668E+00
        -11   -1    0    0    0    0  0.00000000000E+00  0.00000000000E+00  0.45593999997E+02  0.45594000000E+02  0.51100000000E-03 0. -1.
         11   -1    0    0    0    0 -0.00000000000E+00 -0.00000000000E+00 -0.45593999997E+02  0.45594000000E+02  0.51100000000E-03 0.  1.
    9900012    2    1    2    0    0 -0.39432278100E+02 -0.12505730766E+02  0.13127130490E+02  0.47787315523E+02  0.20000202794E+02 0.  0.
         12    1    1    2    0    0  0.39432278100E+02  0.12505730766E+02 -0.13127130490E+02  0.43400684477E+02  0.00000000000E+00 0. -1.
         11    1    3    3    0    0 -0.60748057306E+01 -0.28647109585E+01 -0.34953415680E+01  0.75714758454E+01  0.51100000000E-03 0. -1.
        -11    1    3    3    0    0 -0.16558531058E+02  0.11320210536E+01  0.63480124158E+01  0.17769740695E+02  0.51100000000E-03 0.  1.
         12    1    3    3    0    0 -0.16798941312E+02 -0.10773040862E+02  0.10274459642E+02  0.22446098983E+02  0.00000000000E+00 0. -1.
</event>
<event>
 7    1  0.4875579E-009  0.4778727E+02  0.7816164E-02  0.1312668E+00
        -11   -1    0    0    0    0  0.00000000000E+00  0.00000000000E+00  0.45593999997E+02  0.45594000000E+02  0.51100000000E-03 0.  1.
         11   -1    0    0    0    0 -0.00000000000E+00 -0.00000000000E+00 -0.45593999997E+02  0.45594000000E+02  0.51100000000E-03 0. -1.
    9900012    2    1    2    0    0 -0.19802082859E+02 -0.32779990625E+02  0.20419915870E+02  0.47787271491E+02  0.20000002038E+02 0.  0.
         12    1    1    2    0    0  0.19802082859E+02  0.32779990625E+02 -0.20419915870E+02  0.43400728509E+02  0.00000000000E+00 0. -1.
         11    1    3    3    0    0 -0.29219642814E+01 -0.15015474347E+02  0.49441632502E+01  0.16076289859E+02  0.51100000000E-03 0. -1.
        -11    1    3    3    0    0  0.54847377724E+00 -0.20050655969E+01  0.60441021479E+01  0.63915790356E+01  0.51100000000E-03 0.  1.
        -12    1    3    3    0    0 -0.17428592355E+02 -0.15759450681E+02  0.94316504718E+01  0.25319402597E+02  0.00000000000E+00 0.  1.
</event>
<event>
 7    1  0.4875579E-009  0.4778726E+02  0.7816164E-02  0.1312668E+00
        -11   -1    0    0    0    0  0.00000000000E+00  0.00000000000E+00  0.45593999997E+02  0.45594000000E+02  0.51100000000E-03 0.  1.
         11   -1    0    0    0    0 -0.00000000000E+00 -0.00000000000E+00 -0.45593999997E+02  0.45594000000E+02  0.51100000000E-03 0. -1.
    9900012    2    1    2    0    0  0.33564898024E+01  0.37904594319E+02 -0.20871024309E+02  0.47787263255E+02  0.19999964484E+02 0.  0.
         12    1    1    2    0    0 -0.33564898024E+01 -0.37904594319E+02  0.20871024309E+02  0.43400736745E+02  0.00000000000E+00 0. -1.
         11    1    3    3    0    0 -0.29480619525E+01  0.65158841264E+01 -0.50891290883E+01  0.87776449212E+01  0.51100000000E-03 0. -1.
        -11    1    3    3    0    0  0.59628481167E+01  0.32992330556E+02 -0.13372686551E+02  0.36095403849E+02  0.51100000000E-03 0.  1.
        -12    1    3    3    0    0  0.34170363818E+00 -0.16036203631E+01 -0.24092086703E+01  0.29142144846E+01  0.00000000000E+00 0.  1.
</event>
<event>
 7    1  0.4875579E-009  0.4778726E+02  0.7816164E-02  0.1312668E+00
        -11   -1    0    0    0    0  0.00000000000E+00  0.00000000000E+00  0.45593999997E+02  0.45594000000E+02  0.51100000000E-03 0.  1.
         11   -1    0    0    0    0 -0.00000000000E+00 -0.00000000000E+00 -0.45593999997E+02  0.45594000000E+02  0.51100000000E-03 0. -1.
    9900012    2    1    2    0    0  0.27034986136E+02  0.11751765912E+02  0.31853247917E+02  0.47787264058E+02  0.19999968145E+02 0.  0.
         12    1    1    2    0    0 -0.27034986136E+02 -0.11751765912E+02 -0.31853247917E+02  0.43400735942E+02  0.00000000000E+00 0. -1.
         11    1    3    3    0    0  0.41476941383E+01  0.63155921435E+01  0.51790523719E+01  0.91603850640E+01  0.51100000000E-03 0. -1.
        -11    1    3    3    0    0 -0.10812690274E+01 -0.66175208413E+00 -0.92370923866E+00  0.15685335665E+01  0.51100000000E-03 0.  1.
        -12    1    3    3    0    0  0.23968561025E+02  0.60979258529E+01  0.27597904784E+02  0.37058345427E+02  0.00000000000E+00 0.  1.
</event>
<event>
 7    1  0.4875579E-009  0.4778727E+02  0.7816164E-02  0.1312668E+00
        -11   -1    0    0    0    0  0.00000000000E+00  0.00000000000E+00  0.45593999997E+02  0.45594000000E+02  0.51100000000E-03 0.  1.
         11   -1    0    0    0    0 -0.00000000000E+00 -0.00000000000E+00 -0.45593999997E+02  0.45594000000E+02  0.51100000000E-03 0. -1.
    9900012    2    1    2    0    0 -0.38067577180E+00  0.35862414512E+01  0.43250636024E+02  0.47787267768E+02  0.19999985063E+02 0.  0.
         12    1    1    2    0    0  0.38067577180E+00 -0.35862414512E+01 -0.43250636024E+02  0.43400732232E+02  0.00000000000E+00 0. -1.
         11    1    3    3    0    0  0.14935712431E+01 -0.16058041763E+01  0.15549900927E+02  0.15703782386E+02  0.51100000000E-03 0. -1.
        -11    1    3    3    0    0  0.24189389449E+01  0.47489926968E+01  0.27224548284E+02  0.27741309031E+02  0.51100000000E-03 0.  1.
         12    1    3    3    0    0 -0.42931859598E+01  0.44305293064E+00  0.47618681290E+00  0.43421763513E+01  0.00000000000E+00 0. -1.
</event>
<event>
 7    1  0.4875579E-009  0.4778727E+02  0.7816164E-02  0.1312668E+00
        -11   -1    0    0    0    0  0.00000000000E+00  0.00000000000E+00  0.45593999997E+02  0.45594000000E+02  0.51100000000E-03 0.  1.
         11   -1    0    0    0    0 -0.00000000000E+00 -0.00000000000E+00 -0.45593999997E+02  0.45594000000E+02  0.51100000000E-03 0. -1.
    9900012    2    1    2    0    0  0.42605537748E+02 -0.65392738182E+01  0.50625381260E+01  0.47787271421E+02  0.20000001718E+02 0.  0.
         12    1    1    2    0    0 -0.42605537748E+02  0.65392738182E+01 -0.50625381260E+01  0.43400728579E+02  0.00000000000E+00 0. -1.
         11    1    3    3    0    0  0.25905429540E+02  0.23176498075E-01  0.88966277154E+01  0.27390542195E+02  0.51100000000E-03 0. -1.
        -11    1    3    3    0    0  0.48684652408E+01  0.12962017395E+01  0.14489760482E+01  0.52422919224E+01  0.51100000000E-03 0.  1.
        -12    1    3    3    0    0  0.11831642968E+02 -0.78586520558E+01 -0.52830656375E+01  0.15154437303E+02  0.00000000000E+00 0.  1.
</event>
<event>
 7    1  0.4875579E-009  0.4778728E+02  0.7816164E-02  0.1312668E+00
        -11   -1    0    0    0    0  0.00000000000E+00  0.00000000000E+00  0.45593999997E+02  0.45594000000E+02  0.51100000000E-03 0.  1.
         11   -1    0    0    0    0 -0.00000000000E+00 -0.00000000000E+00 -0.45593999997E+02  0.45594000000E+02  0.51100000000E-03 0. -1.
    9900012    2    1    2    0    0  0.17601788428E+02  0.10719571937E+01  0.39656659847E+02  0.47787277445E+02  0.20000029182E+02 0.  0.
         12    1    1    2    0    0 -0.17601788428E+02 -0.10719571937E+01 -0.39656659847E+02  0.43400722555E+02  0.00000000000E+00 0. -1.
         11    1    3    3    0    0  0.11105896389E+01 -0.19162545888E+01  0.24498900680E+01  0.33026357052E+01  0.51100000000E-03 0. -1.
        -11    1    3    3    0    0  0.61945072325E+01  0.10010374616E+02  0.15633626770E+02  0.19570125346E+02  0.51100000000E-03 0.  1.
         12    1    3    3    0    0  0.10296691556E+02 -0.70221628333E+01  0.21573143009E+02  0.24914516394E+02  0.00000000000E+00 0. -1.
</event>
<event>
 7    1  0.4875579E-009  0.4778727E+02  0.7816164E-02  0.1312668E+00
        -11   -1    0    0    0    0  0.00000000000E+00  0.00000000000E+00  0.45593999997E+02  0.45594000000E+02  0.51100000000E-03 0. -1.
         11   -1    0    0    0    0 -0.00000000000E+00 -0.00000000000E+00 -0.45593999997E+02  0.45594000000E+02  0.51100000000E-03 0.  1.
    9900012    2    1    2    0    0 -0.41050831880E+02 -0.11013680529E+02  0.87836052136E+01  0.47787266396E+02  0.19999978807E+02 0.  0.
         12    1    1    2    0    0  0.41050831880E+02  0.11013680529E+02 -0.87836052136E+01  0.43400733604E+02  0.00000000000E+00 0. -1.
         11    1    3    3    0    0 -0.10722510172E+02 -0.17823461412E+01  0.47107067961E+01  0.11846507542E+02  0.51100000000E-03 0. -1.
        -11    1    3    3    0    0 -0.17492011365E+02 -0.13569011617E+02  0.19152588980E+01  0.22220638037E+02  0.51100000000E-03 0.  1.
         12    1    3    3    0    0 -0.12836310342E+02  0.43376772296E+01  0.21576395195E+01  0.13720120818E+02  0.00000000000E+00 0. -1.
</event>
<event>
 7    1  0.4875579E-009  0.4778727E+02  0.7816164E-02  0.1312668E+00
        -11   -1    0    0    0    0  0.00000000000E+00  0.00000000000E+00  0.45593999997E+02  0.45594000000E+02  0.51100000000E-03 0. -1.
         11   -1    0    0    0    0 -0.00000000000E+00 -0.00000000000E+00 -0.45593999997E+02  0.45594000000E+02  0.51100000000E-03 0.  1.
    9900012    2    1    2    0    0  0.10314724215E+02 -0.33529017026E+02  0.25554550928E+02  0.47787267385E+02  0.19999983317E+02 0.  0.
         12    1    1    2    0    0 -0.10314724215E+02  0.33529017026E+02 -0.25554550928E+02  0.43400732615E+02  0.00000000000E+00 0. -1.
         11    1    3    3    0    0  0.80333103955E+01 -0.64511613279E+01  0.49147424417E+01  0.11415176386E+02  0.51100000000E-03 0. -1.
        -11    1    3    3    0    0  0.29136635032E+01 -0.80954971497E+00  0.48540535734E+01  0.57189721197E+01  0.51100000000E-03 0.  1.
        -12    1    3    3    0    0 -0.63224968420E+00 -0.26268305983E+02  0.15785754913E+02  0.30653118880E+02  0.00000000000E+00 0.  1.
</event>
<event>
 7    1  0.4875579E-009  0.4778727E+02  0.7816164E-02  0.1312668E+00
        -11   -1    0    0    0    0  0.00000000000E+00  0.00000000000E+00  0.45593999997E+02  0.45594000000E+02  0.51100000000E-03 0. -1.
         11   -1    0    0    0    0 -0.00000000000E+00 -0.00000000000E+00 -0.45593999997E+02  0.45594000000E+02  0.51100000000E-03 0.  1.
    9900012    2    1    2    0    0 -0.32404625397E+02  0.57657693644E+00 -0.28865741104E+02  0.47787271923E+02  0.20000004008E+02 0.  0.
         12    1    1    2    0    0  0.32404625397E+02 -0.57657693644E+00  0.28865741104E+02  0.43400728077E+02  0.00000000000E+00 0. -1.
         11    1    3    3    0    0 -0.84438793235E+01  0.12659478769E+01 -0.15522157506E+00  0.85396613549E+01  0.51100000000E-03 0. -1.
        -11    1    3    3    0    0  0.10288365234E+01 -0.13063899805E+01 -0.10560466006E+01  0.19698715839E+01  0.51100000000E-03 0.  1.
        -12    1    3    3    0    0 -0.24989582597E+02  0.61701904009E+00 -0.27654472929E+02  0.37277738985E+02  0.00000000000E+00 0.  1.
</event>
<event>
 7    1  0.4875579E-009  0.4778727E+02  0.7816164E-02  0.1312668E+00
        -11   -1    0    0    0    0  0.00000000000E+00  0.00000000000E+00  0.45593999997E+02  0.45594000000E+02  0.51100000000E-03 0. -1.
         11   -1    0    0    0    0 -0.00000000000E+00 -0.00000000000E+00 -0.45593999997E+02  0.45594000000E+02  0.51100000000E-03 0.  1.
    9900012    2    1    2    0    0 -0.82646694371E+00 -0.37001671655E+02 -0.22667530392E+02  0.47787266286E+02  0.19999978304E+02 0.  0.
         12    1    1    2    0    0  0.82646694371E+00  0.37001671655E+02  0.22667530392E+02  0.43400733714E+02  0.00000000000E+00 0. -1.
         11    1    3    3    0    0 -0.21979379876E+01  0.64409248931E+00  0.15125193367E+01  0.27447224882E+01  0.51100000000E-03 0. -1.
        -11    1    3    3    0    0 -0.97126047357E+00 -0.10851732145E+02 -0.48795813239E+01  0.11937912364E+02  0.51100000000E-03 0.  1.
        -12    1    3    3    0    0  0.23427315175E+01 -0.26794031999E+02 -0.19300468404E+02  0.33104631434E+02  0.00000000000E+00 0.  1.
</event>
<event>
 7    1  0.1010838E-008  0.4778727E+02  0.7816164E-02  0.1312668E+00
        -11   -1    0    0    0    0  0.00000000000E+00  0.00000000000E+00  0.45593999997E+02  0.45594000000E+02  0.51100000000E-03 0.  1.
         11   -1    0    0    0    0 -0.00000000000E+00 -0.00000000000E+00 -0.45593999997E+02  0.45594000000E+02  0.51100000000E-03 0. -1.
    9900012    2    1    2    0    0  0.34017143365E+02  0.25617588766E+02  0.83783541957E+01  0.47787265952E+02  0.19999976781E+02 0.  0.
         12    1    1    2    0    0 -0.34017143365E+02 -0.25617588766E+02 -0.83783541957E+01  0.43400734048E+02  0.00000000000E+00 0. -1.
         11    1    3    3    0    0 -0.46550843779E+00 -0.11396082894E+01 -0.32447629904E+00  0.12730633482E+01  0.51100000000E-03 0. -1.
        -11    1    3    3    0    0  0.18627155711E+02  0.90347112979E+01 -0.12392430622E+01  0.20739639866E+02  0.51100000000E-03 0.  1.
        -12    1    3    3    0    0  0.15855496091E+02  0.17722485758E+02  0.99420735570E+01  0.25774562738E+02  0.00000000000E+00 0.  1.
</event>
<event>
 7    1  0.4875579E-009  0.4778727E+02  0.7816164E-02  0.1312668E+00
        -11   -1    0    0    0    0  0.00000000000E+00  0.00000000000E+00  0.45593999997E+02  0.45594000000E+02  0.51100000000E-03 0.  1.
         11   -1    0    0    0    0 -0.00000000000E+00 -0.00000000000E+00 -0.45593999997E+02  0.45594000000E+02  0.51100000000E-03 0. -1.
    9900012    2    1    2    0    0  0.22271488407E+02 -0.35751514680E+02  0.10461024142E+02  0.47787273925E+02  0.20000013132E+02 0.  0.
         12    1    1    2    0    0 -0.22271488407E+02  0.35751514680E+02 -0.10461024142E+02  0.43400726075E+02  0.00000000000E+00 0. -1.
         11    1    3    3    0    0  0.79136453715E+01 -0.20590887765E+02  0.35844724279E+01  0.22348576798E+02  0.51100000000E-03 0. -1.
        -11    1    3    3    0    0  0.36092537661E+00 -0.89675254941E+01  0.41666348401E+01  0.98948282839E+01  0.51100000000E-03 0.  1.
        -12    1    3    3    0    0  0.13996917659E+02 -0.61931014203E+01  0.27099168743E+01  0.15543868843E+02  0.00000000000E+00 0.  1.
</event>
<event>
 7    1  0.4875579E-009  0.4778727E+02  0.7816164E-02  0.1312668E+00
        -11   -1    0    0    0    0  0.00000000000E+00  0.00000000000E+00  0.45593999997E+02  0.45594000000E+02  0.51100000000E-03 0. -1.
         11   -1    0    0    0    0 -0.00000000000E+00 -0.00000000000E+00 -0.45593999997E+02  0.45594000000E+02  0.51100000000E-03 0.  1.
    9900012    2    1    2    0    0  0.35860005667E+02  0.22780767480E+02 -0.88724363776E+01  0.47787268432E+02  0.19999988088E+02 0.  0.
         12    1    1    2    0    0 -0.35860005667E+02 -0.22780767480E+02  0.88724363776E+01  0.43400731568E+02  0.00000000000E+00 0. -1.
         11    1    3    3    0    0  0.13131767248E+01  0.33856624563E+01 -0.22392912339E+01  0.42663296719E+01  0.51100000000E-03 0. -1.
        -11    1    3    3    0    0  0.21099249168E+02  0.19982570288E+02 -0.75644346247E+01  0.30028354970E+02  0.51100000000E-03 0.  1.
         12    1    3    3    0    0  0.13447579774E+02 -0.58746526496E+00  0.93128948104E+00  0.13492583790E+02  0.00000000000E+00 0. -1.
</event>
<event>
 7    1  0.4875579E-009  0.4778728E+02  0.7816164E-02  0.1312668E+00
        -11   -1    0    0    0    0  0.00000000000E+00  0.00000000000E+00  0.45593999997E+02  0.45594000000E+02  0.51100000000E-03 0.  1.
         11   -1    0    0    0    0 -0.00000000000E+00 -0.00000000000E+00 -0.45593999997E+02  0.45594000000E+02  0.51100000000E-03 0. -1.
    9900012    2    1    2    0    0  0.28908314274E+01 -0.16626416704E+02  0.39985342361E+02  0.47787282926E+02  0.20000054175E+02 0.  0.
         12    1    1    2    0    0 -0.28908314274E+01  0.16626416704E+02 -0.39985342361E+02  0.43400717074E+02  0.00000000000E+00 0. -1.
         11    1    3    3    0    0  0.77679648281E+00 -0.24917833509E+01 -0.14391475498E+01  0.29805272981E+01  0.51100000000E-03 0. -1.
        -11    1    3    3    0    0 -0.32865431832E+01 -0.91224832508E+01  0.22651954530E+02  0.24640050954E+02  0.51100000000E-03 0.  1.
        -12    1    3    3    0    0  0.54005781277E+01 -0.50121501021E+01  0.18772535382E+02  0.20166704674E+02  0.00000000000E+00 0.  1.
</event>
<event>
 7    1  0.4875579E-009  0.4778727E+02  0.7816164E-02  0.1312668E+00
        -11   -1    0    0    0    0  0.00000000000E+00  0.00000000000E+00  0.45593999997E+02  0.45594000000E+02  0.51100000000E-03 0.  1.
         11   -1    0    0    0    0 -0.00000000000E+00 -0.00000000000E+00 -0.45593999997E+02  0.45594000000E+02  0.51100000000E-03 0. -1.
    9900012    2    1    2    0    0 -0.13576849627E+02  0.23180095281E+02  0.34087768714E+02  0.47787266839E+02  0.19999980824E+02 0.  0.
         12    1    1    2    0    0  0.13576849627E+02 -0.23180095281E+02 -0.34087768714E+02  0.43400733161E+02  0.00000000000E+00 0. -1.
         11    1    3    3    0    0 -0.79240503961E+01  0.44558460202E+00  0.97630989711E+01  0.12582019794E+02  0.51100000000E-03 0. -1.
        -11    1    3    3    0    0 -0.12110476340E+00  0.10897966114E+01  0.65920982714E+01  0.66826703419E+01  0.51100000000E-03 0.  1.
         12    1    3    3    0    0 -0.55316944671E+01  0.21644714068E+02  0.17732571472E+02  0.28522576703E+02  0.00000000000E+00 0. -1.
</event>
<event>
 7    1  0.4875579E-009  0.4778727E+02  0.7816164E-02  0.1312668E+00
        -11   -1    0    0    0    0  0.00000000000E+00  0.00000000000E+00  0.45593999997E+02  0.45594000000E+02  0.51100000000E-03 0.  1.
         11   -1    0    0    0    0 -0.00000000000E+00 -0.00000000000E+00 -0.45593999997E+02  0.45594000000E+02  0.51100000000E-03 0. -1.
    9900012    2    1    2    0    0 -0.23516800032E+01 -0.54546176876E+01  0.42992329290E+02  0.47787266933E+02  0.19999981256E+02 0.  0.
         12    1    1    2    0    0  0.23516800032E+01  0.54546176876E+01 -0.42992329290E+02  0.43400733067E+02  0.00000000000E+00 0. -1.
         11    1    3    3    0    0  0.39679778345E+01 -0.59205548857E+00  0.62539360669E+01  0.74301476693E+01  0.51100000000E-03 0. -1.
        -11    1    3    3    0    0 -0.67457874026E+00 -0.68842815413E+01  0.31931192032E+02  0.32671844356E+02  0.51100000000E-03 0.  1.
        -12    1    3    3    0    0 -0.56450790975E+01  0.20217193422E+01  0.48072011915E+01  0.76852749080E+01  0.00000000000E+00 0.  1.
</event>
<event>
 7    1  0.4875579E-009  0.4778727E+02  0.7816164E-02  0.1312668E+00
        -11   -1    0    0    0    0  0.00000000000E+00  0.00000000000E+00  0.45593999997E+02  0.45594000000E+02  0.51100000000E-03 0.  1.
         11   -1    0    0    0    0 -0.00000000000E+00 -0.00000000000E+00 -0.45593999997E+02  0.45594000000E+02  0.51100000000E-03 0. -1.
    9900012    2    1    2    0    0  0.27877619775E+02  0.49877575498E+01  0.32887450256E+02  0.47787265052E+02  0.19999972677E+02 0.  0.
         12    1    1    2    0    0 -0.27877619775E+02 -0.49877575498E+01 -0.32887450256E+02  0.43400734948E+02  0.00000000000E+00 0. -1.
         11    1    3    3    0    0  0.89370587642E+01 -0.16044928723E+01  0.91867774302E+01  0.12916744812E+02  0.51100000000E-03 0.  1.
        -11    1    3    3    0    0 -0.13661981878E+01 -0.27077442658E+01  0.44439905194E+01  0.53802814512E+01  0.51100000000E-03 0. -1.
         12    1    3    3    0    0  0.20306759198E+02  0.92999946878E+01  0.19256682307E+02  0.29490238788E+02  0.00000000000E+00 0. -1.
</event>
<event>
 7    1  0.4875579E-009  0.4778727E+02  0.7816164E-02  0.1312668E+00
        -11   -1    0    0    0    0  0.00000000000E+00  0.00000000000E+00  0.45593999997E+02  0.45594000000E+02  0.51100000000E-03 0.  1.
         11   -1    0    0    0    0 -0.00000000000E+00 -0.00000000000E+00 -0.45593999997E+02  0.45594000000E+02  0.51100000000E-03 0. -1.
    9900012    2    1    2    0    0 -0.12238646795E+01 -0.29903089886E+02  0.31431363599E+02  0.47787271352E+02  0.20000001402E+02 0.  0.
         12    1    1    2    0    0  0.12238646795E+01  0.29903089886E+02 -0.31431363599E+02  0.43400728648E+02  0.00000000000E+00 0. -1.
         11    1    3    3    0    0  0.43582217538E+01 -0.82013084198E+01  0.78723040051E+01  0.12174922064E+02  0.51100000000E-03 0. -1.
        -11    1    3    3    0    0  0.44565045377E+01 -0.50690311999E+01  0.94026767014E+01  0.11574361296E+02  0.51100000000E-03 0.  1.
        -12    1    3    3    0    0 -0.10038590971E+02 -0.16632750266E+02  0.14156382893E+02  0.24037987992E+02  0.00000000000E+00 0.  1.
</event>
<event>
 7    1  0.4875579E-009  0.4778727E+02  0.7816164E-02  0.1312668E+00
        -11   -1    0    0    0    0  0.00000000000E+00  0.00000000000E+00  0.45593999997E+02  0.45594000000E+02  0.51100000000E-03 0.  1.
         11   -1    0    0    0    0 -0.00000000000E+00 -0.00000000000E+00 -0.45593999997E+02  0.45594000000E+02  0.51100000000E-03 0. -1.
    9900012    2    1    2    0    0  0.30654872205E+02  0.26368078862E+02 -0.15767895249E+02  0.47787270819E+02  0.19999998974E+02 0.  0.
         12    1    1    2    0    0 -0.30654872205E+02 -0.26368078862E+02  0.15767895249E+02  0.43400729181E+02  0.00000000000E+00 0. -1.
         11    1    3    3    0    0  0.74341097358E+01  0.99907088471E+01 -0.11284460571E+02  0.16805335506E+02  0.51100000000E-03 0. -1.
        -11    1    3    3    0    0  0.15777750307E+02  0.16636636496E+02 -0.51658343749E+01  0.23503210923E+02  0.51100000000E-03 0.  1.
         12    1    3    3    0    0  0.74430121629E+01 -0.25926648075E+00  0.68239969643E+00  0.74787243906E+01  0.00000000000E+00 0. -1.
</event>
<event>
 7    1  0.4875579E-009  0.4778727E+02  0.7816164E-02  0.1312668E+00
        -11   -1    0    0    0    0  0.00000000000E+00  0.00000000000E+00  0.45593999997E+02  0.45594000000E+02  0.51100000000E-03 0.  1.
         11   -1    0    0    0    0 -0.00000000000E+00 -0.00000000000E+00 -0.45593999997E+02  0.45594000000E+02  0.51100000000E-03 0. -1.
    9900012    2    1    2    0    0 -0.42113023024E+02 -0.81420188766E+01  0.66199732085E+01  0.47787271609E+02  0.20000002573E+02 0.  0.
         12    1    1    2    0    0  0.42113023024E+02  0.81420188766E+01 -0.66199732085E+01  0.43400728391E+02  0.00000000000E+00 0. -1.
         11    1    3    3    0    0 -0.99407074362E+01 -0.65685767665E+00 -0.22996927888E+01  0.10224368612E+02  0.51100000000E-03 0. -1.
        -11    1    3    3    0    0 -0.16723972184E+02  0.36128626741E+01  0.68465592596E+01  0.18428765457E+02  0.51100000000E-03 0.  1.
         12    1    3    3    0    0 -0.15448343404E+02 -0.11098023874E+02  0.20731067377E+01  0.19134137539E+02  0.00000000000E+00 0. -1.
</event>
<event>
 7    1  0.4875579E-009  0.4778727E+02  0.7816164E-02  0.1312668E+00
        -11   -1    0    0    0    0  0.00000000000E+00  0.00000000000E+00  0.45593999997E+02  0.45594000000E+02  0.51100000000E-03 0.  1.
         11   -1    0    0    0    0 -0.00000000000E+00 -0.00000000000E+00 -0.45593999997E+02  0.45594000000E+02  0.51100000000E-03 0. -1.
    9900012    2    1    2    0    0  0.28756073416E+02  0.38262278785E+01  0.32281132290E+02  0.47787270973E+02  0.19999999675E+02 0.  0.
         12    1    1    2    0    0 -0.28756073416E+02 -0.38262278785E+01 -0.32281132290E+02  0.43400729027E+02  0.00000000000E+00 0. -1.
         11    1    3    3    0    0  0.49868077833E+00  0.13477340692E+01  0.48221864959E+01  0.50317544159E+01  0.51100000000E-03 0. -1.
        -11    1    3    3    0    0  0.15413568493E+02 -0.54670259794E+01  0.20224065666E+02  0.26009215657E+02  0.51100000000E-03 0.  1.
         12    1    3    3    0    0  0.12843824145E+02  0.79455197887E+01  0.72348801287E+01  0.16746300901E+02  0.00000000000E+00 0. -1.
</event>
<event>
 7    1  0.4875579E-009  0.4778725E+02  0.7816164E-02  0.1312668E+00
        -11   -1    0    0    0    0  0.00000000000E+00  0.00000000000E+00  0.45593999997E+02  0.45594000000E+02  0.51100000000E-03 0.  1.
         11   -1    0    0    0    0 -0.00000000000E+00 -0.00000000000E+00 -0.45593999997E+02  0.45594000000E+02  0.51100000000E-03 0. -1.
    9900012    2    1    2    0    0  0.18417928706E+02  0.31823680602E+02  0.23057713429E+02  0.47787252386E+02  0.19999914928E+02 0.  0.
         12    1    1    2    0    0 -0.18417928706E+02 -0.31823680602E+02 -0.23057713429E+02  0.43400747614E+02  0.00000000000E+00 0. -1.
         11    1    3    3    0    0  0.72484279145E+00 -0.20062618576E+01  0.10127026624E+01  0.23613662692E+01  0.51100000000E-03 0. -1.
        -11    1    3    3    0    0  0.36245194428E+01  0.21194063330E+01  0.56932821029E+01  0.70740713709E+01  0.51100000000E-03 0.  1.
        -12    1    3    3    0    0  0.14068566471E+02  0.31710536127E+02  0.16351728664E+02  0.38351814746E+02  0.00000000000E+00 0.  1.
</event>
<event>
 7    1  0.4875579E-009  0.4778727E+02  0.7816164E-02  0.1312668E+00
        -11   -1    0    0    0    0  0.00000000000E+00  0.00000000000E+00  0.45593999997E+02  0.45594000000E+02  0.51100000000E-03 0. -1.
         11   -1    0    0    0    0 -0.00000000000E+00 -0.00000000000E+00 -0.45593999997E+02  0.45594000000E+02  0.51100000000E-03 0.  1.
    9900012    2    1    2    0    0 -0.34378356199E+02 -0.11976725262E+02 -0.23628586505E+02  0.47787269324E+02  0.19999992157E+02 0.  0.
         12    1    1    2    0    0  0.34378356199E+02  0.11976725262E+02  0.23628586505E+02  0.43400730676E+02  0.00000000000E+00 0. -1.
         11    1    3    3    0    0 -0.33783484488E+01 -0.21862821918E+01 -0.42451436949E+01  0.58493002415E+01  0.51100000000E-03 0. -1.
        -11    1    3    3    0    0 -0.15443269912E+02 -0.76599516017E+01 -0.19771395546E+02  0.26231231885E+02  0.51100000000E-03 0.  1.
         12    1    3    3    0    0 -0.15556737839E+02 -0.21304914687E+01  0.38795273543E+00  0.15706737198E+02  0.00000000000E+00 0. -1.
</event>
<event>
 7    1  0.4875579E-009  0.4778725E+02  0.7816164E-02  0.1312668E+00
        -11   -1    0    0    0    0  0.00000000000E+00  0.00000000000E+00  0.45593999997E+02  0.45594000000E+02  0.51100000000E-03 0. -1.
         11   -1    0    0    0    0 -0.00000000000E+00 -0.00000000000E+00 -0.45593999997E+02  0.45594000000E+02  0.51100000000E-03 0.  1.
    9900012    2    1    2    0    0  0.11689700358E+02  0.40602687279E+02  0.99195532851E+01  0.47787252932E+02  0.19999917416E+02 0.  0.
         12    1    1    2    0    0 -0.11689700358E+02 -0.40602687279E+02 -0.99195532851E+01  0.43400747068E+02  0.00000000000E+00 0. -1.
         11    1    3    3    0    0  0.39432427144E+01  0.15659968565E+01 -0.48203579977E+00  0.42701133513E+01  0.51100000000E-03 0. -1.
        -11    1    3    3    0    0  0.66685896049E+01  0.60018937277E+01  0.41226114214E+01  0.98736386824E+01  0.51100000000E-03 0.  1.
        -12    1    3    3    0    0  0.10778680384E+01  0.33034796695E+02  0.62789776635E+01  0.33643500898E+02  0.00000000000E+00 0.  1.
</event>
<event>
 7    1  0.4875579E-009  0.4778727E+02  0.7816164E-02  0.1312668E+00
        -11   -1    0    0    0    0  0.00000000000E+00  0.00000000000E+00  0.45593999997E+02  0.45594000000E+02  0.51100000000E-03 0.  1.
         11   -1    0    0    0    0 -0.00000000000E+00 -0.00000000000E+00 -0.45593999997E+02  0.45594000000E+02  0.51100000000E-03 0. -1.
    9900012    2    1    2    0    0  0.44515103086E+01  0.64292904741E+01  0.42690414043E+02  0.47787272227E+02  0.20000005393E+02 0.  0.
         12    1    1    2    0    0 -0.44515103086E+01 -0.64292904741E+01 -0.42690414043E+02  0.43400727773E+02  0.00000000000E+00 0. -1.
         11    1    3    3    0    0 -0.58766182212E+00 -0.21821101731E+01  0.22079653075E+02  0.22195000144E+02  0.51100000000E-03 0. -1.
        -11    1    3    3    0    0  0.24353078270E+01  0.75514242521E+01  0.42680108008E+01  0.90094755066E+01  0.51100000000E-03 0.  1.
        -12    1    3    3    0    0  0.26038643037E+01  0.10599763951E+01  0.16342750167E+02  0.16582796577E+02  0.00000000000E+00 0.  1.
</event>
<event>
 7    1  0.4875579E-009  0.4778728E+02  0.7816164E-02  0.1312668E+00
        -11   -1    0    0    0    0  0.00000000000E+00  0.00000000000E+00  0.45593999997E+02  0.45594000000E+02  0.51100000000E-03 0.  1.
         11   -1    0    0    0    0 -0.00000000000E+00 -0.00000000000E+00 -0.45593999997E+02  0.45594000000E+02  0.51100000000E-03 0. -1.
    9900012    2    1    2    0    0  0.25172387093E+02  0.34417209414E+02  0.80888453129E+01  0.47787276569E+02  0.20000025189E+02 0.  0.
         12    1    1    2    0    0 -0.25172387093E+02 -0.34417209414E+02 -0.80888453129E+01  0.43400723431E+02  0.00000000000E+00 0. -1.
         11    1    3    3    0    0  0.15996946583E+02  0.25556289268E+02 -0.14433563000E+01  0.30184590419E+02  0.51100000000E-03 0. -1.
        -11    1    3    3    0    0  0.41310897277E+01  0.44401425368E+01  0.14629077073E+00  0.60664791549E+01  0.51100000000E-03 0.  1.
        -12    1    3    3    0    0  0.50443507828E+01  0.44207776097E+01  0.93859108421E+01  0.11536206995E+02  0.00000000000E+00 0.  1.
</event>
<event>
 7    1  0.4875579E-009  0.4778726E+02  0.7816164E-02  0.1312668E+00
        -11   -1    0    0    0    0  0.00000000000E+00  0.00000000000E+00  0.45593999997E+02  0.45594000000E+02  0.51100000000E-03 0.  1.
         11   -1    0    0    0    0 -0.00000000000E+00 -0.00000000000E+00 -0.45593999997E+02  0.45594000000E+02  0.51100000000E-03 0. -1.
    9900012    2    1    2    0    0 -0.31142526571E+02  0.16622874314E+02  0.25247726374E+02  0.47787255781E+02  0.19999930408E+02 0.  0.
         12    1    1    2    0    0  0.31142526571E+02 -0.16622874314E+02 -0.25247726374E+02  0.43400744219E+02  0.00000000000E+00 0. -1.
         11    1    3    3    0    0 -0.95535689927E+00 -0.97088411021E+00  0.15701515770E+01  0.20786291146E+01  0.51100000000E-03 0. -1.
        -11    1    3    3    0    0 -0.52621173973E+01  0.11671714554E+02  0.12022904390E+02  0.17563286434E+02  0.51100000000E-03 0.  1.
         12    1    3    3    0    0 -0.24925052275E+02  0.59220438701E+01  0.11654670407E+02  0.28145340232E+02  0.00000000000E+00 0. -1.
</event>
<event>
 7    1  0.4875579E-009  0.4778728E+02  0.7816164E-02  0.1312668E+00
        -11   -1    0    0    0    0  0.00000000000E+00  0.00000000000E+00  0.45593999997E+02  0.45594000000E+02  0.51100000000E-03 0. -1.
         11   -1    0    0    0    0 -0.00000000000E+00 -0.00000000000E+00 -0.45593999997E+02  0.45594000000E+02  0.51100000000E-03 0.  1.
    9900012    2    1    2    0    0  0.17648081565E+02  0.34249210420E+02 -0.19978975777E+02  0.47787277996E+02  0.20000031696E+02 0.  0.
         12    1    1    2    0    0 -0.17648081565E+02 -0.34249210420E+02  0.19978975777E+02  0.43400722004E+02  0.00000000000E+00 0. -1.
         11    1    3    3    0    0  0.43162460928E+01  0.70761301707E+01 -0.64624451001E+01  0.10510223378E+02  0.51100000000E-03 0.  1.
        -11    1    3    3    0    0 -0.32480268455E+01  0.49172403175E+01  0.96760199090E+00  0.59720335400E+01  0.51100000000E-03 0. -1.
         12    1    3    3    0    0  0.16579862318E+02  0.22255839932E+02 -0.14484132668E+02  0.31305021078E+02  0.00000000000E+00 0. -1.
</event>
<event>
 7    1  0.4875579E-009  0.4778727E+02  0.7816164E-02  0.1312668E+00
        -11   -1    0    0    0    0  0.00000000000E+00  0.00000000000E+00  0.45593999997E+02  0.45594000000E+02  0.51100000000E-03 0.  1.
         11   -1    0    0    0    0 -0.00000000000E+00 -0.00000000000E+00 -0.45593999997E+02  0.45594000000E+02  0.51100000000E-03 0. -1.
    9900012    2    1    2    0    0 -0.41383212671E+02  0.11176591871E+02 -0.67924075143E+01  0.47787270782E+02  0.19999998805E+02 0.  0.
         12    1    1    2    0    0  0.41383212671E+02 -0.11176591871E+02  0.67924075143E+01  0.43400729218E+02  0.00000000000E+00 0. -1.
         11    1    3    3    0    0 -0.27724546819E+02  0.75730436974E+01 -0.70109215110E+01  0.29583010460E+02  0.51100000000E-03 0. -1.
        -11    1    3    3    0    0 -0.14526136460E+02  0.52227509428E+01 -0.17219277160E+01  0.15532250423E+02  0.51100000000E-03 0.  1.
        -12    1    3    3    0    0  0.86747060861E+00 -0.16192027697E+01  0.19404417128E+01  0.26720099002E+01  0.00000000000E+00 0.  1.
</event>
<event>
 7    1  0.4875579E-009  0.4778727E+02  0.7816164E-02  0.1312668E+00
        -11   -1    0    0    0    0  0.00000000000E+00  0.00000000000E+00  0.45593999997E+02  0.45594000000E+02  0.51100000000E-03 0.  1.
         11   -1    0    0    0    0 -0.00000000000E+00 -0.00000000000E+00 -0.45593999997E+02  0.45594000000E+02  0.51100000000E-03 0. -1.
    9900012    2    1    2    0    0  0.17135960596E+01  0.38562837661E+02  0.19839222680E+02  0.47787267097E+02  0.19999982003E+02 0.  0.
         12    1    1    2    0    0 -0.17135960596E+01 -0.38562837661E+02 -0.19839222680E+02  0.43400732903E+02  0.00000000000E+00 0. -1.
         11    1    3    3    0    0 -0.11433468440E+00  0.17081261330E+02  0.13366924320E+02  0.21690025981E+02  0.51100000000E-03 0. -1.
        -11    1    3    3    0    0 -0.49271687755E+01  0.10604136511E+02  0.63209033846E+01  0.13292047365E+02  0.51100000000E-03 0.  1.
         12    1    3    3    0    0  0.67550995196E+01  0.10877439820E+02  0.15139497613E+00  0.12805193751E+02  0.00000000000E+00 0. -1.
</event>
<event>
 7    1  0.4875579E-009  0.4778727E+02  0.7816164E-02  0.1312668E+00
        -11   -1    0    0    0    0  0.00000000000E+00  0.00000000000E+00  0.45593999997E+02  0.45594000000E+02  0.51100000000E-03 0.  1.
         11   -1    0    0    0    0 -0.00000000000E+00 -0.00000000000E+00 -0.45593999997E+02  0.45594000000E+02  0.51100000000E-03 0. -1.
    9900012    2    1    2    0    0 -0.40118054212E+02  0.11734167338E+02 -0.11682230835E+02  0.47787268737E+02  0.19999989481E+02 0.  0.
         12    1    1    2    0    0  0.40118054212E+02 -0.11734167338E+02  0.11682230835E+02  0.43400731263E+02  0.00000000000E+00 0. -1.
         11    1    3    3    0    0 -0.55312267462E+01  0.42893356603E+01 -0.24773018193E+01  0.74249507937E+01  0.51100000000E-03 0. -1.
        -11    1    3    3    0    0 -0.22136945815E+02  0.77572126906E+01  0.20897134929E+01  0.23549641643E+02  0.51100000000E-03 0.  1.
         12    1    3    3    0    0 -0.12449881650E+02 -0.31238101278E+00 -0.11294642509E+02  0.16812676301E+02  0.00000000000E+00 0. -1.
</event>
<event>
 7    1  0.4875579E-009  0.4778727E+02  0.7816164E-02  0.1312668E+00
        -11   -1    0    0    0    0  0.00000000000E+00  0.00000000000E+00  0.45593999997E+02  0.45594000000E+02  0.51100000000E-03 0.  1.
         11   -1    0    0    0    0 -0.00000000000E+00 -0.00000000000E+00 -0.45593999997E+02  0.45594000000E+02  0.51100000000E-03 0. -1.
    9900012    2    1    2    0    0  0.10124324918E+02  0.30549230296E+02  0.29118134499E+02  0.47787272087E+02  0.20000004751E+02 0.  0.
         12    1    1    2    0    0 -0.10124324918E+02 -0.30549230296E+02 -0.29118134499E+02  0.43400727913E+02  0.00000000000E+00 0. -1.
         11    1    3    3    0    0  0.60542382318E+01  0.91980337222E+00  0.43720681898E+01  0.75242819809E+01  0.51100000000E-03 0. -1.
        -11    1    3    3    0    0  0.51126439219E+01  0.52343930260E+01  0.50251199809E+01  0.88763635182E+01  0.51100000000E-03 0.  1.
        -12    1    3    3    0    0 -0.10425572358E+01  0.24395033898E+02  0.19720946328E+02  0.31386626587E+02  0.00000000000E+00 0.  1.
</event>
<event>
 7    1  0.4875579E-009  0.4778727E+02  0.7816164E-02  0.1312668E+00
        -11   -1    0    0    0    0  0.00000000000E+00  0.00000000000E+00  0.45593999997E+02  0.45594000000E+02  0.51100000000E-03 0.  1.
         11   -1    0    0    0    0 -0.00000000000E+00 -0.00000000000E+00 -0.45593999997E+02  0.45594000000E+02  0.51100000000E-03 0. -1.
    9900012    2    1    2    0    0  0.29559977576E+02 -0.31701581704E+02  0.22002742446E+01  0.47787265403E+02  0.19999974278E+02 0.  0.
         12    1    1    2    0    0 -0.29559977576E+02  0.31701581704E+02 -0.22002742446E+01  0.43400734597E+02  0.00000000000E+00 0. -1.
         11    1    3    3    0    0  0.11979644354E+02 -0.12060973248E+02 -0.57115150282E+01  0.17933219419E+02  0.51100000000E-03 0. -1.
        -11    1    3    3    0    0  0.79442285428E+01 -0.95374049010E+01 -0.22120036114E+01  0.12608164800E+02  0.51100000000E-03 0.  1.
        -12    1    3    3    0    0  0.96361046791E+01 -0.10103203555E+02  0.10123792884E+02  0.17245881184E+02  0.00000000000E+00 0.  1.
</event>
<event>
 7    1  0.4875579E-009  0.4778727E+02  0.7816164E-02  0.1312668E+00
        -11   -1    0    0    0    0  0.00000000000E+00  0.00000000000E+00  0.45593999997E+02  0.45594000000E+02  0.51100000000E-03 0.  1.
         11   -1    0    0    0    0 -0.00000000000E+00 -0.00000000000E+00 -0.45593999997E+02  0.45594000000E+02  0.51100000000E-03 0. -1.
    9900012    2    1    2    0    0  0.34748611608E+02  0.23946553290E+02  0.10135091678E+02  0.47787268365E+02  0.19999987783E+02 0.  0.
         12    1    1    2    0    0 -0.34748611608E+02 -0.23946553290E+02 -0.10135091678E+02  0.43400731635E+02  0.00000000000E+00 0. -1.
         11    1    3    3    0    0  0.59874093646E+01  0.13241176685E+02  0.50224704018E+01  0.15375403738E+02  0.51100000000E-03 0. -1.
        -11    1    3    3    0    0  0.45551428837E+01  0.37733991006E+01  0.41289150894E+01  0.72135849298E+01  0.51100000000E-03 0.  1.
        -12    1    3    3    0    0  0.24206059360E+02  0.69319775038E+01  0.98370618715E+00  0.25198279697E+02  0.00000000000E+00 0.  1.
</event>
<event>
 7    1  0.4875579E-009  0.4778727E+02  0.7816164E-02  0.1312668E+00
        -11   -1    0    0    0    0  0.00000000000E+00  0.00000000000E+00  0.45593999997E+02  0.45594000000E+02  0.51100000000E-03 0.  1.
         11   -1    0    0    0    0 -0.00000000000E+00 -0.00000000000E+00 -0.45593999997E+02  0.45594000000E+02  0.51100000000E-03 0. -1.
    9900012    2    1    2    0    0  0.39738297153E+02 -0.45697463452E+01  0.16840678298E+02  0.47787270884E+02  0.19999999267E+02 0.  0.
         12    1    1    2    0    0 -0.39738297153E+02  0.45697463452E+01 -0.16840678298E+02  0.43400729116E+02  0.00000000000E+00 0. -1.
         11    1    3    3    0    0  0.14713947778E+02 -0.28810641491E+01  0.78770939466E+01  0.16936628920E+02  0.51100000000E-03 0.  1.
        -11    1    3    3    0    0  0.20486302388E+02  0.29228030979E+01  0.11774453827E+01  0.20727222230E+02  0.51100000000E-03 0. -1.
         12    1    3    3    0    0  0.45380469866E+01 -0.46114852940E+01  0.77861389689E+01  0.10123419734E+02  0.00000000000E+00 0. -1.
</event>
<event>
 7    1  0.4875579E-009  0.4778727E+02  0.7816164E-02  0.1312668E+00
        -11   -1    0    0    0    0  0.00000000000E+00  0.00000000000E+00  0.45593999997E+02  0.45594000000E+02  0.51100000000E-03 0.  1.
         11   -1    0    0    0    0 -0.00000000000E+00 -0.00000000000E+00 -0.45593999997E+02  0.45594000000E+02  0.51100000000E-03 0. -1.
    9900012    2    1    2    0    0  0.19112081156E+02  0.20917435484E+02  0.32875718779E+02  0.47787266843E+02  0.19999980843E+02 0.  0.
         12    1    1    2    0    0 -0.19112081156E+02 -0.20917435484E+02 -0.32875718779E+02  0.43400733157E+02  0.00000000000E+00 0. -1.
         11    1    3    3    0    0  0.16575735547E+01  0.21605083000E+01 -0.11693230598E+01  0.29635557837E+01  0.51100000000E-03 0. -1.
        -11    1    3    3    0    0  0.11519347520E+02  0.19037845308E+02  0.30965406482E+02  0.38131238114E+02  0.51100000000E-03 0.  1.
         12    1    3    3    0    0  0.59351600812E+01 -0.28091812454E+00  0.30796353569E+01  0.66924729446E+01  0.00000000000E+00 0. -1.
</event>
<event>
 7    1  0.4875579E-009  0.4778727E+02  0.7816164E-02  0.1312668E+00
        -11   -1    0    0    0    0  0.00000000000E+00  0.00000000000E+00  0.45593999997E+02  0.45594000000E+02  0.51100000000E-03 0.  1.
         11   -1    0    0    0    0 -0.00000000000E+00 -0.00000000000E+00 -0.45593999997E+02  0.45594000000E+02  0.51100000000E-03 0. -1.
    9900012    2    1    2    0    0 -0.56557051255E+01 -0.12093045759E+02  0.41296421967E+02  0.47787271625E+02  0.20000002648E+02 0.  0.
         12    1    1    2    0    0  0.56557051255E+01  0.12093045759E+02 -0.41296421967E+02  0.43400728375E+02  0.00000000000E+00 0. -1.
         11    1    3    3    0    0  0.28557697876E+01 -0.34895438963E+01  0.44062368509E+01  0.63045428963E+01  0.51100000000E-03 0. -1.
        -11    1    3    3    0    0 -0.60502961935E+01 -0.12719294338E+02  0.25660658083E+02  0.29272101155E+02  0.51100000000E-03 0.  1.
        -12    1    3    3    0    0 -0.24611787196E+01  0.41157924748E+01  0.11229527032E+02  0.12210627574E+02  0.00000000000E+00 0.  1.
</event>
<event>
 7    1  0.4875579E-009  0.4778726E+02  0.7816164E-02  0.1312668E+00
        -11   -1    0    0    0    0  0.00000000000E+00  0.00000000000E+00  0.45593999997E+02  0.45594000000E+02  0.51100000000E-03 0.  1.
         11   -1    0    0    0    0 -0.00000000000E+00 -0.00000000000E+00 -0.45593999997E+02  0.45594000000E+02  0.51100000000E-03 0. -1.
    9900012    2    1    2    0    0 -0.37893523672E+02 -0.29140878258E+01  0.20957414376E+02  0.47787259667E+02  0.19999948124E+02 0.  0.
         12    1    1    2    0    0  0.37893523672E+02  0.29140878258E+01 -0.20957414376E+02  0.43400740333E+02  0.00000000000E+00 0. -1.
         11    1    3    3    0    0 -0.17200595938E+02 -0.76148950594E+00  0.61275573225E+01  0.18275320131E+02  0.51100000000E-03 0. -1.
        -11    1    3    3    0    0 -0.22999000668E+02 -0.13532730881E+01  0.12931116979E+02  0.26419673850E+02  0.51100000000E-03 0.  1.
         12    1    3    3    0    0  0.23060729333E+01 -0.79932523180E+00  0.18987400751E+01  0.30922656860E+01  0.00000000000E+00 0. -1.
</event>
<event>
 7    1  0.4875579E-009  0.4778728E+02  0.7816164E-02  0.1312668E+00
        -11   -1    0    0    0    0  0.00000000000E+00  0.00000000000E+00  0.45593999997E+02  0.45594000000E+02  0.51100000000E-03 0. -1.
         11   -1    0    0    0    0 -0.00000000000E+00 -0.00000000000E+00 -0.45593999997E+02  0.45594000000E+02  0.51100000000E-03 0.  1.
    9900012    2    1    2    0    0  0.14882374117E+02 -0.26278845111E+02 -0.31169859374E+02  0.47787275431E+02  0.20000020000E+02 0.  0.
         12    1    1    2    0    0 -0.14882374117E+02  0.26278845111E+02  0.31169859374E+02  0.43400724569E+02  0.00000000000E+00 0. -1.
         11    1    3    3    0    0 -0.30651271113E+00 -0.80805049143E+01 -0.11292456361E+02  0.13889135345E+02  0.51100000000E-03 0. -1.
        -11    1    3    3    0    0  0.28321254007E+01 -0.90628256420E+01 -0.15042237801E+02  0.17788329355E+02  0.51100000000E-03 0.  1.
        -12    1    3    3    0    0  0.12356761428E+02 -0.91355145544E+01 -0.48351652113E+01  0.16109810731E+02  0.00000000000E+00 0.  1.
</event>
<event>
 7    1  0.4875579E-009  0.4778727E+02  0.7816164E-02  0.1312668E+00
        -11   -1    0    0    0    0  0.00000000000E+00  0.00000000000E+00  0.45593999997E+02  0.45594000000E+02  0.51100000000E-03 0.  1.
         11   -1    0    0    0    0 -0.00000000000E+00 -0.00000000000E+00 -0.45593999997E+02  0.45594000000E+02  0.51100000000E-03 0. -1.
    9900012    2    1    2    0    0 -0.21477106263E+02 -0.11621346531E+02  0.35878986424E+02  0.47787268953E+02  0.19999990463E+02 0.  0.
         12    1    1    2    0    0  0.21477106263E+02  0.11621346531E+02 -0.35878986424E+02  0.43400731047E+02  0.00000000000E+00 0. -1.
         11    1    3    3    0    0 -0.21925737471E+01  0.18202640898E+01  0.40062348171E+00  0.28777144452E+01  0.51100000000E-03 0. -1.
        -11    1    3    3    0    0 -0.78272592631E+01  0.19984950168E+01  0.79711687531E+01  0.11348986803E+02  0.51100000000E-03 0.  1.
         12    1    3    3    0    0 -0.11457273253E+02 -0.15440105637E+02  0.27507194189E+02  0.33560567704E+02  0.00000000000E+00 0. -1.
</event>
<event>
 7    1  0.4875579E-009  0.4778727E+02  0.7816164E-02  0.1312668E+00
        -11   -1    0    0    0    0  0.00000000000E+00  0.00000000000E+00  0.45593999997E+02  0.45594000000E+02  0.51100000000E-03 0.  1.
         11   -1    0    0    0    0 -0.00000000000E+00 -0.00000000000E+00 -0.45593999997E+02  0.45594000000E+02  0.51100000000E-03 0. -1.
    9900012    2    1    2    0    0  0.20062487819E+02 -0.34664648596E+02  0.16717715189E+02  0.47787270964E+02  0.19999999631E+02 0.  0.
         12    1    1    2    0    0 -0.20062487819E+02  0.34664648596E+02 -0.16717715189E+02  0.43400729036E+02  0.00000000000E+00 0. -1.
         11    1    3    3    0    0  0.86494692671E+01 -0.27578027600E+02  0.17750618204E+02  0.33918215929E+02  0.51100000000E-03 0.  1.
        -11    1    3    3    0    0  0.45815926324E+01 -0.45402942421E+01 -0.12726349983E+01  0.65745618070E+01  0.51100000000E-03 0. -1.
        -12    1    3    3    0    0  0.68314259193E+01 -0.25463267541E+01  0.23973198323E+00  0.72944932280E+01  0.00000000000E+00 0.  1.
</event>
<event>
 7    1  0.4875579E-009  0.4778727E+02  0.7816164E-02  0.1312668E+00
        -11   -1    0    0    0    0  0.00000000000E+00  0.00000000000E+00  0.45593999997E+02  0.45594000000E+02  0.51100000000E-03 0.  1.
         11   -1    0    0    0    0 -0.00000000000E+00 -0.00000000000E+00 -0.45593999997E+02  0.45594000000E+02  0.51100000000E-03 0. -1.
    9900012    2    1    2    0    0  0.29526168907E+02 -0.31416973391E+02  0.49801708666E+01  0.47787274554E+02  0.20000016000E+02 0.  0.
         12    1    1    2    0    0 -0.29526168907E+02  0.31416973391E+02 -0.49801708666E+01  0.43400725446E+02  0.00000000000E+00 0. -1.
         11    1    3    3    0    0 -0.12301612916E+01  0.94839709648E-01 -0.50177267909E+00  0.13319412362E+01  0.51100000000E-03 0. -1.
        -11    1    3    3    0    0  0.16124166859E+02 -0.79286580714E+01 -0.85126962410E+00  0.17988247162E+02  0.51100000000E-03 0.  1.
        -12    1    3    3    0    0  0.14632163339E+02 -0.23583155030E+02  0.63332131697E+01  0.28467086156E+02  0.00000000000E+00 0.  1.
</event>
<event>
 7    1  0.4875579E-009  0.4778727E+02  0.7816164E-02  0.1312668E+00
        -11   -1    0    0    0    0  0.00000000000E+00  0.00000000000E+00  0.45593999997E+02  0.45594000000E+02  0.51100000000E-03 0.  1.
         11   -1    0    0    0    0 -0.00000000000E+00 -0.00000000000E+00 -0.45593999997E+02  0.45594000000E+02  0.51100000000E-03 0. -1.
    9900012    2    1    2    0    0  0.25705745936E+02  0.34067654688E+02  0.78887637407E+01  0.47787273469E+02  0.20000011056E+02 0.  0.
         12    1    1    2    0    0 -0.25705745936E+02 -0.34067654688E+02 -0.78887637407E+01  0.43400726531E+02  0.00000000000E+00 0. -1.
         11    1    3    3    0    0  0.59566406698E+01  0.86289449923E+01 -0.24613438509E+01  0.10770258751E+02  0.51100000000E-03 0. -1.
        -11    1    3    3    0    0  0.17440469685E+02  0.25598532183E+02  0.52505274362E+01  0.31416920145E+02  0.51100000000E-03 0.  1.
        -12    1    3    3    0    0  0.23086355808E+01 -0.15982248747E+00  0.50995801554E+01  0.56000945737E+01  0.00000000000E+00 0.  1.
</event>
<event>
 7    1  0.4875579E-009  0.4778727E+02  0.7816164E-02  0.1312668E+00
        -11   -1    0    0    0    0  0.00000000000E+00  0.00000000000E+00  0.45593999997E+02  0.45594000000E+02  0.51100000000E-03 0. -1.
         11   -1    0    0    0    0 -0.00000000000E+00 -0.00000000000E+00 -0.45593999997E+02  0.45594000000E+02  0.51100000000E-03 0.  1.
    9900012    2    1    2    0    0 -0.27119906694E+02  0.33096015313E+02 -0.72655105059E+01  0.47787271762E+02  0.20000003270E+02 0.  0.
         12    1    1    2    0    0  0.27119906694E+02 -0.33096015313E+02  0.72655105059E+01  0.43400728238E+02  0.00000000000E+00 0. -1.
         11    1    3    3    0    0 -0.21500150918E+02  0.13243313574E+02 -0.50566581322E+01  0.25752895675E+02  0.51100000000E-03 0. -1.
        -11    1    3    3    0    0 -0.69716194729E+01  0.11447495190E+02 -0.10822633567E+01  0.13446929702E+02  0.51100000000E-03 0.  1.
         12    1    3    3    0    0  0.13518636963E+01  0.84052065491E+01 -0.11265890170E+01  0.85874463841E+01  0.00000000000E+00 0. -1.
</event>
<event>
 7    1  0.4875579E-009  0.4778731E+02  0.7816164E-02  0.1312668E+00
        -11   -1    0    0    0    0  0.00000000000E+00  0.00000000000E+00  0.45593999997E+02  0.45594000000E+02  0.51100000000E-03 0.  1.
         11   -1    0    0    0    0 -0.00000000000E+00 -0.00000000000E+00 -0.45593999997E+02  0.45594000000E+02  0.51100000000E-03 0. -1.
    9900012    2    1    2    0    0  0.85160656465E+00  0.26711594268E+01  0.43310035209E+02  0.47787314795E+02  0.20000199475E+02 0.  0.
         12    1    1    2    0    0 -0.85160656465E+00 -0.26711594268E+01 -0.43310035209E+02  0.43400685205E+02  0.00000000000E+00 0. -1.
         11    1    3    3    0    0 -0.23099579070E+01 -0.22858865546E+01  0.51602783627E+00  0.32905117933E+01  0.51100000000E-03 0. -1.
        -11    1    3    3    0    0  0.49792803936E+01 -0.16298006354E+01  0.15547012730E+02  0.16406068647E+02  0.51100000000E-03 0.  1.
         12    1    3    3    0    0 -0.18177159219E+01  0.65868466168E+01  0.27246994643E+02  0.28090734355E+02  0.00000000000E+00 0. -1.
</event>
<event>
 7    1  0.4875579E-009  0.4778727E+02  0.7816164E-02  0.1312668E+00
        -11   -1    0    0    0    0  0.00000000000E+00  0.00000000000E+00  0.45593999997E+02  0.45594000000E+02  0.51100000000E-03 0.  1.
         11   -1    0    0    0    0 -0.00000000000E+00 -0.00000000000E+00 -0.45593999997E+02  0.45594000000E+02  0.51100000000E-03 0. -1.
    9900012    2    1    2    0    0 -0.15345622932E+02 -0.40135537802E+02 -0.61052311508E+01  0.47787269761E+02  0.19999994149E+02 0.  0.
         12    1    1    2    0    0  0.15345622932E+02  0.40135537802E+02  0.61052311508E+01  0.43400730239E+02  0.00000000000E+00 0. -1.
         11    1    3    3    0    0 -0.68131631291E+01 -0.11139183125E+02 -0.85927075951E+01  0.15631225691E+02  0.51100000000E-03 0. -1.
        -11    1    3    3    0    0 -0.19003320256E+00 -0.13262974430E+00  0.20955691748E+01  0.21083438274E+01  0.51100000000E-03 0.  1.
         12    1    3    3    0    0 -0.83424266001E+01 -0.28863724933E+02  0.39190726949E+00  0.30047700243E+02  0.00000000000E+00 0. -1.
</event>
<event>
 7    1  0.4875579E-009  0.4778727E+02  0.7816164E-02  0.1312668E+00
        -11   -1    0    0    0    0  0.00000000000E+00  0.00000000000E+00  0.45593999997E+02  0.45594000000E+02  0.51100000000E-03 0. -1.
         11   -1    0    0    0    0 -0.00000000000E+00 -0.00000000000E+00 -0.45593999997E+02  0.45594000000E+02  0.51100000000E-03 0.  1.
    9900012    2    1    2    0    0 -0.20640373859E+02 -0.35470787097E+02 -0.14121664630E+02  0.47787272100E+02  0.20000004811E+02 0.  0.
         12    1    1    2    0    0  0.20640373859E+02  0.35470787097E+02  0.14121664630E+02  0.43400727900E+02  0.00000000000E+00 0. -1.
         11    1    3    3    0    0 -0.22835019664E+02 -0.24279404055E+02 -0.11411876141E+02  0.35230079501E+02  0.51100000000E-03 0. -1.
        -11    1    3    3    0    0 -0.87079891931E+00 -0.32238189104E+00  0.56600952786E-01  0.93028209190E+00  0.51100000000E-03 0.  1.
        -12    1    3    3    0    0  0.30654447243E+01 -0.10869001151E+02 -0.27663894415E+01  0.11626910506E+02  0.00000000000E+00 0.  1.
</event>
<event>
 7    1  0.4875579E-009  0.4778727E+02  0.7816164E-02  0.1312668E+00
        -11   -1    0    0    0    0  0.00000000000E+00  0.00000000000E+00  0.45593999997E+02  0.45594000000E+02  0.51100000000E-03 0. -1.
         11   -1    0    0    0    0 -0.00000000000E+00 -0.00000000000E+00 -0.45593999997E+02  0.45594000000E+02  0.51100000000E-03 0.  1.
    9900012    2    1    2    0    0  0.36624372692E+01  0.41793141518E+02 -0.11114981410E+02  0.47787274932E+02  0.20000017725E+02 0.  0.
         12    1    1    2    0    0 -0.36624372692E+01 -0.41793141518E+02  0.11114981410E+02  0.43400725068E+02  0.00000000000E+00 0. -1.
         11    1    3    3    0    0 -0.25122109630E+01  0.24236156767E+02 -0.12641248092E+01  0.24398780924E+02  0.51100000000E-03 0. -1.
        -11    1    3    3    0    0 -0.11766770355E+01  0.11660309124E+02 -0.63949754519E+01  0.13350771101E+02  0.51100000000E-03 0.  1.
        -12    1    3    3    0    0  0.73513252677E+01  0.58966756267E+01 -0.34558811490E+01  0.10037722907E+02  0.00000000000E+00 0.  1.
</event>
<event>
 7    1  0.4875579E-009  0.4778727E+02  0.7816164E-02  0.1312668E+00
        -11   -1    0    0    0    0  0.00000000000E+00  0.00000000000E+00  0.45593999997E+02  0.45594000000E+02  0.51100000000E-03 0.  1.
         11   -1    0    0    0    0 -0.00000000000E+00 -0.00000000000E+00 -0.45593999997E+02  0.45594000000E+02  0.51100000000E-03 0. -1.
    9900012    2    1    2    0    0 -0.36079937977E+02  0.23415896515E+02 -0.57928294683E+01  0.47787274116E+02  0.20000014003E+02 0.  0.
         12    1    1    2    0    0  0.36079937977E+02 -0.23415896515E+02  0.57928294683E+01  0.43400725884E+02  0.00000000000E+00 0. -1.
         11    1    3    3    0    0 -0.19080171063E+02  0.11052096833E+02 -0.20902146998E+01  0.22148832248E+02  0.51100000000E-03 0.  1.
        -11    1    3    3    0    0 -0.83745758368E+01  0.32058226081E+01  0.50702532663E+01  0.10301373087E+02  0.51100000000E-03 0. -1.
         12    1    3    3    0    0 -0.86251910776E+01  0.91579770747E+01 -0.87728680348E+01  0.15337068781E+02  0.00000000000E+00 0. -1.
</event>
<event>
 7    1  0.4875579E-009  0.4778727E+02  0.7816164E-02  0.1312668E+00
        -11   -1    0    0    0    0  0.00000000000E+00  0.00000000000E+00  0.45593999997E+02  0.45594000000E+02  0.51100000000E-03 0. -1.
         11   -1    0    0    0    0 -0.00000000000E+00 -0.00000000000E+00 -0.45593999997E+02  0.45594000000E+02  0.51100000000E-03 0.  1.
    9900012    2    1    2    0    0  0.43398306914E+02 -0.39539518509E+00 -0.23201314455E+00  0.47787271775E+02  0.20000003329E+02 0.  0.
         12    1    1    2    0    0 -0.43398306914E+02  0.39539518509E+00  0.23201314455E+00  0.43400728225E+02  0.00000000000E+00 0. -1.
         11    1    3    3    0    0  0.26872953067E+01 -0.41270167024E+01  0.47046699921E+00  0.49472378542E+01  0.51100000000E-03 0. -1.
        -11    1    3    3    0    0  0.93433524684E+01  0.43407187046E+01  0.41243817490E+01  0.11097323970E+02  0.51100000000E-03 0.  1.
        -12    1    3    3    0    0  0.31367659139E+02 -0.60909718728E+00 -0.48268618928E+01  0.31742709950E+02  0.00000000000E+00 0.  1.
</event>
<event>
 7    1  0.4875579E-009  0.4778727E+02  0.7816164E-02  0.1312668E+00
        -11   -1    0    0    0    0  0.00000000000E+00  0.00000000000E+00  0.45593999997E+02  0.45594000000E+02  0.51100000000E-03 0.  1.
         11   -1    0    0    0    0 -0.00000000000E+00 -0.00000000000E+00 -0.45593999997E+02  0.45594000000E+02  0.51100000000E-03 0. -1.
    9900012    2    1    2    0    0  0.93260477154E+01 -0.41236312101E+02  0.98089000834E+01  0.47787272788E+02  0.20000007950E+02 0.  0.
         12    1    1    2    0    0 -0.93260477154E+01  0.41236312101E+02 -0.98089000834E+01  0.43400727212E+02  0.00000000000E+00 0. -1.
         11    1    3    3    0    0  0.15725749151E+01 -0.25291271183E+01 -0.18058311431E+01  0.34828870528E+01  0.51100000000E-03 0. -1.
        -11    1    3    3    0    0  0.72655742150E+01 -0.46678598781E+01  0.34257096407E+01  0.92904774538E+01  0.51100000000E-03 0.  1.
         12    1    3    3    0    0  0.48789858528E+00 -0.34039325105E+02  0.81890215857E+01  0.35013908281E+02  0.00000000000E+00 0. -1.
</event>
<event>
 7    1  0.4875579E-009  0.4778728E+02  0.7816164E-02  0.1312668E+00
        -11   -1    0    0    0    0  0.00000000000E+00  0.00000000000E+00  0.45593999997E+02  0.45594000000E+02  0.51100000000E-03 0.  1.
         11   -1    0    0    0    0 -0.00000000000E+00 -0.00000000000E+00 -0.45593999997E+02  0.45594000000E+02  0.51100000000E-03 0. -1.
    9900012    2    1    2    0    0 -0.58616097115E+01  0.26950200298E+02  0.33510461549E+02  0.47787276530E+02  0.20000025011E+02 0.  0.
         12    1    1    2    0    0  0.58616097115E+01 -0.26950200298E+02 -0.33510461549E+02  0.43400723470E+02  0.00000000000E+00 0. -1.
         11    1    3    3    0    0 -0.12435527542E+02  0.13266454444E+02  0.13904669767E+02  0.22890631279E+02  0.51100000000E-03 0. -1.
        -11    1    3    3    0    0  0.24472601153E+01  0.42412361572E+01  0.79670831188E+01  0.93515549454E+01  0.51100000000E-03 0.  1.
         12    1    3    3    0    0  0.41266577150E+01  0.94425096973E+01  0.11638708663E+02  0.15545090306E+02  0.00000000000E+00 0. -1.
</event>
<event>
 7    1  0.4875579E-009  0.4778727E+02  0.7816164E-02  0.1312668E+00
        -11   -1    0    0    0    0  0.00000000000E+00  0.00000000000E+00  0.45593999997E+02  0.45594000000E+02  0.51100000000E-03 0.  1.
         11   -1    0    0    0    0 -0.00000000000E+00 -0.00000000000E+00 -0.45593999997E+02  0.45594000000E+02  0.51100000000E-03 0. -1.
    9900012    2    1    2    0    0  0.20856431113E+02 -0.37993203321E+02 -0.22691168057E+01  0.47787272950E+02  0.20000008689E+02 0.  0.
         12    1    1    2    0    0 -0.20856431113E+02  0.37993203321E+02  0.22691168057E+01  0.43400727050E+02  0.00000000000E+00 0. -1.
         11    1    3    3    0    0 -0.14577790303E+01  0.46408175430E+00 -0.39351336136E+00  0.15796659782E+01  0.51100000000E-03 0. -1.
        -11    1    3    3    0    0 -0.89700125385E+00 -0.85519897222E+00 -0.15920717414E+01  0.20175899540E+01  0.51100000000E-03 0.  1.
        -12    1    3    3    0    0  0.23211211397E+02 -0.37602086103E+02 -0.28353170298E+00  0.44190017018E+02  0.00000000000E+00 0.  1.
</event>
<event>
 7    1  0.4875579E-009  0.4778727E+02  0.7816164E-02  0.1312668E+00
        -11   -1    0    0    0    0  0.00000000000E+00  0.00000000000E+00  0.45593999997E+02  0.45594000000E+02  0.51100000000E-03 0.  1.
         11   -1    0    0    0    0 -0.00000000000E+00 -0.00000000000E+00 -0.45593999997E+02  0.45594000000E+02  0.51100000000E-03 0. -1.
    9900012    2    1    2    0    0 -0.53212020855E+01 -0.32707814376E+02  0.28026899417E+02  0.47787269547E+02  0.19999993174E+02 0.  0.
         12    1    1    2    0    0  0.53212020855E+01  0.32707814376E+02 -0.28026899417E+02  0.43400730453E+02  0.00000000000E+00 0. -1.
         11    1    3    3    0    0 -0.38163162752E+01 -0.22501564188E+01 -0.79510611582E+00  0.45010740738E+01  0.51100000000E-03 0. -1.
        -11    1    3    3    0    0 -0.22263454046E+01 -0.89304857833E+01  0.30445991387E+01  0.96943166012E+01  0.51100000000E-03 0.  1.
        -12    1    3    3    0    0  0.72145959438E+00 -0.21527172174E+02  0.25777406394E+02  0.33591878872E+02  0.00000000000E+00 0.  1.
</event>
<event>
 7    1  0.4875579E-009  0.4778727E+02  0.7816164E-02  0.1312668E+00
        -11   -1    0    0    0    0  0.00000000000E+00  0.00000000000E+00  0.45593999997E+02  0.45594000000E+02  0.51100000000E-03 0. -1.
         11   -1    0    0    0    0 -0.00000000000E+00 -0.00000000000E+00 -0.45593999997E+02  0.45594000000E+02  0.51100000000E-03 0.  1.
    9900012    2    1    2    0    0  0.36597015972E+02  0.23319287707E+02  0.70174154796E+00  0.47787271914E+02  0.20000003966E+02 0.  0.
         12    1    1    2    0    0 -0.36597015972E+02 -0.23319287707E+02 -0.70174154796E+00  0.43400728086E+02  0.00000000000E+00 0. -1.
         11    1    3    3    0    0  0.26164354491E+01  0.47448006874E+01  0.32770983344E+01  0.63323172518E+01  0.51100000000E-03 0. -1.
        -11    1    3    3    0    0  0.57893535824E+01  0.22391684895E+01  0.50388939895E+01  0.79950574310E+01  0.51100000000E-03 0.  1.
        -12    1    3    3    0    0  0.28191226940E+02  0.16335318530E+02 -0.76142507759E+01  0.33459897231E+02  0.00000000000E+00 0.  1.
</event>
<event>
 7    1  0.4875579E-009  0.4778727E+02  0.7816164E-02  0.1312668E+00
        -11   -1    0    0    0    0  0.00000000000E+00  0.00000000000E+00  0.45593999997E+02  0.45594000000E+02  0.51100000000E-03 0.  1.
         11   -1    0    0    0    0 -0.00000000000E+00 -0.00000000000E+00 -0.45593999997E+02  0.45594000000E+02  0.51100000000E-03 0. -1.
    9900012    2    1    2    0    0 -0.33622939625E+01 -0.18137816401E+02  0.39285342390E+02  0.47787268080E+02  0.19999986485E+02 0.  0.
         12    1    1    2    0    0  0.33622939625E+01  0.18137816401E+02 -0.39285342390E+02  0.43400731920E+02  0.00000000000E+00 0. -1.
         11    1    3    3    0    0 -0.84084525768E+01 -0.13344306182E+02  0.27885806251E+02  0.32037334046E+02  0.51100000000E-03 0. -1.
        -11    1    3    3    0    0  0.46328387333E+01 -0.71207393526E+01  0.91782453708E+01  0.12506330877E+02  0.51100000000E-03 0.  1.
        -12    1    3    3    0    0  0.41331988097E+00  0.23272291342E+01  0.22212907680E+01  0.32436031575E+01  0.00000000000E+00 0.  1.
</event>
<event>
 7    1  0.4875579E-009  0.4778727E+02  0.7816164E-02  0.1312668E+00
        -11   -1    0    0    0    0  0.00000000000E+00  0.00000000000E+00  0.45593999997E+02  0.45594000000E+02  0.51100000000E-03 0.  1.
         11   -1    0    0    0    0 -0.00000000000E+00 -0.00000000000E+00 -0.45593999997E+02  0.45594000000E+02  0.51100000000E-03 0. -1.
    9900012    2    1    2    0    0  0.26402028138E+02 -0.92727071301E+01  0.33174886444E+02  0.47787270998E+02  0.19999999789E+02 0.  0.
         12    1    1    2    0    0 -0.26402028138E+02  0.92727071301E+01 -0.33174886444E+02  0.43400729002E+02  0.00000000000E+00 0. -1.
         11    1    3    3    0    0 -0.74832428296E+00  0.22416579688E+01  0.43090881189E+01  0.49145966629E+01  0.51100000000E-03 0. -1.
        -11    1    3    3    0    0 -0.30803803805E+00 -0.11481640555E+01 -0.55807923150E+00  0.13132481948E+01  0.51100000000E-03 0.  1.
        -12    1    3    3    0    0  0.27458390459E+02 -0.10366201043E+02  0.29423877556E+02  0.41559426141E+02  0.00000000000E+00 0.  1.
</event>
<event>
 7    1  0.4875579E-009  0.4778727E+02  0.7816164E-02  0.1312668E+00
        -11   -1    0    0    0    0  0.00000000000E+00  0.00000000000E+00  0.45593999997E+02  0.45594000000E+02  0.51100000000E-03 0. -1.
         11   -1    0    0    0    0 -0.00000000000E+00 -0.00000000000E+00 -0.45593999997E+02  0.45594000000E+02  0.51100000000E-03 0.  1.
    9900012    2    1    2    0    0  0.35114818053E+02 -0.24846152927E+01 -0.25385023879E+02  0.47787271926E+02  0.20000004018E+02 0.  0.
         12    1    1    2    0    0 -0.35114818053E+02  0.24846152927E+01  0.25385023879E+02  0.43400728074E+02  0.00000000000E+00 0. -1.
         11    1    3    3    0    0  0.13633380014E+02 -0.39002957505E+00 -0.45590700152E+01  0.14380761223E+02  0.51100000000E-03 0. -1.
        -11    1    3    3    0    0  0.22115712960E+02 -0.37967487121E+01 -0.21851044812E+02  0.31320731475E+02  0.51100000000E-03 0.  1.
         12    1    3    3    0    0 -0.63427492146E+00  0.17021629944E+01  0.10250909477E+01  0.20857792277E+01  0.00000000000E+00 0. -1.
</event>
<event>
 7    1  0.4875579E-009  0.4778727E+02  0.7816164E-02  0.1312668E+00
        -11   -1    0    0    0    0  0.00000000000E+00  0.00000000000E+00  0.45593999997E+02  0.45594000000E+02  0.51100000000E-03 0.  1.
         11   -1    0    0    0    0 -0.00000000000E+00 -0.00000000000E+00 -0.45593999997E+02  0.45594000000E+02  0.51100000000E-03 0. -1.
    9900012    2    1    2    0    0  0.18339936594E+01 -0.42389595776E+02  0.91313535341E+01  0.47787274428E+02  0.20000015427E+02 0.  0.
         12    1    1    2    0    0 -0.18339936594E+01  0.42389595776E+02 -0.91313535341E+01  0.43400725572E+02  0.00000000000E+00 0. -1.
         11    1    3    3    0    0 -0.54199661922E+01 -0.20572728427E+02  0.50294387693E+01  0.21861117150E+02  0.51100000000E-03 0. -1.
        -11    1    3    3    0    0  0.19501487261E+01 -0.19601136021E+02  0.19727122615E+01  0.19796444310E+02  0.51100000000E-03 0.  1.
         12    1    3    3    0    0  0.53038111255E+01 -0.22157313282E+01  0.21292025033E+01  0.61297129684E+01  0.00000000000E+00 0. -1.
</event>
<event>
 7    1  0.4875579E-009  0.4778726E+02  0.7816164E-02  0.1312668E+00
        -11   -1    0    0    0    0  0.00000000000E+00  0.00000000000E+00  0.45593999997E+02  0.45594000000E+02  0.51100000000E-03 0.  1.
         11   -1    0    0    0    0 -0.00000000000E+00 -0.00000000000E+00 -0.45593999997E+02  0.45594000000E+02  0.51100000000E-03 0. -1.
    9900012    2    1    2    0    0 -0.26834081274E+02  0.10829357765E+02  0.32346265617E+02  0.47787264905E+02  0.19999972007E+02 0.  0.
         12    1    1    2    0    0  0.26834081274E+02 -0.10829357765E+02 -0.32346265617E+02  0.43400735095E+02  0.00000000000E+00 0. -1.
         11    1    3    3    0    0 -0.39701794242E+01 -0.43159501135E+01  0.11805940520E+02  0.13182184260E+02  0.51100000000E-03 0. -1.
        -11    1    3    3    0    0 -0.64772042589E+01  0.19296248421E+01  0.42170824794E+01  0.79662671272E+01  0.51100000000E-03 0.  1.
         12    1    3    3    0    0 -0.16386697591E+02  0.13215683037E+02  0.16323242618E+02  0.26638813518E+02  0.00000000000E+00 0. -1.
</event>
<event>
 7    1  0.4875579E-009  0.4778727E+02  0.7816164E-02  0.1312668E+00
        -11   -1    0    0    0    0  0.00000000000E+00  0.00000000000E+00  0.45593999997E+02  0.45594000000E+02  0.51100000000E-03 0.  1.
         11   -1    0    0    0    0 -0.00000000000E+00 -0.00000000000E+00 -0.45593999997E+02  0.45594000000E+02  0.51100000000E-03 0. -1.
    9900012    2    1    2    0    0  0.10682292255E+02  0.36895762617E+02 -0.20204319806E+02  0.47787271830E+02  0.20000003581E+02 0.  0.
         12    1    1    2    0    0 -0.10682292255E+02 -0.36895762617E+02  0.20204319806E+02  0.43400728170E+02  0.00000000000E+00 0. -1.
         11    1    3    3    0    0  0.51157002661E+01  0.10173073348E+02 -0.17961905763E+00  0.11388330599E+02  0.51100000000E-03 0. -1.
        -11    1    3    3    0    0  0.64724129520E+01  0.10927669320E+02 -0.27895874326E+01  0.13003379733E+02  0.51100000000E-03 0.  1.
         12    1    3    3    0    0 -0.90582096318E+00  0.15795019949E+02 -0.17235113315E+02  0.23395561498E+02  0.00000000000E+00 0. -1.
</event>
<event>
 7    1  0.4875579E-009  0.4778727E+02  0.7816164E-02  0.1312668E+00
        -11   -1    0    0    0    0  0.00000000000E+00  0.00000000000E+00  0.45593999997E+02  0.45594000000E+02  0.51100000000E-03 0. -1.
         11   -1    0    0    0    0 -0.00000000000E+00 -0.00000000000E+00 -0.45593999997E+02  0.45594000000E+02  0.51100000000E-03 0.  1.
    9900012    2    1    2    0    0 -0.40113321686E+02  0.15724854418E+02 -0.52224445544E+01  0.47787267860E+02  0.19999985482E+02 0.  0.
         12    1    1    2    0    0  0.40113321686E+02 -0.15724854418E+02  0.52224445544E+01  0.43400732140E+02  0.00000000000E+00 0. -1.
         11    1    3    3    0    0 -0.30163176371E+01  0.11448733638E+01  0.32221905928E+01  0.45597609131E+01  0.51100000000E-03 0. -1.
        -11    1    3    3    0    0 -0.29451493534E+02  0.63781817636E+01 -0.17867433592E+01  0.30187151672E+02  0.51100000000E-03 0.  1.
        -12    1    3    3    0    0 -0.76455105148E+01  0.82017992902E+01 -0.66578917880E+01  0.13040355275E+02  0.00000000000E+00 0.  1.
</event>
<event>
 7    1  0.4875579E-009  0.4778727E+02  0.7816164E-02  0.1312668E+00
        -11   -1    0    0    0    0  0.00000000000E+00  0.00000000000E+00  0.45593999997E+02  0.45594000000E+02  0.51100000000E-03 0.  1.
         11   -1    0    0    0    0 -0.00000000000E+00 -0.00000000000E+00 -0.45593999997E+02  0.45594000000E+02  0.51100000000E-03 0. -1.
    9900012    2    1    2    0    0 -0.17968376004E+02 -0.83805027271E+01  0.38607357484E+02  0.47787269429E+02  0.19999992635E+02 0.  0.
         12    1    1    2    0    0  0.17968376004E+02  0.83805027271E+01 -0.38607357484E+02  0.43400730571E+02  0.00000000000E+00 0. -1.
         11    1    3    3    0    0 -0.51528937284E+00  0.10315236130E+00  0.80037692953E+01  0.80210028513E+01  0.51100000000E-03 0. -1.
        -11    1    3    3    0    0 -0.34376681279E+01 -0.92916082322E+01  0.64267866371E+01  0.11809112263E+02  0.51100000000E-03 0.  1.
        -12    1    3    3    0    0 -0.14015418503E+02  0.80795314375E+00  0.24176801552E+02  0.27957154315E+02  0.00000000000E+00 0.  1.
</event>
<event>
 7    1  0.4875579E-009  0.4778728E+02  0.7816164E-02  0.1312668E+00
        -11   -1    0    0    0    0  0.00000000000E+00  0.00000000000E+00  0.45593999997E+02  0.45594000000E+02  0.51100000000E-03 0.  1.
         11   -1    0    0    0    0 -0.00000000000E+00 -0.00000000000E+00 -0.45593999997E+02  0.45594000000E+02  0.51100000000E-03 0. -1.
    9900012    2    1    2    0    0  0.18654359144E+02 -0.33938141906E+02  0.19591838952E+02  0.47787277142E+02  0.20000027800E+02 0.  0.
         12    1    1    2    0    0 -0.18654359144E+02  0.33938141906E+02 -0.19591838952E+02  0.43400722858E+02  0.00000000000E+00 0. -1.
         11    1    3    3    0    0  0.69523027423E+01 -0.13625828129E+02  0.25938254589E+01  0.15515335524E+02  0.51100000000E-03 0. -1.
        -11    1    3    3    0    0  0.11024506296E+02 -0.21880612934E+02  0.12594299973E+02  0.27548454648E+02  0.51100000000E-03 0.  1.
         12    1    3    3    0    0  0.67755010547E+00  0.15682991571E+01  0.44037135202E+01  0.47234869704E+01  0.00000000000E+00 0. -1.
</event>
<event>
 7    1  0.4875579E-009  0.4778727E+02  0.7816164E-02  0.1312668E+00
        -11   -1    0    0    0    0  0.00000000000E+00  0.00000000000E+00  0.45593999997E+02  0.45594000000E+02  0.51100000000E-03 0. -1.
         11   -1    0    0    0    0 -0.00000000000E+00 -0.00000000000E+00 -0.45593999997E+02  0.45594000000E+02  0.51100000000E-03 0.  1.
    9900012    2    1    2    0    0  0.13791707488E+02 -0.25364618519E+02 -0.32404444783E+02  0.47787272936E+02  0.20000008625E+02 0.  0.
         12    1    1    2    0    0 -0.13791707488E+02  0.25364618519E+02  0.32404444783E+02  0.43400727064E+02  0.00000000000E+00 0. -1.
         11    1    3    3    0    0  0.14932297201E+02 -0.16021189740E+02 -0.25410457918E+02  0.33546138261E+02  0.51100000000E-03 0. -1.
        -11    1    3    3    0    0 -0.19889666579E+01 -0.13758225516E+01 -0.56110062860E+01  0.61100137367E+01  0.51100000000E-03 0.  1.
        -12    1    3    3    0    0  0.84837694462E+00 -0.79676062273E+01 -0.13829805787E+01  0.81311209384E+01  0.00000000000E+00 0.  1.
</event>
<event>
 7    1  0.4875579E-009  0.4778727E+02  0.7816164E-02  0.1312668E+00
        -11   -1    0    0    0    0  0.00000000000E+00  0.00000000000E+00  0.45593999997E+02  0.45594000000E+02  0.51100000000E-03 0. -1.
         11   -1    0    0    0    0 -0.00000000000E+00 -0.00000000000E+00 -0.45593999997E+02  0.45594000000E+02  0.51100000000E-03 0.  1.
    9900012    2    1    2    0    0 -0.28444057851E+02 -0.82309438684E+00 -0.32770125415E+02  0.47787273841E+02  0.20000012751E+02 0.  0.
         12    1    1    2    0    0  0.28444057851E+02  0.82309438684E+00  0.32770125415E+02  0.43400726159E+02  0.00000000000E+00 0. -1.
         11    1    3    3    0    0 -0.21683059967E+02  0.67089501843E+01 -0.24758751237E+02  0.33588106008E+02  0.51100000000E-03 0. -1.
        -11    1    3    3    0    0 -0.34868081434E+01 -0.12092499594E+01 -0.55508955893E+01  0.66657751685E+01  0.51100000000E-03 0.  1.
         12    1    3    3    0    0 -0.32741897402E+01 -0.63227946117E+01 -0.24604785890E+01  0.75333926649E+01  0.00000000000E+00 0. -1.
</event>
<event>
 7    1  0.4875579E-009  0.4778727E+02  0.7816164E-02  0.1312668E+00
        -11   -1    0    0    0    0  0.00000000000E+00  0.00000000000E+00  0.45593999997E+02  0.45594000000E+02  0.51100000000E-03 0.  1.
         11   -1    0    0    0    0 -0.00000000000E+00 -0.00000000000E+00 -0.45593999997E+02  0.45594000000E+02  0.51100000000E-03 0. -1.
    9900012    2    1    2    0    0  0.11031212781E+02  0.38538198122E+02  0.16635583268E+02  0.47787274193E+02  0.20000014356E+02 0.  0.
         12    1    1    2    0    0 -0.11031212781E+02 -0.38538198122E+02 -0.16635583268E+02  0.43400725807E+02  0.00000000000E+00 0. -1.
         11    1    3    3    0    0  0.46597434886E+01  0.24068646318E+02  0.97389393714E+01  0.26379156266E+02  0.51100000000E-03 0.  1.
        -11    1    3    3    0    0  0.68019340196E+01  0.12612586890E+02  0.10203401830E+02  0.17591278056E+02  0.51100000000E-03 0. -1.
        -12    1    3    3    0    0 -0.43046472673E+00  0.18569649143E+01 -0.33067579338E+01  0.38168398718E+01  0.00000000000E+00 0.  1.
</event>
<event>
 7    1  0.4875579E-009  0.4778727E+02  0.7816164E-02  0.1312668E+00
        -11   -1    0    0    0    0  0.00000000000E+00  0.00000000000E+00  0.45593999997E+02  0.45594000000E+02  0.51100000000E-03 0. -1.
         11   -1    0    0    0    0 -0.00000000000E+00 -0.00000000000E+00 -0.45593999997E+02  0.45594000000E+02  0.51100000000E-03 0.  1.
    9900012    2    1    2    0    0 -0.15489405263E+02 -0.56654535941E+01 -0.40144788736E+02  0.47787273019E+02  0.20000009002E+02 0.  0.
         12    1    1    2    0    0  0.15489405263E+02  0.56654535941E+01  0.40144788736E+02  0.43400726981E+02  0.00000000000E+00 0. -1.
         11    1    3    3    0    0  0.56972755438E+00  0.10395946738E+01 -0.57462111578E+01  0.58672216170E+01  0.51100000000E-03 0. -1.
        -11    1    3    3    0    0 -0.23783254032E+01 -0.73876703427E+01 -0.43509186544E+01  0.88974489723E+01  0.51100000000E-03 0.  1.
        -12    1    3    3    0    0 -0.13680807414E+02  0.68262207482E+00 -0.30047658924E+02  0.33022602429E+02  0.00000000000E+00 0.  1.
</event>
<event>
 7    1  0.4875579E-009  0.4778727E+02  0.7816164E-02  0.1312668E+00
        -11   -1    0    0    0    0  0.00000000000E+00  0.00000000000E+00  0.45593999997E+02  0.45594000000E+02  0.51100000000E-03 0. -1.
         11   -1    0    0    0    0 -0.00000000000E+00 -0.00000000000E+00 -0.45593999997E+02  0.45594000000E+02  0.51100000000E-03 0.  1.
    9900012    2    1    2    0    0  0.16154460438E+02  0.33630972055E+02 -0.22172381521E+02  0.47787269871E+02  0.19999994649E+02 0.  0.
         12    1    1    2    0    0 -0.16154460438E+02 -0.33630972055E+02  0.22172381521E+02  0.43400730129E+02  0.00000000000E+00 0. -1.
         11    1    3    3    0    0  0.45799708739E+01  0.16924522602E+02 -0.14610167073E+02  0.22822633079E+02  0.51100000000E-03 0.  1.
        -11    1    3    3    0    0  0.11866256803E+02  0.11112065674E+02 -0.97432841378E+01  0.18953037754E+02  0.51100000000E-03 0. -1.
         12    1    3    3    0    0 -0.29176723864E+00  0.55943837795E+01  0.21810696898E+01  0.60115990374E+01  0.00000000000E+00 0. -1.
</event>
<event>
 7    1  0.4875579E-009  0.4778727E+02  0.7816164E-02  0.1312668E+00
        -11   -1    0    0    0    0  0.00000000000E+00  0.00000000000E+00  0.45593999997E+02  0.45594000000E+02  0.51100000000E-03 0.  1.
         11   -1    0    0    0    0 -0.00000000000E+00 -0.00000000000E+00 -0.45593999997E+02  0.45594000000E+02  0.51100000000E-03 0. -1.
    9900012    2    1    2    0    0 -0.21511020303E+02 -0.34236320412E+02  0.15772562366E+02  0.47787270128E+02  0.19999995822E+02 0.  0.
         12    1    1    2    0    0  0.21511020303E+02  0.34236320412E+02 -0.15772562366E+02  0.43400729872E+02  0.00000000000E+00 0. -1.
         11    1    3    3    0    0 -0.29307627439E+01 -0.28210002507E-01 -0.64952044708E+00  0.30020065186E+01  0.51100000000E-03 0. -1.
        -11    1    3    3    0    0 -0.12641236589E+02 -0.20646834875E+02  0.22884913199E+01  0.24317274634E+02  0.51100000000E-03 0.  1.
        -12    1    3    3    0    0 -0.59390209705E+01 -0.13561275534E+02  0.14133591493E+02  0.20467988975E+02  0.00000000000E+00 0.  1.
</event>
<event>
 7    1  0.4875579E-009  0.4778727E+02  0.7816164E-02  0.1312668E+00
        -11   -1    0    0    0    0  0.00000000000E+00  0.00000000000E+00  0.45593999997E+02  0.45594000000E+02  0.51100000000E-03 0.  1.
         11   -1    0    0    0    0 -0.00000000000E+00 -0.00000000000E+00 -0.45593999997E+02  0.45594000000E+02  0.51100000000E-03 0. -1.
    9900012    2    1    2    0    0 -0.22847136329E+02  0.15701061780E+01  0.36866874239E+02  0.47787270882E+02  0.19999999260E+02 0.  0.
         12    1    1    2    0    0  0.22847136329E+02 -0.15701061780E+01 -0.36866874239E+02  0.43400729118E+02  0.00000000000E+00 0. -1.
         11    1    3    3    0    0 -0.91251370744E+01 -0.58327465354E+01  0.62155880858E+01  0.12486896904E+02  0.51100000000E-03 0. -1.
        -11    1    3    3    0    0 -0.89409578365E+01  0.21177446007E+01  0.23371661255E+02  0.25112947244E+02  0.51100000000E-03 0.  1.
        -12    1    3    3    0    0 -0.47810414180E+01  0.52851081127E+01  0.72796248982E+01  0.10187426734E+02  0.00000000000E+00 0.  1.
</event>
<event>
 7    1  0.4875579E-009  0.4778727E+02  0.7816164E-02  0.1312668E+00
        -11   -1    0    0    0    0  0.00000000000E+00  0.00000000000E+00  0.45593999997E+02  0.45594000000E+02  0.51100000000E-03 0. -1.
         11   -1    0    0    0    0 -0.00000000000E+00 -0.00000000000E+00 -0.45593999997E+02  0.45594000000E+02  0.51100000000E-03 0.  1.
    9900012    2    1    2    0    0 -0.23602988666E+02 -0.56235800091E+01 -0.35984684650E+02  0.47787271257E+02  0.20000000967E+02 0.  0.
         12    1    1    2    0    0  0.23602988666E+02  0.56235800091E+01  0.35984684650E+02  0.43400728743E+02  0.00000000000E+00 0. -1.
         11    1    3    3    0    0 -0.14651731749E+02 -0.42715103553E+01 -0.17719601521E+02  0.23385964215E+02  0.51100000000E-03 0. -1.
        -11    1    3    3    0    0 -0.83844488210E+01 -0.37216848785E+01 -0.19587464430E+02  0.21629116566E+02  0.51100000000E-03 0.  1.
         12    1    3    3    0    0 -0.56680809631E+00  0.23696152247E+01  0.13223813001E+01  0.27721904758E+01  0.00000000000E+00 0. -1.
</event>
<event>
 7    1  0.4875579E-009  0.4778727E+02  0.7816164E-02  0.1312668E+00
        -11   -1    0    0    0    0  0.00000000000E+00  0.00000000000E+00  0.45593999997E+02  0.45594000000E+02  0.51100000000E-03 0. -1.
         11   -1    0    0    0    0 -0.00000000000E+00 -0.00000000000E+00 -0.45593999997E+02  0.45594000000E+02  0.51100000000E-03 0.  1.
    9900012    2    1    2    0    0  0.22320785185E+02  0.34471416198E+02 -0.14040201795E+02  0.47787271292E+02  0.20000001127E+02 0.  0.
         12    1    1    2    0    0 -0.22320785185E+02 -0.34471416198E+02  0.14040201795E+02  0.43400728708E+02  0.00000000000E+00 0. -1.
         11    1    3    3    0    0  0.17286102927E+02  0.26424184372E+02 -0.15194151425E+02  0.35041534098E+02  0.51100000000E-03 0.  1.
        -11    1    3    3    0    0  0.20838889319E+01 -0.26321214194E+00 -0.24428287767E+01  0.32216899922E+01  0.51100000000E-03 0. -1.
         12    1    3    3    0    0  0.29507933260E+01  0.83104439675E+01  0.35967784067E+01  0.95240472015E+01  0.00000000000E+00 0. -1.
</event>
<event>
 7    1  0.4875579E-009  0.4778728E+02  0.7816164E-02  0.1312668E+00
        -11   -1    0    0    0    0  0.00000000000E+00  0.00000000000E+00  0.45593999997E+02  0.45594000000E+02  0.51100000000E-03 0. -1.
         11   -1    0    0    0    0 -0.00000000000E+00 -0.00000000000E+00 -0.45593999997E+02  0.45594000000E+02  0.51100000000E-03 0.  1.
    9900012    2    1    2    0    0  0.86472183821E+01  0.39649720393E+02 -0.15386614420E+02  0.47787278620E+02  0.20000034538E+02 0.  0.
         12    1    1    2    0    0 -0.86472183821E+01 -0.39649720393E+02  0.15386614420E+02  0.43400721380E+02  0.00000000000E+00 0. -1.
         11    1    3    3    0    0  0.36965048451E+01  0.19649629252E+02 -0.10117215296E+02  0.22408260161E+02  0.51100000000E-03 0. -1.
        -11    1    3    3    0    0  0.89130136395E+01  0.14984359843E+02 -0.69512769785E+01  0.18769472660E+02  0.51100000000E-03 0.  1.
         12    1    3    3    0    0 -0.39623001025E+01  0.50157312976E+01  0.16818778536E+01  0.66095457988E+01  0.00000000000E+00 0. -1.
</event>
<event>
 7    1  0.4875579E-009  0.4778729E+02  0.7816164E-02  0.1312668E+00
        -11   -1    0    0    0    0  0.00000000000E+00  0.00000000000E+00  0.45593999997E+02  0.45594000000E+02  0.51100000000E-03 0.  1.
         11   -1    0    0    0    0 -0.00000000000E+00 -0.00000000000E+00 -0.45593999997E+02  0.45594000000E+02  0.51100000000E-03 0. -1.
    9900012    2    1    2    0    0  0.27380487617E+02 -0.22157756966E+02  0.25356739236E+02  0.47787291243E+02  0.20000092092E+02 0.  0.
         12    1    1    2    0    0 -0.27380487617E+02  0.22157756966E+02 -0.25356739236E+02  0.43400708757E+02  0.00000000000E+00 0. -1.
         11    1    3    3    0    0  0.15877449478E+01 -0.80146807490E+01  0.71730264280E+01  0.10872366344E+02  0.51100000000E-03 0. -1.
        -11    1    3    3    0    0  0.17420414373E+02 -0.23967480954E+01  0.11545955934E+02  0.21036262431E+02  0.51100000000E-03 0.  1.
         12    1    3    3    0    0  0.83723282962E+01 -0.11746328122E+02  0.66377568746E+01  0.15878662468E+02  0.00000000000E+00 0. -1.
</event>
<event>
 7    1  0.4875579E-009  0.4778727E+02  0.7816164E-02  0.1312668E+00
        -11   -1    0    0    0    0  0.00000000000E+00  0.00000000000E+00  0.45593999997E+02  0.45594000000E+02  0.51100000000E-03 0.  1.
         11   -1    0    0    0    0 -0.00000000000E+00 -0.00000000000E+00 -0.45593999997E+02  0.45594000000E+02  0.51100000000E-03 0. -1.
    9900012    2    1    2    0    0 -0.71544076814E+01  0.31394920952E+02  0.29099771654E+02  0.47787270500E+02  0.19999997516E+02 0.  0.
         12    1    1    2    0    0  0.71544076814E+01 -0.31394920952E+02 -0.29099771654E+02  0.43400729500E+02  0.00000000000E+00 0. -1.
         11    1    3    3    0    0 -0.14347836580E+01  0.56353171217E+01  0.13093390927E+02  0.14326628683E+02  0.51100000000E-03 0. -1.
        -11    1    3    3    0    0  0.20354965413E+01  0.55444795362E+00  0.39200025427E+01  0.44516377772E+01  0.51100000000E-03 0.  1.
        -12    1    3    3    0    0 -0.77551205647E+01  0.25205155876E+02  0.12086378184E+02  0.29009004039E+02  0.00000000000E+00 0.  1.
</event>
<event>
 7    1  0.4875579E-009  0.4778728E+02  0.7816164E-02  0.1312668E+00
        -11   -1    0    0    0    0  0.00000000000E+00  0.00000000000E+00  0.45593999997E+02  0.45594000000E+02  0.51100000000E-03 0.  1.
         11   -1    0    0    0    0 -0.00000000000E+00 -0.00000000000E+00 -0.45593999997E+02  0.45594000000E+02  0.51100000000E-03 0. -1.
    9900012    2    1    2    0    0 -0.56660860104E+01 -0.22963416434E+02  0.36389557559E+02  0.47787275071E+02  0.20000018360E+02 0.  0.
         12    1    1    2    0    0  0.56660860104E+01  0.22963416434E+02 -0.36389557559E+02  0.43400724929E+02  0.00000000000E+00 0. -1.
         11    1    3    3    0    0 -0.12418407766E+01  0.24745971472E+01  0.17815656178E+01  0.32923814886E+01  0.51100000000E-03 0. -1.
        -11    1    3    3    0    0  0.60695238729E+00  0.91389481192E+00  0.93575476455E+00  0.14419542878E+01  0.51100000000E-03 0.  1.
        -12    1    3    3    0    0 -0.50311976211E+01 -0.26351908393E+02  0.33672237177E+02  0.43052939295E+02  0.00000000000E+00 0.  1.
</event>
<event>
 7    1  0.4875579E-009  0.4778727E+02  0.7816164E-02  0.1312668E+00
        -11   -1    0    0    0    0  0.00000000000E+00  0.00000000000E+00  0.45593999997E+02  0.45594000000E+02  0.51100000000E-03 0. -1.
         11   -1    0    0    0    0 -0.00000000000E+00 -0.00000000000E+00 -0.45593999997E+02  0.45594000000E+02  0.51100000000E-03 0.  1.
    9900012    2    1    2    0    0  0.15600032358E+02 -0.37848744313E+02 -0.14413008377E+02  0.47787271134E+02  0.20000000408E+02 0.  0.
         12    1    1    2    0    0 -0.15600032358E+02  0.37848744313E+02  0.14413008377E+02  0.43400728866E+02  0.00000000000E+00 0. -1.
         11    1    3    3    0    0  0.23113524640E+01 -0.16916029554E+01 -0.80875305465E+00  0.29762312639E+01  0.51100000000E-03 0. -1.
        -11    1    3    3    0    0  0.17624585602E+02 -0.32697585442E+02 -0.12042459608E+02  0.39048417958E+02  0.51100000000E-03 0.  1.
         12    1    3    3    0    0 -0.43359057081E+01 -0.34595559156E+01 -0.15617957139E+01  0.57626219115E+01  0.00000000000E+00 0. -1.
</event>
<event>
 7    1  0.4875579E-009  0.4778728E+02  0.7816164E-02  0.1312668E+00
        -11   -1    0    0    0    0  0.00000000000E+00  0.00000000000E+00  0.45593999997E+02  0.45594000000E+02  0.51100000000E-03 0.  1.
         11   -1    0    0    0    0 -0.00000000000E+00 -0.00000000000E+00 -0.45593999997E+02  0.45594000000E+02  0.51100000000E-03 0. -1.
    9900012    2    1    2    0    0 -0.27098007112E+02  0.26392908199E+02  0.21277568822E+02  0.47787279641E+02  0.20000039197E+02 0.  0.
         12    1    1    2    0    0  0.27098007112E+02 -0.26392908199E+02 -0.21277568822E+02  0.43400720359E+02  0.00000000000E+00 0. -1.
         11    1    3    3    0    0 -0.11657257354E+02  0.18276141591E+02  0.90289217716E+01  0.23482555846E+02  0.51100000000E-03 0. -1.
        -11    1    3    3    0    0 -0.94650389568E+01  0.10533409387E+02  0.10489922009E+02  0.17623227281E+02  0.51100000000E-03 0.  1.
         12    1    3    3    0    0 -0.59757108014E+01 -0.24166427783E+01  0.17587250413E+01  0.66814965143E+01  0.00000000000E+00 0. -1.
</event>
<event>
 7    1  0.4875579E-009  0.4778727E+02  0.7816164E-02  0.1312668E+00
        -11   -1    0    0    0    0  0.00000000000E+00  0.00000000000E+00  0.45593999997E+02  0.45594000000E+02  0.51100000000E-03 0. -1.
         11   -1    0    0    0    0 -0.00000000000E+00 -0.00000000000E+00 -0.45593999997E+02  0.45594000000E+02  0.51100000000E-03 0.  1.
    9900012    2    1    2    0    0  0.12564995003E+02 -0.40982686513E+02 -0.67943791242E+01  0.47787270963E+02  0.19999999629E+02 0.  0.
         12    1    1    2    0    0 -0.12564995003E+02  0.40982686513E+02  0.67943791242E+01  0.43400729037E+02  0.00000000000E+00 0. -1.
         11    1    3    3    0    0  0.10855346372E+02 -0.16138110821E+02 -0.16100891670E+01  0.19515879512E+02  0.51100000000E-03 0.  1.
        -11    1    3    3    0    0  0.63738838073E+01 -0.77981361398E+01 -0.26776736259E+01  0.10421480622E+02  0.51100000000E-03 0. -1.
        -12    1    3    3    0    0 -0.46642351765E+01 -0.17046439552E+02 -0.25066163313E+01  0.17849910830E+02  0.00000000000E+00 0.  1.
</event>
<event>
 7    1  0.4875579E-009  0.4778727E+02  0.7816164E-02  0.1312668E+00
        -11   -1    0    0    0    0  0.00000000000E+00  0.00000000000E+00  0.45593999997E+02  0.45594000000E+02  0.51100000000E-03 0.  1.
         11   -1    0    0    0    0 -0.00000000000E+00 -0.00000000000E+00 -0.45593999997E+02  0.45594000000E+02  0.51100000000E-03 0. -1.
    9900012    2    1    2    0    0  0.19179359923E+02 -0.23963587956E+02  0.30684229893E+02  0.47787270064E+02  0.19999995532E+02 0.  0.
         12    1    1    2    0    0 -0.19179359923E+02  0.23963587956E+02 -0.30684229893E+02  0.43400729936E+02  0.00000000000E+00 0. -1.
         11    1    3    3    0    0  0.13164767441E+02 -0.15192583531E+02  0.16547808337E+02  0.26037581630E+02  0.51100000000E-03 0. -1.
        -11    1    3    3    0    0  0.94221585030E+01 -0.77063041473E+01  0.77407618880E+01  0.14425102750E+02  0.51100000000E-03 0.  1.
         12    1    3    3    0    0 -0.34075660203E+01 -0.10647002776E+01  0.63956596679E+01  0.73245856846E+01  0.00000000000E+00 0. -1.
</event>
<event>
 7    1  0.4875579E-009  0.4778727E+02  0.7816164E-02  0.1312668E+00
        -11   -1    0    0    0    0  0.00000000000E+00  0.00000000000E+00  0.45593999997E+02  0.45594000000E+02  0.51100000000E-03 0.  1.
         11   -1    0    0    0    0 -0.00000000000E+00 -0.00000000000E+00 -0.45593999997E+02  0.45594000000E+02  0.51100000000E-03 0. -1.
    9900012    2    1    2    0    0 -0.23525546429E+02  0.12247527853E+02  0.34353604093E+02  0.47787269736E+02  0.19999994032E+02 0.  0.
         12    1    1    2    0    0  0.23525546429E+02 -0.12247527853E+02 -0.34353604093E+02  0.43400730264E+02  0.00000000000E+00 0. -1.
         11    1    3    3    0    0 -0.13926894292E+02  0.11012668919E+02  0.21691676889E+02  0.28031519899E+02  0.51100000000E-03 0. -1.
        -11    1    3    3    0    0 -0.67203215654E+01  0.55439622408E+01  0.11530502007E+02  0.14451668279E+02  0.51100000000E-03 0.  1.
         12    1    3    3    0    0 -0.28783305717E+01 -0.43091033064E+01  0.11314251974E+01  0.53040815569E+01  0.00000000000E+00 0. -1.
</event>
<event>
 7    1  0.4875579E-009  0.4778727E+02  0.7816164E-02  0.1312668E+00
        -11   -1    0    0    0    0  0.00000000000E+00  0.00000000000E+00  0.45593999997E+02  0.45594000000E+02  0.51100000000E-03 0.  1.
         11   -1    0    0    0    0 -0.00000000000E+00 -0.00000000000E+00 -0.45593999997E+02  0.45594000000E+02  0.51100000000E-03 0. -1.
    9900012    2    1    2    0    0  0.19064157503E+02 -0.33638639740E+02  0.19713527634E+02  0.47787270091E+02  0.19999995655E+02 0.  0.
         12    1    1    2    0    0 -0.19064157503E+02  0.33638639740E+02 -0.19713527634E+02  0.43400729909E+02  0.00000000000E+00 0. -1.
         11    1    3    3    0    0  0.49222260775E+01 -0.28499443186E+01  0.18339595629E+01  0.59761107852E+01  0.51100000000E-03 0. -1.
        -11    1    3    3    0    0  0.11888740487E+02 -0.25663752048E+02  0.21159495693E+02  0.35322720419E+02  0.51100000000E-03 0.  1.
         12    1    3    3    0    0  0.22531909384E+01 -0.51249433732E+01 -0.32799276226E+01  0.64884388872E+01  0.00000000000E+00 0. -1.
</event>
<event>
 7    1  0.4875579E-009  0.4778727E+02  0.7816164E-02  0.1312668E+00
        -11   -1    0    0    0    0  0.00000000000E+00  0.00000000000E+00  0.45593999997E+02  0.45594000000E+02  0.51100000000E-03 0. -1.
         11   -1    0    0    0    0 -0.00000000000E+00 -0.00000000000E+00 -0.45593999997E+02  0.45594000000E+02  0.51100000000E-03 0.  1.
    9900012    2    1    2    0    0 -0.22990734797E+02  0.36426109678E+02  0.53092208693E+01  0.47787272137E+02  0.20000004984E+02 0.  0.
         12    1    1    2    0    0  0.22990734797E+02 -0.36426109678E+02 -0.53092208693E+01  0.43400727863E+02  0.00000000000E+00 0. -1.
         11    1    3    3    0    0 -0.59597373397E+01  0.31690319833E+01  0.10178949949E+01  0.68262246778E+01  0.51100000000E-03 0. -1.
        -11    1    3    3    0    0  0.89821564833E+00  0.72848425912E+01  0.58154669983E+01  0.93645811225E+01  0.51100000000E-03 0.  1.
        -12    1    3    3    0    0 -0.17929213105E+02  0.25972235103E+02 -0.15241411238E+01  0.31596466337E+02  0.00000000000E+00 0.  1.
</event>
<event>
 7    1  0.4875579E-009  0.4778726E+02  0.7816164E-02  0.1312668E+00
        -11   -1    0    0    0    0  0.00000000000E+00  0.00000000000E+00  0.45593999997E+02  0.45594000000E+02  0.51100000000E-03 0. -1.
         11   -1    0    0    0    0 -0.00000000000E+00 -0.00000000000E+00 -0.45593999997E+02  0.45594000000E+02  0.51100000000E-03 0.  1.
    9900012    2    1    2    0    0  0.18515422504E+02  0.31593742687E+02 -0.23294604977E+02  0.47787261890E+02  0.19999958261E+02 0.  0.
         12    1    1    2    0    0 -0.18515422504E+02 -0.31593742687E+02  0.23294604977E+02  0.43400738110E+02  0.00000000000E+00 0. -1.
         11    1    3    3    0    0 -0.67043616748E+00  0.63499636570E+01 -0.36018403625E+01  0.73310829594E+01  0.51100000000E-03 0. -1.
        -11    1    3    3    0    0  0.74933117306E+01  0.20747863717E+02 -0.16445405535E+02  0.27514994693E+02  0.51100000000E-03 0.  1.
        -12    1    3    3    0    0  0.11692546941E+02  0.44959153133E+01 -0.32473590792E+01  0.12941184237E+02  0.00000000000E+00 0.  1.
</event>
<event>
 7    1  0.4875579E-009  0.4778728E+02  0.7816164E-02  0.1312668E+00
        -11   -1    0    0    0    0  0.00000000000E+00  0.00000000000E+00  0.45593999997E+02  0.45594000000E+02  0.51100000000E-03 0.  1.
         11   -1    0    0    0    0 -0.00000000000E+00 -0.00000000000E+00 -0.45593999997E+02  0.45594000000E+02  0.51100000000E-03 0. -1.
    9900012    2    1    2    0    0  0.93121453928E+00 -0.20879156089E+02  0.38037041026E+02  0.47787276395E+02  0.20000024394E+02 0.  0.
         12    1    1    2    0    0 -0.93121453928E+00  0.20879156089E+02 -0.38037041026E+02  0.43400723605E+02  0.00000000000E+00 0. -1.
         11    1    3    3    0    0 -0.70837412886E+00 -0.33578534712E+01  0.55998254891E+01  0.65677256040E+01  0.51100000000E-03 0. -1.
        -11    1    3    3    0    0 -0.78535178019E+01 -0.11445304291E+02  0.14819393410E+02  0.20304855416E+02  0.51100000000E-03 0.  1.
         12    1    3    3    0    0  0.94931064701E+01 -0.60759983264E+01  0.17617822126E+02  0.20914695374E+02  0.00000000000E+00 0. -1.
</event>
<event>
 7    1  0.4875579E-009  0.4778727E+02  0.7816164E-02  0.1312668E+00
        -11   -1    0    0    0    0  0.00000000000E+00  0.00000000000E+00  0.45593999997E+02  0.45594000000E+02  0.51100000000E-03 0.  1.
         11   -1    0    0    0    0 -0.00000000000E+00 -0.00000000000E+00 -0.45593999997E+02  0.45594000000E+02  0.51100000000E-03 0. -1.
    9900012    2    1    2    0    0 -0.36799597870E+01 -0.40642251523E+02  0.14774599002E+02  0.47787268571E+02  0.19999988722E+02 0.  0.
         12    1    1    2    0    0  0.36799597870E+01  0.40642251523E+02 -0.14774599002E+02  0.43400731429E+02  0.00000000000E+00 0. -1.
         11    1    3    3    0    0  0.14638501130E+01 -0.10183488176E+02 -0.32249898692E+01  0.10781783179E+02  0.51100000000E-03 0. -1.
        -11    1    3    3    0    0  0.30044359259E+00 -0.77715911075E+00 -0.10337106062E+01  0.13277049802E+01  0.51100000000E-03 0.  1.
        -12    1    3    3    0    0 -0.54442534926E+01 -0.29681604236E+02  0.19033299478E+02  0.35677780412E+02  0.00000000000E+00 0.  1.
</event>
<event>
 7    1  0.4875579E-009  0.4778728E+02  0.7816164E-02  0.1312668E+00
        -11   -1    0    0    0    0  0.00000000000E+00  0.00000000000E+00  0.45593999997E+02  0.45594000000E+02  0.51100000000E-03 0. -1.
         11   -1    0    0    0    0 -0.00000000000E+00 -0.00000000000E+00 -0.45593999997E+02  0.45594000000E+02  0.51100000000E-03 0.  1.
    9900012    2    1    2    0    0  0.36889994620E+02  0.11669632995E+02 -0.19661397682E+02  0.47787278853E+02  0.20000035601E+02 0.  0.
         12    1    1    2    0    0 -0.36889994620E+02 -0.11669632995E+02  0.19661397682E+02  0.43400721147E+02  0.00000000000E+00 0. -1.
         11    1    3    3    0    0  0.29193947447E+01  0.41600419888E+01 -0.47122895074E+00  0.51040054868E+01  0.51100000000E-03 0. -1.
        -11    1    3    3    0    0  0.20354053296E+02  0.65187164739E+01 -0.19636161651E+02  0.29023438712E+02  0.51100000000E-03 0.  1.
        -12    1    3    3    0    0  0.13616546579E+02  0.99087453237E+00  0.44599291975E+00  0.13659834654E+02  0.00000000000E+00 0.  1.
</event>
<event>
 7    1  0.4875579E-009  0.4778727E+02  0.7816164E-02  0.1312668E+00
        -11   -1    0    0    0    0  0.00000000000E+00  0.00000000000E+00  0.45593999997E+02  0.45594000000E+02  0.51100000000E-03 0.  1.
         11   -1    0    0    0    0 -0.00000000000E+00 -0.00000000000E+00 -0.45593999997E+02  0.45594000000E+02  0.51100000000E-03 0. -1.
    9900012    2    1    2    0    0 -0.15804839772E+02  0.73426696626E+01  0.39748151624E+02  0.47787270565E+02  0.19999997814E+02 0.  0.
         12    1    1    2    0    0  0.15804839772E+02 -0.73426696626E+01 -0.39748151624E+02  0.43400729435E+02  0.00000000000E+00 0. -1.
         11    1    3    3    0    0 -0.17776406947E+01  0.23623761701E+01  0.12616373765E+02  0.12958152447E+02  0.51100000000E-03 0. -1.
        -11    1    3    3    0    0 -0.93224074512E+01  0.74960217085E+01  0.26955983421E+02  0.29491060758E+02  0.51100000000E-03 0.  1.
         12    1    3    3    0    0 -0.47047916260E+01 -0.25157282160E+01  0.17579443793E+00  0.53380573606E+01  0.00000000000E+00 0. -1.
</event>
<event>
 7    1  0.4875579E-009  0.4778727E+02  0.7816164E-02  0.1312668E+00
        -11   -1    0    0    0    0  0.00000000000E+00  0.00000000000E+00  0.45593999997E+02  0.45594000000E+02  0.51100000000E-03 0. -1.
         11   -1    0    0    0    0 -0.00000000000E+00 -0.00000000000E+00 -0.45593999997E+02  0.45594000000E+02  0.51100000000E-03 0.  1.
    9900012    2    1    2    0    0 -0.59359417693E+01  0.36634463630E+02 -0.22501192249E+02  0.47787274398E+02  0.20000015292E+02 0.  0.
         12    1    1    2    0    0  0.59359417693E+01 -0.36634463630E+02  0.22501192249E+02  0.43400725602E+02  0.00000000000E+00 0. -1.
         11    1    3    3    0    0  0.12439505150E+00  0.54927334282E+01 -0.40579644864E+01  0.68302760322E+01  0.51100000000E-03 0. -1.
        -11    1    3    3    0    0 -0.83805510734E+01  0.31966828655E+02 -0.19393614536E+02  0.38317411911E+02  0.51100000000E-03 0.  1.
         12    1    3    3    0    0  0.23202142526E+01 -0.82509845338E+00  0.95038677309E+00  0.26395864551E+01  0.00000000000E+00 0. -1.
</event>
<event>
 7    1  0.4875579E-009  0.4778728E+02  0.7816164E-02  0.1312668E+00
        -11   -1    0    0    0    0  0.00000000000E+00  0.00000000000E+00  0.45593999997E+02  0.45594000000E+02  0.51100000000E-03 0.  1.
         11   -1    0    0    0    0 -0.00000000000E+00 -0.00000000000E+00 -0.45593999997E+02  0.45594000000E+02  0.51100000000E-03 0. -1.
    9900012    2    1    2    0    0 -0.40806218816E+02  0.84939988546E+01 -0.12096559844E+02  0.47787282602E+02  0.20000052696E+02 0.  0.
         12    1    1    2    0    0  0.40806218816E+02 -0.84939988546E+01  0.12096559844E+02  0.43400717398E+02  0.00000000000E+00 0. -1.
         11    1    3    3    0    0 -0.29995664074E+02  0.46039507530E+01 -0.87988847416E+01  0.31596781461E+02  0.51100000000E-03 0. -1.
        -11    1    3    3    0    0 -0.99617961234E+01  0.45585985104E+01  0.16920142229E+01  0.11085175451E+02  0.51100000000E-03 0.  1.
         12    1    3    3    0    0 -0.84875861880E+00 -0.66855040882E+00 -0.49896893249E+01  0.51053256901E+01  0.00000000000E+00 0. -1.
</event>
<event>
 7    1  0.4875579E-009  0.4778727E+02  0.7816164E-02  0.1312668E+00
        -11   -1    0    0    0    0  0.00000000000E+00  0.00000000000E+00  0.45593999997E+02  0.45594000000E+02  0.51100000000E-03 0. -1.
         11   -1    0    0    0    0 -0.00000000000E+00 -0.00000000000E+00 -0.45593999997E+02  0.45594000000E+02  0.51100000000E-03 0.  1.
    9900012    2    1    2    0    0  0.19033595149E+02 -0.37649778421E+02 -0.10190172572E+02  0.47787272166E+02  0.20000005114E+02 0.  0.
         12    1    1    2    0    0 -0.19033595149E+02  0.37649778421E+02  0.10190172572E+02  0.43400727834E+02  0.00000000000E+00 0. -1.
         11    1    3    3    0    0 -0.14393841115E+01 -0.52237198967E+00  0.14019915751E+01  0.20761213245E+01  0.51100000000E-03 0. -1.
        -11    1    3    3    0    0 -0.14537889359E+01 -0.57788453755E+01 -0.17125510155E+01  0.62001118849E+01  0.51100000000E-03 0.  1.
        -12    1    3    3    0    0  0.21926768196E+02 -0.31348561056E+02 -0.98796131314E+01  0.39511038957E+02  0.00000000000E+00 0.  1.
</event>
<event>
 7    1  0.4875579E-009  0.4778727E+02  0.7816164E-02  0.1312668E+00
        -11   -1    0    0    0    0  0.00000000000E+00  0.00000000000E+00  0.45593999997E+02  0.45594000000E+02  0.51100000000E-03 0.  1.
         11   -1    0    0    0    0 -0.00000000000E+00 -0.00000000000E+00 -0.45593999997E+02  0.45594000000E+02  0.51100000000E-03 0. -1.
    9900012    2    1    2    0    0  0.20786203408E+02  0.15887451776E+02  0.34628685714E+02  0.47787271316E+02  0.20000001237E+02 0.  0.
         12    1    1    2    0    0 -0.20786203408E+02 -0.15887451776E+02 -0.34628685714E+02  0.43400728684E+02  0.00000000000E+00 0. -1.
         11    1    3    3    0    0  0.29706801625E+01  0.10970860283E+01  0.12065032473E+01  0.33888329449E+01  0.51100000000E-03 0. -1.
        -11    1    3    3    0    0  0.20151149056E+02  0.84713618780E+01  0.21248106249E+02  0.30484664994E+02  0.51100000000E-03 0.  1.
         12    1    3    3    0    0 -0.23356258107E+01  0.63190038699E+01  0.12174076218E+02  0.13913773377E+02  0.00000000000E+00 0. -1.
</event>
<event>
 7    1  0.4875579E-009  0.4778728E+02  0.7816164E-02  0.1312668E+00
        -11   -1    0    0    0    0  0.00000000000E+00  0.00000000000E+00  0.45593999997E+02  0.45594000000E+02  0.51100000000E-03 0. -1.
         11   -1    0    0    0    0 -0.00000000000E+00 -0.00000000000E+00 -0.45593999997E+02  0.45594000000E+02  0.51100000000E-03 0.  1.
    9900012    2    1    2    0    0  0.31373096609E+01  0.43174646608E+02  0.31192800544E+01  0.47787277314E+02  0.20000028584E+02 0.  0.
         12    1    1    2    0    0 -0.31373096609E+01 -0.43174646608E+02 -0.31192800544E+01  0.43400722686E+02  0.00000000000E+00 0. -1.
         11    1    3    3    0    0  0.52964702398E+01  0.22860493630E+02  0.17713318090E+01  0.23532793770E+02  0.51100000000E-03 0. -1.
        -11    1    3    3    0    0 -0.10643591553E+01  0.19382634020E+02 -0.30297224484E+01  0.19646846575E+02  0.51100000000E-03 0.  1.
         12    1    3    3    0    0 -0.10948014235E+01  0.93151895806E+00  0.43776706938E+01  0.46076369681E+01  0.00000000000E+00 0. -1.
</event>
<event>
 7    1  0.4875579E-009  0.4778727E+02  0.7816164E-02  0.1312668E+00
        -11   -1    0    0    0    0  0.00000000000E+00  0.00000000000E+00  0.45593999997E+02  0.45594000000E+02  0.51100000000E-03 0. -1.
         11   -1    0    0    0    0 -0.00000000000E+00 -0.00000000000E+00 -0.45593999997E+02  0.45594000000E+02  0.51100000000E-03 0.  1.
    9900012    2    1    2    0    0  0.29543519496E+02 -0.21615146253E+02 -0.23314999270E+02  0.47787270942E+02  0.19999999535E+02 0.  0.
         12    1    1    2    0    0 -0.29543519496E+02  0.21615146253E+02  0.23314999270E+02  0.43400729058E+02  0.00000000000E+00 0. -1.
         11    1    3    3    0    0  0.18489005671E+02 -0.65663539826E+01 -0.10323108611E+02  0.22170406108E+02  0.51100000000E-03 0. -1.
        -11    1    3    3    0    0  0.12763902750E+02 -0.10953459167E+02 -0.12868004201E+02  0.21177370317E+02  0.51100000000E-03 0.  1.
        -12    1    3    3    0    0 -0.17093889250E+01 -0.40953331032E+01 -0.12388645811E+00  0.44394945183E+01  0.00000000000E+00 0.  1.
</event>
<event>
 7    1  0.4875579E-009  0.4778727E+02  0.7816164E-02  0.1312668E+00
        -11   -1    0    0    0    0  0.00000000000E+00  0.00000000000E+00  0.45593999997E+02  0.45594000000E+02  0.51100000000E-03 0.  1.
         11   -1    0    0    0    0 -0.00000000000E+00 -0.00000000000E+00 -0.45593999997E+02  0.45594000000E+02  0.51100000000E-03 0. -1.
    9900012    2    1    2    0    0 -0.25327060867E+01 -0.25564715139E+02  0.34980766739E+02  0.47787270722E+02  0.19999998528E+02 0.  0.
         12    1    1    2    0    0  0.25327060867E+01  0.25564715139E+02 -0.34980766739E+02  0.43400729278E+02  0.00000000000E+00 0. -1.
         11    1    3    3    0    0  0.32411305169E+01 -0.94968727277E+01  0.17836155107E+02  0.20465188685E+02  0.51100000000E-03 0. -1.
        -11    1    3    3    0    0 -0.20875567116E+01 -0.15801289153E+02  0.17425657756E+02  0.23615507202E+02  0.51100000000E-03 0.  1.
        -12    1    3    3    0    0 -0.36862798920E+01 -0.26655325872E+00 -0.28104612466E+00  0.37065748348E+01  0.00000000000E+00 0.  1.
</event>
<event>
 7    1  0.4875579E-009  0.4778726E+02  0.7816164E-02  0.1312668E+00
        -11   -1    0    0    0    0  0.00000000000E+00  0.00000000000E+00  0.45593999997E+02  0.45594000000E+02  0.51100000000E-03 0.  1.
         11   -1    0    0    0    0 -0.00000000000E+00 -0.00000000000E+00 -0.45593999997E+02  0.45594000000E+02  0.51100000000E-03 0. -1.
    9900012    2    1    2    0    0 -0.23663399743E+02  0.14621130886E+02  0.33315009672E+02  0.47787264692E+02  0.19999971037E+02 0.  0.
         12    1    1    2    0    0  0.23663399743E+02 -0.14621130886E+02 -0.33315009672E+02  0.43400735308E+02  0.00000000000E+00 0. -1.
         11    1    3    3    0    0 -0.61968780488E+01  0.14726838775E+01  0.58665484479E+01  0.86594737893E+01  0.51100000000E-03 0.  1.
        -11    1    3    3    0    0 -0.16704111547E+01  0.89255128743E+01  0.18207650380E+02  0.20346340854E+02  0.51100000000E-03 0. -1.
         12    1    3    3    0    0 -0.15796110540E+02  0.42229341348E+01  0.92408108440E+01  0.18781450049E+02  0.00000000000E+00 0. -1.
</event>
<event>
 7    1  0.4875579E-009  0.4778727E+02  0.7816164E-02  0.1312668E+00
        -11   -1    0    0    0    0  0.00000000000E+00  0.00000000000E+00  0.45593999997E+02  0.45594000000E+02  0.51100000000E-03 0.  1.
         11   -1    0    0    0    0 -0.00000000000E+00 -0.00000000000E+00 -0.45593999997E+02  0.45594000000E+02  0.51100000000E-03 0. -1.
    9900012    2    1    2    0    0 -0.91025693059E+01  0.17802483245E+02  0.38520619142E+02  0.47787271011E+02  0.19999999848E+02 0.  0.
         12    1    1    2    0    0  0.91025693059E+01 -0.17802483245E+02 -0.38520619142E+02  0.43400728989E+02  0.00000000000E+00 0. -1.
         11    1    3    3    0    0 -0.77229678860E+01 -0.39525328600E+00  0.65254811386E+01  0.10118416995E+02  0.51100000000E-03 0. -1.
        -11    1    3    3    0    0  0.32388730973E+00  0.13314451836E+01  0.89825569572E+01  0.90864723087E+01  0.51100000000E-03 0.  1.
        -12    1    3    3    0    0 -0.17034887296E+01  0.16866291347E+02  0.23012581047E+02  0.28582381708E+02  0.00000000000E+00 0.  1.
</event>
<event>
 7    1  0.4875579E-009  0.4778727E+02  0.7816164E-02  0.1312668E+00
        -11   -1    0    0    0    0  0.00000000000E+00  0.00000000000E+00  0.45593999997E+02  0.45594000000E+02  0.51100000000E-03 0.  1.
         11   -1    0    0    0    0 -0.00000000000E+00 -0.00000000000E+00 -0.45593999997E+02  0.45594000000E+02  0.51100000000E-03 0. -1.
    9900012    2    1    2    0    0  0.34396101313E+02  0.22154504950E+02  0.14481351253E+02  0.47787269485E+02  0.19999992891E+02 0.  0.
         12    1    1    2    0    0 -0.34396101313E+02 -0.22154504950E+02 -0.14481351253E+02  0.43400730515E+02  0.00000000000E+00 0. -1.
         11    1    3    3    0    0  0.27088586081E+02  0.16965400787E+02  0.92084913558E+01  0.33262781498E+02  0.51100000000E-03 0. -1.
        -11    1    3    3    0    0  0.83302266121E+01  0.59434245926E+01  0.69868040022E+01  0.12390819252E+02  0.51100000000E-03 0.  1.
         12    1    3    3    0    0 -0.10227113800E+01 -0.75432042929E+00 -0.17139441051E+01  0.21336687354E+01  0.00000000000E+00 0. -1.
</event>
<event>
 7    1  0.4875579E-009  0.4778727E+02  0.7816164E-02  0.1312668E+00
        -11   -1    0    0    0    0  0.00000000000E+00  0.00000000000E+00  0.45593999997E+02  0.45594000000E+02  0.51100000000E-03 0.  1.
         11   -1    0    0    0    0 -0.00000000000E+00 -0.00000000000E+00 -0.45593999997E+02  0.45594000000E+02  0.51100000000E-03 0. -1.
    9900012    2    1    2    0    0 -0.64612388397E+01  0.42647910234E+02 -0.47990924757E+01  0.47787272550E+02  0.20000006862E+02 0.  0.
         12    1    1    2    0    0  0.64612388397E+01 -0.42647910234E+02  0.47990924757E+01  0.43400727450E+02  0.00000000000E+00 0. -1.
         11    1    3    3    0    0 -0.26900959650E+01  0.13027898532E+01  0.67671469471E+00  0.30646077631E+01  0.51100000000E-03 0. -1.
        -11    1    3    3    0    0  0.65827279554E+00  0.64386938149E+00  0.28048155311E+01  0.29520977759E+01  0.51100000000E-03 0.  1.
        -12    1    3    3    0    0 -0.44294156702E+01  0.40701250999E+02 -0.82806227015E+01  0.41770567011E+02  0.00000000000E+00 0.  1.
</event>
<event>
 7    1  0.4875579E-009  0.4778727E+02  0.7816164E-02  0.1312668E+00
        -11   -1    0    0    0    0  0.00000000000E+00  0.00000000000E+00  0.45593999997E+02  0.45594000000E+02  0.51100000000E-03 0.  1.
         11   -1    0    0    0    0 -0.00000000000E+00 -0.00000000000E+00 -0.45593999997E+02  0.45594000000E+02  0.51100000000E-03 0. -1.
    9900012    2    1    2    0    0  0.22066529521E+02 -0.29319995572E+02  0.23173892172E+02  0.47787272543E+02  0.20000006830E+02 0.  0.
         12    1    1    2    0    0 -0.22066529521E+02  0.29319995572E+02 -0.23173892172E+02  0.43400727457E+02  0.00000000000E+00 0. -1.
         11    1    3    3    0    0 -0.22064683997E-01 -0.22133227550E+01  0.57831725066E+01  0.61922830176E+01  0.51100000000E-03 0. -1.
        -11    1    3    3    0    0  0.31482181557E+00 -0.81210043543E+01  0.75033323071E+01  0.11061185310E+02  0.51100000000E-03 0.  1.
        -12    1    3    3    0    0  0.21773772390E+02 -0.18985668462E+02  0.98873873587E+01  0.30533804215E+02  0.00000000000E+00 0.  1.
</event>
<event>
 7    1  0.4875579E-009  0.4778727E+02  0.7816164E-02  0.1312668E+00
        -11   -1    0    0    0    0  0.00000000000E+00  0.00000000000E+00  0.45593999997E+02  0.45594000000E+02  0.51100000000E-03 0.  1.
         11   -1    0    0    0    0 -0.00000000000E+00 -0.00000000000E+00 -0.45593999997E+02  0.45594000000E+02  0.51100000000E-03 0. -1.
    9900012    2    1    2    0    0  0.48525351793E+01  0.41245641513E+02  0.12604495552E+02  0.47787270172E+02  0.19999996021E+02 0.  0.
         12    1    1    2    0    0 -0.48525351793E+01 -0.41245641513E+02 -0.12604495552E+02  0.43400729828E+02  0.00000000000E+00 0. -1.
         11    1    3    3    0    0  0.35183482612E+01  0.10382699101E+02  0.73291663555E+00  0.10987100717E+02  0.51100000000E-03 0. -1.
        -11    1    3    3    0    0 -0.78708355418E+00  0.31585723065E+02  0.13146975125E+02  0.34221635806E+02  0.51100000000E-03 0.  1.
         12    1    3    3    0    0  0.21212704723E+01 -0.72278065282E+00 -0.12753962084E+01  0.25785336486E+01  0.00000000000E+00 0. -1.
</event>
<event>
 7    1  0.4875579E-009  0.4778727E+02  0.7816164E-02  0.1312668E+00
        -11   -1    0    0    0    0  0.00000000000E+00  0.00000000000E+00  0.45593999997E+02  0.45594000000E+02  0.51100000000E-03 0. -1.
         11   -1    0    0    0    0 -0.00000000000E+00 -0.00000000000E+00 -0.45593999997E+02  0.45594000000E+02  0.51100000000E-03 0.  1.
    9900012    2    1    2    0    0 -0.90610752218E+00  0.43277133600E+02  0.31451279790E+01  0.47787272432E+02  0.20000006324E+02 0.  0.
         12    1    1    2    0    0  0.90610752218E+00 -0.43277133600E+02 -0.31451279790E+01  0.43400727568E+02  0.00000000000E+00 0. -1.
         11    1    3    3    0    0  0.63791603256E+00  0.83180451816E+00 -0.15409739191E+01  0.18637157781E+01  0.51100000000E-03 0. -1.
        -11    1    3    3    0    0  0.10627699791E+01 -0.12551195387E+01 -0.75304106636E+00  0.18088328263E+01  0.51100000000E-03 0.  1.
         12    1    3    3    0    0 -0.26067935339E+01  0.43700448620E+02  0.54391429644E+01  0.44114723827E+02  0.00000000000E+00 0. -1.
</event>
<event>
 7    1  0.4875579E-009  0.4778727E+02  0.7816164E-02  0.1312668E+00
        -11   -1    0    0    0    0  0.00000000000E+00  0.00000000000E+00  0.45593999997E+02  0.45594000000E+02  0.51100000000E-03 0.  1.
         11   -1    0    0    0    0 -0.00000000000E+00 -0.00000000000E+00 -0.45593999997E+02  0.45594000000E+02  0.51100000000E-03 0. -1.
    9900012    2    1    2    0    0  0.15521239123E+02 -0.16643291773E+02  0.36955588641E+02  0.47787267785E+02  0.19999985140E+02 0.  0.
         12    1    1    2    0    0 -0.15521239123E+02  0.16643291773E+02 -0.36955588641E+02  0.43400732215E+02  0.00000000000E+00 0. -1.
         11    1    3    3    0    0  0.10683865067E+02 -0.20094883792E+01  0.11370463965E+02  0.15731194086E+02  0.51100000000E-03 0. -1.
        -11    1    3    3    0    0 -0.14333460095E+01 -0.33660165265E+00 -0.58395295656E+00  0.15839137515E+01  0.51100000000E-03 0.  1.
        -12    1    3    3    0    0  0.62707200652E+01 -0.14297201741E+02  0.26169077633E+02  0.30472159948E+02  0.00000000000E+00 0.  1.
</event>
<event>
 7    1  0.4875579E-009  0.4778727E+02  0.7816164E-02  0.1312668E+00
        -11   -1    0    0    0    0  0.00000000000E+00  0.00000000000E+00  0.45593999997E+02  0.45594000000E+02  0.51100000000E-03 0.  1.
         11   -1    0    0    0    0 -0.00000000000E+00 -0.00000000000E+00 -0.45593999997E+02  0.45594000000E+02  0.51100000000E-03 0. -1.
    9900012    2    1    2    0    0  0.24630547926E+02  0.24950769605E+02  0.25581607225E+02  0.47787269324E+02  0.19999992155E+02 0.  0.
         12    1    1    2    0    0 -0.24630547926E+02 -0.24950769605E+02 -0.25581607225E+02  0.43400730676E+02  0.00000000000E+00 0. -1.
         11    1    3    3    0    0  0.24125127125E+02  0.20514996689E+02  0.27632431730E+02  0.42029015353E+02  0.51100000000E-03 0.  1.
        -11    1    3    3    0    0  0.28090338015E+00  0.16795662494E+01  0.71520407451E+00  0.18469885285E+01  0.51100000000E-03 0. -1.
        -12    1    3    3    0    0  0.22451742046E+00  0.27562066662E+01 -0.27660285794E+01  0.39112654424E+01  0.00000000000E+00 0.  1.
</event>
<event>
 7    1  0.4875579E-009  0.4778727E+02  0.7816164E-02  0.1312668E+00
        -11   -1    0    0    0    0  0.00000000000E+00  0.00000000000E+00  0.45593999997E+02  0.45594000000E+02  0.51100000000E-03 0.  1.
         11   -1    0    0    0    0 -0.00000000000E+00 -0.00000000000E+00 -0.45593999997E+02  0.45594000000E+02  0.51100000000E-03 0. -1.
    9900012    2    1    2    0    0  0.23142532422E+02 -0.62588039866E+01  0.36178361965E+02  0.47787270643E+02  0.19999998168E+02 0.  0.
         12    1    1    2    0    0 -0.23142532422E+02  0.62588039866E+01 -0.36178361965E+02  0.43400729357E+02  0.00000000000E+00 0. -1.
         11    1    3    3    0    0 -0.24926724306E+01 -0.16366109091E+01  0.97533952017E+01  0.10199050413E+02  0.51100000000E-03 0. -1.
        -11    1    3    3    0    0  0.18426698201E+01  0.85875026909E+00  0.77488672040E+00  0.21756226192E+01  0.51100000000E-03 0.  1.
         12    1    3    3    0    0  0.23792535033E+02 -0.54809433467E+01  0.25650080043E+02  0.35412597610E+02  0.00000000000E+00 0. -1.
</event>
<event>
 7    1  0.4875579E-009  0.4778727E+02  0.7816164E-02  0.1312668E+00
        -11   -1    0    0    0    0  0.00000000000E+00  0.00000000000E+00  0.45593999997E+02  0.45594000000E+02  0.51100000000E-03 0.  1.
         11   -1    0    0    0    0 -0.00000000000E+00 -0.00000000000E+00 -0.45593999997E+02  0.45594000000E+02  0.51100000000E-03 0. -1.
    9900012    2    1    2    0    0  0.24897425926E+02 -0.23635821530E+02  0.26553521616E+02  0.47787269737E+02  0.19999994040E+02 0.  0.
         12    1    1    2    0    0 -0.24897425926E+02  0.23635821530E+02 -0.26553521616E+02  0.43400730263E+02  0.00000000000E+00 0. -1.
         11    1    3    3    0    0  0.42950631891E+01  0.20089041376E+01  0.53274185821E+01  0.71319459226E+01  0.51100000000E-03 0. -1.
        -11    1    3    3    0    0  0.72165710030E+01 -0.10687624541E+02  0.14686251138E+02  0.19544569275E+02  0.51100000000E-03 0.  1.
        -12    1    3    3    0    0  0.13385791734E+02 -0.14957101126E+02  0.65398518962E+01  0.21110754540E+02  0.00000000000E+00 0.  1.
</event>
<event>
 7    1  0.4875579E-009  0.4778727E+02  0.7816164E-02  0.1312668E+00
        -11   -1    0    0    0    0  0.00000000000E+00  0.00000000000E+00  0.45593999997E+02  0.45594000000E+02  0.51100000000E-03 0.  1.
         11   -1    0    0    0    0 -0.00000000000E+00 -0.00000000000E+00 -0.45593999997E+02  0.45594000000E+02  0.51100000000E-03 0. -1.
    9900012    2    1    2    0    0 -0.21716872165E+01 -0.18255002973E+02  0.39314906477E+02  0.47787271548E+02  0.20000002294E+02 0.  0.
         12    1    1    2    0    0  0.21716872165E+01  0.18255002973E+02 -0.39314906477E+02  0.43400728452E+02  0.00000000000E+00 0. -1.
         11    1    3    3    0    0  0.22619963340E+01 -0.71837975988E+00  0.13040514366E+02  0.13254724142E+02  0.51100000000E-03 0. -1.
        -11    1    3    3    0    0  0.12163801772E+01 -0.37203096020E+01  0.15849424067E+02  0.16325578942E+02  0.51100000000E-03 0.  1.
         12    1    3    3    0    0 -0.56500637278E+01 -0.13816313611E+02  0.10424968045E+02  0.18206968464E+02  0.00000000000E+00 0. -1.
</event>
<event>
 7    1  0.4875579E-009  0.4778727E+02  0.7816164E-02  0.1312668E+00
        -11   -1    0    0    0    0  0.00000000000E+00  0.00000000000E+00  0.45593999997E+02  0.45594000000E+02  0.51100000000E-03 0.  1.
         11   -1    0    0    0    0 -0.00000000000E+00 -0.00000000000E+00 -0.45593999997E+02  0.45594000000E+02  0.51100000000E-03 0. -1.
    9900012    2    1    2    0    0 -0.13138779523E+02 -0.37307037299E+02 -0.17865621824E+02  0.47787274170E+02  0.20000014250E+02 0.  0.
         12    1    1    2    0    0  0.13138779523E+02  0.37307037299E+02  0.17865621824E+02  0.43400725830E+02  0.00000000000E+00 0. -1.
         11    1    3    3    0    0 -0.78924766164E+00 -0.78300763459E+00  0.10387982966E+01  0.15215501929E+01  0.51100000000E-03 0. -1.
        -11    1    3    3    0    0 -0.16262843191E+02 -0.27595610546E+02 -0.11533460662E+02  0.34044360842E+02  0.51100000000E-03 0.  1.
        -12    1    3    3    0    0  0.39133113294E+01 -0.89284191192E+01 -0.73709594588E+01  0.12221363135E+02  0.00000000000E+00 0.  1.
</event>
<event>
 7    1  0.4875579E-009  0.4778727E+02  0.7816164E-02  0.1312668E+00
        -11   -1    0    0    0    0  0.00000000000E+00  0.00000000000E+00  0.45593999997E+02  0.45594000000E+02  0.51100000000E-03 0. -1.
         11   -1    0    0    0    0 -0.00000000000E+00 -0.00000000000E+00 -0.45593999997E+02  0.45594000000E+02  0.51100000000E-03 0.  1.
    9900012    2    1    2    0    0  0.30460939504E+02 -0.27015586090E+02 -0.15030387076E+02  0.47787271170E+02  0.20000000575E+02 0.  0.
         12    1    1    2    0    0 -0.30460939504E+02  0.27015586090E+02  0.15030387076E+02  0.43400728830E+02  0.00000000000E+00 0. -1.
         11    1    3    3    0    0  0.91466813348E+01 -0.15172078508E+01 -0.19403420693E+01  0.94725195545E+01  0.51100000000E-03 0. -1.
        -11    1    3    3    0    0  0.12507576154E+02 -0.87573946907E+01  0.74175198125E-01  0.15268821999E+02  0.51100000000E-03 0.  1.
        -12    1    3    3    0    0  0.88066820152E+01 -0.16740983549E+02 -0.13164220205E+02  0.23045929617E+02  0.00000000000E+00 0.  1.
</event>
<event>
 7    1  0.4875579E-009  0.4778727E+02  0.7816164E-02  0.1312668E+00
        -11   -1    0    0    0    0  0.00000000000E+00  0.00000000000E+00  0.45593999997E+02  0.45594000000E+02  0.51100000000E-03 0.  1.
         11   -1    0    0    0    0 -0.00000000000E+00 -0.00000000000E+00 -0.45593999997E+02  0.45594000000E+02  0.51100000000E-03 0. -1.
    9900012    2    1    2    0    0  0.15029705971E+02 -0.23492800460E+01  0.40647413327E+02  0.47787269724E+02  0.19999993981E+02 0.  0.
         12    1    1    2    0    0 -0.15029705971E+02  0.23492800460E+01 -0.40647413327E+02  0.43400730276E+02  0.00000000000E+00 0. -1.
         11    1    3    3    0    0 -0.34830083156E+01  0.10916555993E+01  0.35142873195E+01  0.50668801544E+01  0.51100000000E-03 0. -1.
        -11    1    3    3    0    0  0.20284324784E+00 -0.13268886415E+01  0.89186444990E+01  0.90190907973E+01  0.51100000000E-03 0.  1.
        -12    1    3    3    0    0  0.18309871038E+02 -0.21140470038E+01  0.28214481508E+02  0.33701298773E+02  0.00000000000E+00 0.  1.
</event>
<event>
 7    1  0.4875579E-009  0.4778731E+02  0.7816164E-02  0.1312668E+00
        -11   -1    0    0    0    0  0.00000000000E+00  0.00000000000E+00  0.45593999997E+02  0.45594000000E+02  0.51100000000E-03 0. -1.
         11   -1    0    0    0    0 -0.00000000000E+00 -0.00000000000E+00 -0.45593999997E+02  0.45594000000E+02  0.51100000000E-03 0.  1.
    9900012    2    1    2    0    0  0.39930258851E+01  0.40577370209E+02 -0.14871188758E+02  0.47787314708E+02  0.20000199077E+02 0.  0.
         12    1    1    2    0    0 -0.39930258851E+01 -0.40577370209E+02  0.14871188758E+02  0.43400685292E+02  0.00000000000E+00 0. -1.
         11    1    3    3    0    0  0.26457168027E+01  0.15636881711E+02 -0.12408937669E+01  0.15907598960E+02  0.51100000000E-03 0.  1.
        -11    1    3    3    0    0  0.38986175558E+01  0.13362776266E+02 -0.14363177303E+02  0.20001596709E+02  0.51100000000E-03 0. -1.
         12    1    3    3    0    0 -0.25513084734E+01  0.11577712231E+02  0.73288231225E+00  0.11878119039E+02  0.00000000000E+00 0. -1.
</event>
<event>
 7    1  0.4875579E-009  0.4778727E+02  0.7816164E-02  0.1312668E+00
        -11   -1    0    0    0    0  0.00000000000E+00  0.00000000000E+00  0.45593999997E+02  0.45594000000E+02  0.51100000000E-03 0.  1.
         11   -1    0    0    0    0 -0.00000000000E+00 -0.00000000000E+00 -0.45593999997E+02  0.45594000000E+02  0.51100000000E-03 0. -1.
    9900012    2    1    2    0    0  0.32581058238E+02  0.18041548226E+02  0.22284532449E+02  0.47787271840E+02  0.20000003627E+02 0.  0.
         12    1    1    2    0    0 -0.32581058238E+02 -0.18041548226E+02 -0.22284532449E+02  0.43400728160E+02  0.00000000000E+00 0. -1.
         11    1    3    3    0    0  0.14172492700E+02  0.11481797462E+02  0.10426997189E+02  0.21009842763E+02  0.51100000000E-03 0.  1.
        -11    1    3    3    0    0  0.16511354197E+02  0.40060602420E+01  0.14733482716E+02  0.22488860560E+02  0.51100000000E-03 0. -1.
         12    1    3    3    0    0  0.18972113418E+01  0.25536905223E+01 -0.28759474558E+01  0.42885685173E+01  0.00000000000E+00 0. -1.
</event>
<event>
 7    1  0.4875579E-009  0.4778727E+02  0.7816164E-02  0.1312668E+00
        -11   -1    0    0    0    0  0.00000000000E+00  0.00000000000E+00  0.45593999997E+02  0.45594000000E+02  0.51100000000E-03 0.  1.
         11   -1    0    0    0    0 -0.00000000000E+00 -0.00000000000E+00 -0.45593999997E+02  0.45594000000E+02  0.51100000000E-03 0. -1.
    9900012    2    1    2    0    0  0.14027559713E+02  0.56849239754E+01  0.40675947716E+02  0.47787268270E+02  0.19999987351E+02 0.  0.
         12    1    1    2    0    0 -0.14027559713E+02 -0.56849239754E+01 -0.40675947716E+02  0.43400731730E+02  0.00000000000E+00 0. -1.
         11    1    3    3    0    0 -0.43640220732E+01 -0.14682855474E+01  0.41751146543E+01  0.62154753432E+01  0.51100000000E-03 0. -1.
        -11    1    3    3    0    0  0.32894902366E+01  0.20570040553E+01  0.87037488815E+01  0.95292841574E+01  0.51100000000E-03 0.  1.
         12    1    3    3    0    0  0.15102091550E+02  0.50962054675E+01  0.27797084180E+02  0.32042508770E+02  0.00000000000E+00 0. -1.
</event>
<event>
 7    1  0.4875579E-009  0.4778727E+02  0.7816164E-02  0.1312668E+00
        -11   -1    0    0    0    0  0.00000000000E+00  0.00000000000E+00  0.45593999997E+02  0.45594000000E+02  0.51100000000E-03 0. -1.
         11   -1    0    0    0    0 -0.00000000000E+00 -0.00000000000E+00 -0.45593999997E+02  0.45594000000E+02  0.51100000000E-03 0.  1.
    9900012    2    1    2    0    0 -0.21199544646E+02 -0.15409144245E+02 -0.34594230546E+02  0.47787271819E+02  0.20000003533E+02 0.  0.
         12    1    1    2    0    0  0.21199544646E+02  0.15409144245E+02  0.34594230546E+02  0.43400728181E+02  0.00000000000E+00 0. -1.
         11    1    3    3    0    0 -0.83756486758E+01 -0.71019114292E+01 -0.27209496325E+01  0.11313363949E+02  0.51100000000E-03 0. -1.
        -11    1    3    3    0    0 -0.10785324719E+01  0.25722572845E+00  0.31740810143E+00  0.11533193540E+01  0.51100000000E-03 0.  1.
        -12    1    3    3    0    0 -0.11745363498E+02 -0.85644585439E+01 -0.32190689015E+02  0.35320588516E+02  0.00000000000E+00 0.  1.
</event>
<event>
 7    1  0.4875579E-009  0.4778727E+02  0.7816164E-02  0.1312668E+00
        -11   -1    0    0    0    0  0.00000000000E+00  0.00000000000E+00  0.45593999997E+02  0.45594000000E+02  0.51100000000E-03 0.  1.
         11   -1    0    0    0    0 -0.00000000000E+00 -0.00000000000E+00 -0.45593999997E+02  0.45594000000E+02  0.51100000000E-03 0. -1.
    9900012    2    1    2    0    0 -0.10117946313E+02  0.19232973601E+02  0.37567847302E+02  0.47787271180E+02  0.20000000620E+02 0.  0.
         12    1    1    2    0    0  0.10117946313E+02 -0.19232973601E+02 -0.37567847302E+02  0.43400728820E+02  0.00000000000E+00 0. -1.
         11    1    3    3    0    0 -0.56655793990E+01  0.16096098712E+01  0.17368564106E+02  0.18340028714E+02  0.51100000000E-03 0. -1.
        -11    1    3    3    0    0  0.62917545660E+00  0.64249762090E+01  0.14542814661E+02  0.15911305401E+02  0.51100000000E-03 0.  1.
         12    1    3    3    0    0 -0.50815423708E+01  0.11198387521E+02  0.56564685349E+01  0.13535937065E+02  0.00000000000E+00 0. -1.
</event>
<event>
 7    1  0.4875579E-009  0.4778729E+02  0.7816164E-02  0.1312668E+00
        -11   -1    0    0    0    0  0.00000000000E+00  0.00000000000E+00  0.45593999997E+02  0.45594000000E+02  0.51100000000E-03 0.  1.
         11   -1    0    0    0    0 -0.00000000000E+00 -0.00000000000E+00 -0.45593999997E+02  0.45594000000E+02  0.51100000000E-03 0. -1.
    9900012    2    1    2    0    0  0.77370571819E+01  0.30671047179E+02  0.29716101599E+02  0.47787287066E+02  0.20000073051E+02 0.  0.
         12    1    1    2    0    0 -0.77370571819E+01 -0.30671047179E+02 -0.29716101599E+02  0.43400712934E+02  0.00000000000E+00 0. -1.
         11    1    3    3    0    0 -0.73813276862E+00  0.21789374825E+01  0.70090902646E+01  0.73769882157E+01  0.51100000000E-03 0.  1.
        -11    1    3    3    0    0 -0.38074595380E+01  0.12439454551E+02  0.67372455459E+01  0.14650162302E+02  0.51100000000E-03 0. -1.
        -12    1    3    3    0    0  0.12282649489E+02  0.16052655145E+02  0.15969765789E+02  0.25760136549E+02  0.00000000000E+00 0.  1.
</event>
<event>
 7    1  0.4875579E-009  0.4778728E+02  0.7816164E-02  0.1312668E+00
        -11   -1    0    0    0    0  0.00000000000E+00  0.00000000000E+00  0.45593999997E+02  0.45594000000E+02  0.51100000000E-03 0.  1.
         11   -1    0    0    0    0 -0.00000000000E+00 -0.00000000000E+00 -0.45593999997E+02  0.45594000000E+02  0.51100000000E-03 0. -1.
    9900012    2    1    2    0    0  0.30132457021E+01 -0.26093440299E+02  0.34549602227E+02  0.47787282375E+02  0.20000051662E+02 0.  0.
         12    1    1    2    0    0 -0.30132457021E+01  0.26093440299E+02 -0.34549602227E+02  0.43400717625E+02  0.00000000000E+00 0. -1.
         11    1    3    3    0    0  0.16297643449E+01 -0.19223397971E+01 -0.43795876219E+00  0.25579934038E+01  0.51100000000E-03 0. -1.
        -11    1    3    3    0    0  0.40835040872E+01 -0.32281621062E+01  0.11301704260E+01  0.53266613997E+01  0.51100000000E-03 0.  1.
        -12    1    3    3    0    0 -0.27000227299E+01 -0.20942938396E+02  0.33857390563E+02  0.39902627572E+02  0.00000000000E+00 0.  1.
</event>
<event>
 7    1  0.4875579E-009  0.4778727E+02  0.7816164E-02  0.1312668E+00
        -11   -1    0    0    0    0  0.00000000000E+00  0.00000000000E+00  0.45593999997E+02  0.45594000000E+02  0.51100000000E-03 0.  1.
         11   -1    0    0    0    0 -0.00000000000E+00 -0.00000000000E+00 -0.45593999997E+02  0.45594000000E+02  0.51100000000E-03 0. -1.
    9900012    2    1    2    0    0  0.34940782777E+02  0.10055784232E+02  0.23699080170E+02  0.47787268456E+02  0.19999988200E+02 0.  0.
         12    1    1    2    0    0 -0.34940782777E+02 -0.10055784232E+02 -0.23699080170E+02  0.43400731544E+02  0.00000000000E+00 0. -1.
         11    1    3    3    0    0  0.17798514737E+02  0.30394849812E+01  0.93024320013E+01  0.20311593664E+02  0.51100000000E-03 0.  1.
        -11    1    3    3    0    0  0.77154347185E+01  0.20940950457E+00 -0.14170981915E+01  0.78472895181E+01  0.51100000000E-03 0. -1.
         12    1    3    3    0    0  0.94268333218E+01  0.68068897464E+01  0.15813746361E+02  0.19628385274E+02  0.00000000000E+00 0. -1.
</event>
<event>
 7    1  0.4875579E-009  0.4778727E+02  0.7816164E-02  0.1312668E+00
        -11   -1    0    0    0    0  0.00000000000E+00  0.00000000000E+00  0.45593999997E+02  0.45594000000E+02  0.51100000000E-03 0.  1.
         11   -1    0    0    0    0 -0.00000000000E+00 -0.00000000000E+00 -0.45593999997E+02  0.45594000000E+02  0.51100000000E-03 0. -1.
    9900012    2    1    2    0    0  0.28989423172E+02  0.22728135049E+02  0.22949269719E+02  0.47787265452E+02  0.19999974504E+02 0.  0.
         12    1    1    2    0    0 -0.28989423172E+02 -0.22728135049E+02 -0.22949269719E+02  0.43400734548E+02  0.00000000000E+00 0. -1.
         11    1    3    3    0    0  0.58315424599E+01 -0.73096973398E+00 -0.11069611022E+01  0.59805156430E+01  0.51100000000E-03 0. -1.
        -11    1    3    3    0    0  0.18614989846E+02  0.13424624938E+02  0.13948539055E+02  0.26857031551E+02  0.51100000000E-03 0.  1.
        -12    1    3    3    0    0  0.45428908662E+01  0.10034479845E+02  0.10107691766E+02  0.14949718259E+02  0.00000000000E+00 0.  1.
</event>
<event>
 7    1  0.4875579E-009  0.4778727E+02  0.7816164E-02  0.1312668E+00
        -11   -1    0    0    0    0  0.00000000000E+00  0.00000000000E+00  0.45593999997E+02  0.45594000000E+02  0.51100000000E-03 0. -1.
         11   -1    0    0    0    0 -0.00000000000E+00 -0.00000000000E+00 -0.45593999997E+02  0.45594000000E+02  0.51100000000E-03 0.  1.
    9900012    2    1    2    0    0  0.40469838401E+02 -0.13437295649E+02 -0.80780190338E+01  0.47787272748E+02  0.20000007765E+02 0.  0.
         12    1    1    2    0    0 -0.40469838401E+02  0.13437295649E+02  0.80780190338E+01  0.43400727252E+02  0.00000000000E+00 0. -1.
         11    1    3    3    0    0 -0.87060679193E+00  0.16763792205E+01 -0.20446475602E+01  0.27836643805E+01  0.51100000000E-03 0. -1.
        -11    1    3    3    0    0  0.45618850487E+01 -0.39576688849E+01 -0.19872159153E+01  0.63579057523E+01  0.51100000000E-03 0.  1.
        -12    1    3    3    0    0  0.36778560144E+02 -0.11156005984E+02 -0.40461555583E+01  0.38645702615E+02  0.00000000000E+00 0.  1.
</event>
<event>
 7    1  0.4875579E-009  0.4778727E+02  0.7816164E-02  0.1312668E+00
        -11   -1    0    0    0    0  0.00000000000E+00  0.00000000000E+00  0.45593999997E+02  0.45594000000E+02  0.51100000000E-03 0. -1.
         11   -1    0    0    0    0 -0.00000000000E+00 -0.00000000000E+00 -0.45593999997E+02  0.45594000000E+02  0.51100000000E-03 0.  1.
    9900012    2    1    2    0    0 -0.25947104444E+02 -0.29505603181E+02 -0.18433405801E+02  0.47787270772E+02  0.19999998757E+02 0.  0.
         12    1    1    2    0    0  0.25947104444E+02  0.29505603181E+02  0.18433405801E+02  0.43400729228E+02  0.00000000000E+00 0. -1.
         11    1    3    3    0    0 -0.12405179166E+02 -0.40049498052E+01 -0.37767328936E+01  0.13571728139E+02  0.51100000000E-03 0. -1.
        -11    1    3    3    0    0 -0.12421815354E+02 -0.11710734292E+02 -0.76547115433E+01  0.18709286555E+02  0.51100000000E-03 0.  1.
         12    1    3    3    0    0 -0.11201099247E+01 -0.13789919084E+02 -0.70019613641E+01  0.15506256077E+02  0.00000000000E+00 0. -1.
</event>
<event>
 7    1  0.4875579E-009  0.4778727E+02  0.7816164E-02  0.1312668E+00
        -11   -1    0    0    0    0  0.00000000000E+00  0.00000000000E+00  0.45593999997E+02  0.45594000000E+02  0.51100000000E-03 0.  1.
         11   -1    0    0    0    0 -0.00000000000E+00 -0.00000000000E+00 -0.45593999997E+02  0.45594000000E+02  0.51100000000E-03 0. -1.
    9900012    2    1    2    0    0  0.30423556255E+02  0.24865138304E+01  0.30852026107E+02  0.47787273726E+02  0.20000012225E+02 0.  0.
         12    1    1    2    0    0 -0.30423556255E+02 -0.24865138304E+01 -0.30852026107E+02  0.43400726274E+02  0.00000000000E+00 0. -1.
         11    1    3    3    0    0  0.74304706619E+00 -0.29987425859E+01 -0.13949594262E+01  0.33897622484E+01  0.51100000000E-03 0. -1.
        -11    1    3    3    0    0  0.67041677773E+01 -0.24376980696E+00  0.88845182234E+01  0.11132832238E+02  0.51100000000E-03 0.  1.
         12    1    3    3    0    0  0.22976341412E+02  0.57290262232E+01  0.23362467310E+02  0.33264679240E+02  0.00000000000E+00 0. -1.
</event>
<event>
 7    1  0.4875579E-009  0.4778727E+02  0.7816164E-02  0.1312668E+00
        -11   -1    0    0    0    0  0.00000000000E+00  0.00000000000E+00  0.45593999997E+02  0.45594000000E+02  0.51100000000E-03 0.  1.
         11   -1    0    0    0    0 -0.00000000000E+00 -0.00000000000E+00 -0.45593999997E+02  0.45594000000E+02  0.51100000000E-03 0. -1.
    9900012    2    1    2    0    0  0.39451496868E+02 -0.10499871121E+02  0.14729401667E+02  0.47787272216E+02  0.20000005342E+02 0.  0.
         12    1    1    2    0    0 -0.39451496868E+02  0.10499871121E+02 -0.14729401667E+02  0.43400727784E+02  0.00000000000E+00 0. -1.
         11    1    3    3    0    0  0.49881586743E+01  0.23935076925E+01  0.52279096956E+01  0.76119410192E+01  0.51100000000E-03 0. -1.
        -11    1    3    3    0    0  0.12155742791E+02  0.18143634603E+01  0.23221692492E+01  0.12507856245E+02  0.51100000000E-03 0.  1.
        -12    1    3    3    0    0  0.22307595403E+02 -0.14707742274E+02  0.71793227224E+01  0.27667474951E+02  0.00000000000E+00 0.  1.
</event>
<event>
 7    1  0.4875579E-009  0.4778727E+02  0.7816164E-02  0.1312668E+00
        -11   -1    0    0    0    0  0.00000000000E+00  0.00000000000E+00  0.45593999997E+02  0.45594000000E+02  0.51100000000E-03 0.  1.
         11   -1    0    0    0    0 -0.00000000000E+00 -0.00000000000E+00 -0.45593999997E+02  0.45594000000E+02  0.51100000000E-03 0. -1.
    9900012    2    1    2    0    0 -0.69529188693E+01  0.21962088209E+02  0.36782427595E+02  0.47787269832E+02  0.19999994474E+02 0.  0.
         12    1    1    2    0    0  0.69529188693E+01 -0.21962088209E+02 -0.36782427595E+02  0.43400730168E+02  0.00000000000E+00 0. -1.
         11    1    3    3    0    0 -0.30589474810E+01  0.13490533278E+02  0.11746292018E+02  0.18147369623E+02  0.51100000000E-03 0. -1.
        -11    1    3    3    0    0  0.46672605621E+01  0.42605110484E+01  0.96030785923E+01  0.11495842477E+02  0.51100000000E-03 0.  1.
         12    1    3    3    0    0 -0.85612319504E+01  0.42110438831E+01  0.15433056985E+02  0.18144057732E+02  0.00000000000E+00 0. -1.
</event>
<event>
 7    1  0.4875579E-009  0.4778727E+02  0.7816164E-02  0.1312668E+00
        -11   -1    0    0    0    0  0.00000000000E+00  0.00000000000E+00  0.45593999997E+02  0.45594000000E+02  0.51100000000E-03 0. -1.
         11   -1    0    0    0    0 -0.00000000000E+00 -0.00000000000E+00 -0.45593999997E+02  0.45594000000E+02  0.51100000000E-03 0.  1.
    9900012    2    1    2    0    0 -0.12551186309E+02  0.20200466662E+02 -0.36304711153E+02  0.47787272091E+02  0.20000004773E+02 0.  0.
         12    1    1    2    0    0  0.12551186309E+02 -0.20200466662E+02  0.36304711153E+02  0.43400727909E+02  0.00000000000E+00 0. -1.
         11    1    3    3    0    0 -0.73805402032E+01  0.15080733705E+02 -0.16097280504E+02  0.23259908483E+02  0.51100000000E-03 0. -1.
        -11    1    3    3    0    0 -0.86243855548E+01  0.21911556052E+01 -0.10154599250E+02  0.13501743416E+02  0.51100000000E-03 0.  1.
         12    1    3    3    0    0  0.34537394489E+01  0.29285773522E+01 -0.10052831398E+02  0.11025620192E+02  0.00000000000E+00 0. -1.
</event>
<event>
 7    1  0.4875579E-009  0.4778727E+02  0.7816164E-02  0.1312668E+00
        -11   -1    0    0    0    0  0.00000000000E+00  0.00000000000E+00  0.45593999997E+02  0.45594000000E+02  0.51100000000E-03 0.  1.
         11   -1    0    0    0    0 -0.00000000000E+00 -0.00000000000E+00 -0.45593999997E+02  0.45594000000E+02  0.51100000000E-03 0. -1.
    9900012    2    1    2    0    0 -0.11765906845E+02  0.88256054159E+01  0.40832529364E+02  0.47787270408E+02  0.19999997096E+02 0.  0.
         12    1    1    2    0    0  0.11765906845E+02 -0.88256054159E+01 -0.40832529364E+02  0.43400729592E+02  0.00000000000E+00 0. -1.
         11    1    3    3    0    0 -0.10217285562E+01  0.35451212111E+01 -0.37679550432E+00  0.37086100842E+01  0.51100000000E-03 0. -1.
        -11    1    3    3    0    0  0.15658751216E+01  0.12382864082E+01  0.11425894780E+02  0.11598982279E+02  0.51100000000E-03 0.  1.
        -12    1    3    3    0    0 -0.12310053411E+02  0.40421977967E+01  0.29783430089E+02  0.32479678044E+02  0.00000000000E+00 0.  1.
</event>
<event>
 7    1  0.4875579E-009  0.4778727E+02  0.7816164E-02  0.1312668E+00
        -11   -1    0    0    0    0  0.00000000000E+00  0.00000000000E+00  0.45593999997E+02  0.45594000000E+02  0.51100000000E-03 0. -1.
         11   -1    0    0    0    0 -0.00000000000E+00 -0.00000000000E+00 -0.45593999997E+02  0.45594000000E+02  0.51100000000E-03 0.  1.
    9900012    2    1    2    0    0  0.28984871134E+02 -0.23847210960E+02 -0.21790162995E+02  0.47787269263E+02  0.19999991876E+02 0.  0.
         12    1    1    2    0    0 -0.28984871134E+02  0.23847210960E+02  0.21790162995E+02  0.43400730737E+02  0.00000000000E+00 0. -1.
         11    1    3    3    0    0  0.56167897584E+01 -0.10733546859E+02 -0.17560873425E+01  0.12240963948E+02  0.51100000000E-03 0. -1.
        -11    1    3    3    0    0  0.18807155294E+02 -0.11378997748E+02 -0.95190188594E+01  0.23954172921E+02  0.51100000000E-03 0.  1.
         12    1    3    3    0    0  0.45609260813E+01 -0.17346663525E+01 -0.10515056793E+02  0.11592132393E+02  0.00000000000E+00 0. -1.
</event>
<event>
 7    1  0.4875579E-009  0.4778727E+02  0.7816164E-02  0.1312668E+00
        -11   -1    0    0    0    0  0.00000000000E+00  0.00000000000E+00  0.45593999997E+02  0.45594000000E+02  0.51100000000E-03 0.  1.
         11   -1    0    0    0    0 -0.00000000000E+00 -0.00000000000E+00 -0.45593999997E+02  0.45594000000E+02  0.51100000000E-03 0. -1.
    9900012    2    1    2    0    0  0.31376841584E+02  0.57704970596E+01  0.29424789222E+02  0.47787273683E+02  0.20000012030E+02 0.  0.
         12    1    1    2    0    0 -0.31376841584E+02 -0.57704970596E+01 -0.29424789222E+02  0.43400726317E+02  0.00000000000E+00 0. -1.
         11    1    3    3    0    0  0.84820705284E+00 -0.43468935600E+01  0.14798752488E+01  0.46695791930E+01  0.51100000000E-03 0. -1.
        -11    1    3    3    0    0  0.28359050171E+01 -0.32474750712E+00  0.46390926786E+01  0.54469256789E+01  0.51100000000E-03 0.  1.
         12    1    3    3    0    0  0.27692729514E+02  0.10442138127E+02  0.23305821294E+02  0.37670768811E+02  0.00000000000E+00 0. -1.
</event>
<event>
 7    1  0.4875579E-009  0.4778727E+02  0.7816164E-02  0.1312668E+00
        -11   -1    0    0    0    0  0.00000000000E+00  0.00000000000E+00  0.45593999997E+02  0.45594000000E+02  0.51100000000E-03 0.  1.
         11   -1    0    0    0    0 -0.00000000000E+00 -0.00000000000E+00 -0.45593999997E+02  0.45594000000E+02  0.51100000000E-03 0. -1.
    9900012    2    1    2    0    0  0.35595438108E+02 -0.36913768404E+01  0.24555280379E+02  0.47787271071E+02  0.20000000119E+02 0.  0.
         12    1    1    2    0    0 -0.35595438108E+02  0.36913768404E+01 -0.24555280379E+02  0.43400728929E+02  0.00000000000E+00 0. -1.
         11    1    3    3    0    0  0.22086698677E+01  0.25142234292E+01 -0.16696237301E+01  0.37399446115E+01  0.51100000000E-03 0. -1.
        -11    1    3    3    0    0  0.13830272263E+02  0.17588784666E+01  0.75328419625E+01  0.15846570374E+02  0.51100000000E-03 0.  1.
        -12    1    3    3    0    0  0.19556495978E+02 -0.79644787362E+01  0.18692062147E+02  0.28200756085E+02  0.00000000000E+00 0.  1.
</event>
<event>
 7    1  0.4875579E-009  0.4778728E+02  0.7816164E-02  0.1312668E+00
        -11   -1    0    0    0    0  0.00000000000E+00  0.00000000000E+00  0.45593999997E+02  0.45594000000E+02  0.51100000000E-03 0.  1.
         11   -1    0    0    0    0 -0.00000000000E+00 -0.00000000000E+00 -0.45593999997E+02  0.45594000000E+02  0.51100000000E-03 0. -1.
    9900012    2    1    2    0    0 -0.25930913837E+02  0.23361846298E+02  0.25796012179E+02  0.47787281121E+02  0.20000045942E+02 0.  0.
         12    1    1    2    0    0  0.25930913837E+02 -0.23361846298E+02 -0.25796012179E+02  0.43400718879E+02  0.00000000000E+00 0. -1.
         11    1    3    3    0    0 -0.10961609571E+02  0.32326806861E+01  0.68387701653E+01  0.13318253881E+02  0.51100000000E-03 0. -1.
        -11    1    3    3    0    0 -0.15113730446E+02  0.96101705767E+01  0.92649472468E+01  0.20164807816E+02  0.51100000000E-03 0.  1.
         12    1    3    3    0    0  0.14442617962E+00  0.10518995035E+02  0.96922947671E+01  0.14304219424E+02  0.00000000000E+00 0. -1.
</event>
<event>
 7    1  0.4875579E-009  0.4778722E+02  0.7816164E-02  0.1312668E+00
        -11   -1    0    0    0    0  0.00000000000E+00  0.00000000000E+00  0.45593999997E+02  0.45594000000E+02  0.51100000000E-03 0. -1.
         11   -1    0    0    0    0 -0.00000000000E+00 -0.00000000000E+00 -0.45593999997E+02  0.45594000000E+02  0.51100000000E-03 0.  1.
    9900012    2    1    2    0    0 -0.29614326312E+02  0.60558359834E+01 -0.31143963021E+02  0.47787217691E+02  0.19999756738E+02 0.  0.
         12    1    1    2    0    0  0.29614326312E+02 -0.60558359834E+01  0.31143963021E+02  0.43400782309E+02  0.00000000000E+00 0. -1.
         11    1    3    3    0    0 -0.14240698828E+01 -0.30080971958E+01 -0.27889798591E+01  0.43422382115E+01  0.51100000000E-03 0. -1.
        -11    1    3    3    0    0 -0.54679192052E+00  0.31765412032E+01 -0.79701666531E+01  0.85972642253E+01  0.51100000000E-03 0.  1.
         12    1    3    3    0    0 -0.27643464509E+02  0.58873919760E+01 -0.20384816509E+02  0.34847715254E+02  0.00000000000E+00 0. -1.
</event>
<event>
 7    1  0.4875579E-009  0.4778727E+02  0.7816164E-02  0.1312668E+00
        -11   -1    0    0    0    0  0.00000000000E+00  0.00000000000E+00  0.45593999997E+02  0.45594000000E+02  0.51100000000E-03 0.  1.
         11   -1    0    0    0    0 -0.00000000000E+00 -0.00000000000E+00 -0.45593999997E+02  0.45594000000E+02  0.51100000000E-03 0. -1.
    9900012    2    1    2    0    0  0.32151982594E+02 -0.27005856306E+01  0.29027229769E+02  0.47787271717E+02  0.20000003064E+02 0.  0.
         12    1    1    2    0    0 -0.32151982594E+02  0.27005856306E+01 -0.29027229769E+02  0.43400728283E+02  0.00000000000E+00 0. -1.
         11    1    3    3    0    0  0.94372217397E+01 -0.72807157279E+00  0.10846344304E+02  0.14395639180E+02  0.51100000000E-03 0. -1.
        -11    1    3    3    0    0  0.14174597318E+02 -0.32532824367E+00  0.19990251185E+02  0.24507859766E+02  0.51100000000E-03 0.  1.
         12    1    3    3    0    0  0.85401635360E+01 -0.16471858141E+01 -0.18093657202E+01  0.88837727705E+01  0.00000000000E+00 0. -1.
</event>
<event>
 7    1  0.4875579E-009  0.4778728E+02  0.7816164E-02  0.1312668E+00
        -11   -1    0    0    0    0  0.00000000000E+00  0.00000000000E+00  0.45593999997E+02  0.45594000000E+02  0.51100000000E-03 0. -1.
         11   -1    0    0    0    0 -0.00000000000E+00 -0.00000000000E+00 -0.45593999997E+02  0.45594000000E+02  0.51100000000E-03 0.  1.
    9900012    2    1    2    0    0  0.42298755397E+02  0.97164698905E+01 -0.16857933951E+00  0.47787275187E+02  0.20000018890E+02 0.  0.
         12    1    1    2    0    0 -0.42298755397E+02 -0.97164698905E+01  0.16857933951E+00  0.43400724813E+02  0.00000000000E+00 0. -1.
         11    1    3    3    0    0  0.21240611937E+01  0.16967607878E+01 -0.40755931136E+01  0.48990909987E+01  0.51100000000E-03 0. -1.
        -11    1    3    3    0    0  0.18979289733E+02 -0.14197142945E+01 -0.14098674077E+01  0.19084463676E+02  0.51100000000E-03 0.  1.
         12    1    3    3    0    0  0.21195404471E+02  0.94394233972E+01  0.53168811817E+01  0.23803720513E+02  0.00000000000E+00 0. -1.
</event>
<event>
 7    1  0.4875579E-009  0.4778727E+02  0.7816164E-02  0.1312668E+00
        -11   -1    0    0    0    0  0.00000000000E+00  0.00000000000E+00  0.45593999997E+02  0.45594000000E+02  0.51100000000E-03 0.  1.
         11   -1    0    0    0    0 -0.00000000000E+00 -0.00000000000E+00 -0.45593999997E+02  0.45594000000E+02  0.51100000000E-03 0. -1.
    9900012    2    1    2    0    0 -0.45935844973E+01  0.39731482438E+02  0.16850266301E+02  0.47787272014E+02  0.20000004421E+02 0.  0.
         12    1    1    2    0    0  0.45935844973E+01 -0.39731482438E+02 -0.16850266301E+02  0.43400727986E+02  0.00000000000E+00 0. -1.
         11    1    3    3    0    0 -0.45553372052E+01  0.14006242438E+02  0.12238875200E+02  0.19149830044E+02  0.51100000000E-03 0. -1.
        -11    1    3    3    0    0 -0.24260167257E+01  0.22749786105E+02  0.72485989302E+01  0.23999593990E+02  0.51100000000E-03 0.  1.
        -12    1    3    3    0    0  0.23877694336E+01  0.29754538961E+01 -0.26372078293E+01  0.46378479806E+01  0.00000000000E+00 0.  1.
</event>
<event>
 7    1  0.4875579E-009  0.4778727E+02  0.7816164E-02  0.1312668E+00
        -11   -1    0    0    0    0  0.00000000000E+00  0.00000000000E+00  0.45593999997E+02  0.45594000000E+02  0.51100000000E-03 0.  1.
         11   -1    0    0    0    0 -0.00000000000E+00 -0.00000000000E+00 -0.45593999997E+02  0.45594000000E+02  0.51100000000E-03 0. -1.
    9900012    2    1    2    0    0 -0.76330595000E+00 -0.41898436532E+02  0.11294316420E+02  0.47787271859E+02  0.20000003714E+02 0.  0.
         12    1    1    2    0    0  0.76330595000E+00  0.41898436532E+02 -0.11294316420E+02  0.43400728141E+02  0.00000000000E+00 0. -1.
         11    1    3    3    0    0  0.69903707262E+01 -0.15461705848E+02  0.37360477348E+01  0.17374915354E+02  0.51100000000E-03 0. -1.
        -11    1    3    3    0    0  0.99291325988E-01 -0.13370646146E+02 -0.58248273310E-01  0.13371141696E+02  0.51100000000E-03 0.  1.
        -12    1    3    3    0    0 -0.78529680021E+01 -0.13066084538E+02  0.76165169586E+01  0.17041214809E+02  0.00000000000E+00 0.  1.
</event>
<event>
 7    1  0.4875579E-009  0.4778727E+02  0.7816164E-02  0.1312668E+00
        -11   -1    0    0    0    0  0.00000000000E+00  0.00000000000E+00  0.45593999997E+02  0.45594000000E+02  0.51100000000E-03 0.  1.
         11   -1    0    0    0    0 -0.00000000000E+00 -0.00000000000E+00 -0.45593999997E+02  0.45594000000E+02  0.51100000000E-03 0. -1.
    9900012    2    1    2    0    0 -0.22684107042E+02 -0.30359106175E+02  0.21151345092E+02  0.47787269139E+02  0.19999991312E+02 0.  0.
         12    1    1    2    0    0  0.22684107042E+02  0.30359106175E+02 -0.21151345092E+02  0.43400730861E+02  0.00000000000E+00 0. -1.
         11    1    3    3    0    0 -0.51987093171E+01 -0.15754488789E+02  0.10418397422E+02  0.19590137842E+02  0.51100000000E-03 0. -1.
        -11    1    3    3    0    0 -0.21443475745E+01 -0.93058226993E+01  0.60494234681E+01  0.11304516230E+02  0.51100000000E-03 0.  1.
         12    1    3    3    0    0 -0.15341050151E+02 -0.52987946870E+01  0.46835242025E+01  0.16892615067E+02  0.00000000000E+00 0. -1.
</event>
<event>
 7    1  0.4875579E-009  0.4778730E+02  0.7816164E-02  0.1312668E+00
        -11   -1    0    0    0    0  0.00000000000E+00  0.00000000000E+00  0.45593999997E+02  0.45594000000E+02  0.51100000000E-03 0. -1.
         11   -1    0    0    0    0 -0.00000000000E+00 -0.00000000000E+00 -0.45593999997E+02  0.45594000000E+02  0.51100000000E-03 0.  1.
    9900012    2    1    2    0    0 -0.35368601612E+02 -0.16920064958E+02 -0.18611656728E+02  0.47787304795E+02  0.20000153880E+02 0.  0.
         12    1    1    2    0    0  0.35368601612E+02  0.16920064958E+02  0.18611656728E+02  0.43400695205E+02  0.00000000000E+00 0. -1.
         11    1    3    3    0    0 -0.48581602355E+01  0.18112834387E+01 -0.33078887379E+01  0.61501704637E+01  0.51100000000E-03 0. -1.
        -11    1    3    3    0    0 -0.37013866707E+01  0.39314985867E+00 -0.65963691628E+01  0.75740950938E+01  0.51100000000E-03 0.  1.
        -12    1    3    3    0    0 -0.26809054706E+02 -0.19124498255E+02 -0.87073988268E+01  0.34063039237E+02  0.00000000000E+00 0.  1.
</event>
<event>
 7    1  0.4875579E-009  0.4778724E+02  0.7816164E-02  0.1312668E+00
        -11   -1    0    0    0    0  0.00000000000E+00  0.00000000000E+00  0.45593999997E+02  0.45594000000E+02  0.51100000000E-03 0.  1.
         11   -1    0    0    0    0 -0.00000000000E+00 -0.00000000000E+00 -0.45593999997E+02  0.45594000000E+02  0.51100000000E-03 0. -1.
    9900012    2    1    2    0    0  0.65806952548E+01  0.21705534629E+02  0.37002569158E+02  0.47787240699E+02  0.19999861645E+02 0.  0.
         12    1    1    2    0    0 -0.65806952548E+01 -0.21705534629E+02 -0.37002569158E+02  0.43400759301E+02  0.00000000000E+00 0. -1.
         11    1    3    3    0    0 -0.24241570552E+01 -0.18793203786E+01  0.10518928218E+01  0.32426626841E+01  0.51100000000E-03 0. -1.
        -11    1    3    3    0    0  0.23305688829E+01  0.42462541011E+01  0.28151597971E+01  0.56024414458E+01  0.51100000000E-03 0.  1.
        -12    1    3    3    0    0  0.66742834270E+01  0.19338600906E+02  0.33135516539E+02  0.38942136570E+02  0.00000000000E+00 0.  1.
</event>
<event>
 7    1  0.4875579E-009  0.4778727E+02  0.7816164E-02  0.1312668E+00
        -11   -1    0    0    0    0  0.00000000000E+00  0.00000000000E+00  0.45593999997E+02  0.45594000000E+02  0.51100000000E-03 0.  1.
         11   -1    0    0    0    0 -0.00000000000E+00 -0.00000000000E+00 -0.45593999997E+02  0.45594000000E+02  0.51100000000E-03 0. -1.
    9900012    2    1    2    0    0 -0.22594317883E+02  0.19595441869E+02  0.31450581197E+02  0.47787267284E+02  0.19999982855E+02 0.  0.
         12    1    1    2    0    0  0.22594317883E+02 -0.19595441869E+02 -0.31450581197E+02  0.43400732716E+02  0.00000000000E+00 0. -1.
         11    1    3    3    0    0  0.14865615166E+01  0.29847729639E+01  0.25371030049E+01  0.41899435208E+01  0.51100000000E-03 0. -1.
        -11    1    3    3    0    0 -0.88034929342E+01 -0.11239382832E+01  0.10928707352E+02  0.14078400824E+02  0.51100000000E-03 0.  1.
        -12    1    3    3    0    0 -0.15277386466E+02  0.17734607188E+02  0.17984770840E+02  0.29518922939E+02  0.00000000000E+00 0.  1.
</event>
<event>
 7    1  0.4875579E-009  0.4778726E+02  0.7816164E-02  0.1312668E+00
        -11   -1    0    0    0    0  0.00000000000E+00  0.00000000000E+00  0.45593999997E+02  0.45594000000E+02  0.51100000000E-03 0.  1.
         11   -1    0    0    0    0 -0.00000000000E+00 -0.00000000000E+00 -0.45593999997E+02  0.45594000000E+02  0.51100000000E-03 0. -1.
    9900012    2    1    2    0    0  0.35994335839E+02  0.27333057842E+01  0.24094843072E+02  0.47787255356E+02  0.19999928472E+02 0.  0.
         12    1    1    2    0    0 -0.35994335839E+02 -0.27333057842E+01 -0.24094843072E+02  0.43400744644E+02  0.00000000000E+00 0. -1.
         11    1    3    3    0    0  0.18196057333E+02 -0.19664984632E+00  0.48846312046E+01  0.18841305579E+02  0.51100000000E-03 0. -1.
        -11    1    3    3    0    0  0.15924821778E+02  0.32690245694E+01  0.90444819843E+01  0.18603470776E+02  0.51100000000E-03 0.  1.
         12    1    3    3    0    0  0.18734567276E+01 -0.33906893895E+00  0.10165729883E+02  0.10342479002E+02  0.00000000000E+00 0. -1.
</event>
<event>
 7    1  0.4875579E-009  0.4778727E+02  0.7816164E-02  0.1312668E+00
        -11   -1    0    0    0    0  0.00000000000E+00  0.00000000000E+00  0.45593999997E+02  0.45594000000E+02  0.51100000000E-03 0.  1.
         11   -1    0    0    0    0 -0.00000000000E+00 -0.00000000000E+00 -0.45593999997E+02  0.45594000000E+02  0.51100000000E-03 0. -1.
    9900012    2    1    2    0    0  0.21340737396E+02  0.27339586124E+02  0.26091051968E+02  0.47787273798E+02  0.20000012556E+02 0.  0.
         12    1    1    2    0    0 -0.21340737396E+02 -0.27339586124E+02 -0.26091051968E+02  0.43400726202E+02  0.00000000000E+00 0. -1.
         11    1    3    3    0    0  0.23334116614E+01  0.12095056761E+02  0.52733707153E+01  0.13399389799E+02  0.51100000000E-03 0. -1.
        -11    1    3    3    0    0 -0.12795301515E+01  0.34349910519E+01  0.14005177522E+01  0.39240044815E+01  0.51100000000E-03 0.  1.
         12    1    3    3    0    0  0.20286855886E+02  0.11809538312E+02  0.19417163501E+02  0.30463879518E+02  0.00000000000E+00 0. -1.
</event>
<event>
 7    1  0.4875579E-009  0.4778727E+02  0.7816164E-02  0.1312668E+00
        -11   -1    0    0    0    0  0.00000000000E+00  0.00000000000E+00  0.45593999997E+02  0.45594000000E+02  0.51100000000E-03 0.  1.
         11   -1    0    0    0    0 -0.00000000000E+00 -0.00000000000E+00 -0.45593999997E+02  0.45594000000E+02  0.51100000000E-03 0. -1.
    9900012    2    1    2    0    0 -0.27442113773E+02  0.75670202295E+01  0.32761166843E+02  0.47787268941E+02  0.19999990412E+02 0.  0.
         12    1    1    2    0    0  0.27442113773E+02 -0.75670202295E+01 -0.32761166843E+02  0.43400731059E+02  0.00000000000E+00 0. -1.
         11    1    3    3    0    0  0.76002833289E+00  0.11532182180E+01  0.86770285982E+01  0.87862609157E+01  0.51100000000E-03 0.  1.
        -11    1    3    3    0    0 -0.10715628237E+02  0.72137578165E+01  0.12731883686E+02  0.18137360690E+02  0.51100000000E-03 0. -1.
         12    1    3    3    0    0 -0.17486513869E+02 -0.79995580489E+00  0.11352254559E+02  0.20863647336E+02  0.00000000000E+00 0. -1.
</event>
<event>
 7    1  0.4875579E-009  0.4778728E+02  0.7816164E-02  0.1312668E+00
        -11   -1    0    0    0    0  0.00000000000E+00  0.00000000000E+00  0.45593999997E+02  0.45594000000E+02  0.51100000000E-03 0.  1.
         11   -1    0    0    0    0 -0.00000000000E+00 -0.00000000000E+00 -0.45593999997E+02  0.45594000000E+02  0.51100000000E-03 0. -1.
    9900012    2    1    2    0    0  0.92566411740E+01 -0.40231158304E+02  0.13393699000E+02  0.47787277918E+02  0.20000031339E+02 0.  0.
         12    1    1    2    0    0 -0.92566411740E+01  0.40231158304E+02 -0.13393699000E+02  0.43400722082E+02  0.00000000000E+00 0. -1.
         11    1    3    3    0    0 -0.19886026274E+01 -0.12698314632E+02  0.35235119596E+00  0.12857911438E+02  0.51100000000E-03 0. -1.
        -11    1    3    3    0    0  0.11602900079E+02 -0.13135144953E+02  0.41734498456E+01  0.18016020844E+02  0.51100000000E-03 0.  1.
         12    1    3    3    0    0 -0.35765627713E+00 -0.14397698718E+02  0.88678979589E+01  0.16913345636E+02  0.00000000000E+00 0. -1.
</event>
<event>
 7    1  0.4875579E-009  0.4778727E+02  0.7816164E-02  0.1312668E+00
        -11   -1    0    0    0    0  0.00000000000E+00  0.00000000000E+00  0.45593999997E+02  0.45594000000E+02  0.51100000000E-03 0.  1.
         11   -1    0    0    0    0 -0.00000000000E+00 -0.00000000000E+00 -0.45593999997E+02  0.45594000000E+02  0.51100000000E-03 0. -1.
    9900012    2    1    2    0    0  0.13056913048E+02  0.27837979199E+02  0.30629844845E+02  0.47787268906E+02  0.19999990251E+02 0.  0.
         12    1    1    2    0    0 -0.13056913048E+02 -0.27837979199E+02 -0.30629844845E+02  0.43400731094E+02  0.00000000000E+00 0. -1.
         11    1    3    3    0    0  0.15587518901E+01 -0.96292899225E+00  0.19612237519E+01  0.26839036058E+01  0.51100000000E-03 0. -1.
        -11    1    3    3    0    0  0.14214354957E+01 -0.19766163255E+01  0.20328727464E+01  0.31717602102E+01  0.51100000000E-03 0.  1.
        -12    1    3    3    0    0  0.10076725662E+02  0.30777524517E+02  0.26635748347E+02  0.41931605090E+02  0.00000000000E+00 0.  1.
</event>
<event>
 7    1  0.4875579E-009  0.4778726E+02  0.7816164E-02  0.1312668E+00
        -11   -1    0    0    0    0  0.00000000000E+00  0.00000000000E+00  0.45593999997E+02  0.45594000000E+02  0.51100000000E-03 0.  1.
         11   -1    0    0    0    0 -0.00000000000E+00 -0.00000000000E+00 -0.45593999997E+02  0.45594000000E+02  0.51100000000E-03 0. -1.
    9900012    2    1    2    0    0 -0.26061135911E+02 -0.26750889130E+02  0.22109522217E+02  0.47787264443E+02  0.19999969903E+02 0.  0.
         12    1    1    2    0    0  0.26061135911E+02  0.26750889130E+02 -0.22109522217E+02  0.43400735557E+02  0.00000000000E+00 0. -1.
         11    1    3    3    0    0 -0.78744161106E+01 -0.12755476082E+02 -0.51540821834E+00  0.14999141477E+02  0.51100000000E-03 0. -1.
        -11    1    3    3    0    0 -0.74499859307E+01 -0.76722270050E+01  0.69085803737E+01  0.12731607936E+02  0.51100000000E-03 0.  1.
         12    1    3    3    0    0 -0.10736733869E+02 -0.63231860429E+01  0.15716350062E+02  0.20056515031E+02  0.00000000000E+00 0. -1.
</event>
<event>
 7    1  0.4875579E-009  0.4778728E+02  0.7816164E-02  0.1312668E+00
        -11   -1    0    0    0    0  0.00000000000E+00  0.00000000000E+00  0.45593999997E+02  0.45594000000E+02  0.51100000000E-03 0.  1.
         11   -1    0    0    0    0 -0.00000000000E+00 -0.00000000000E+00 -0.45593999997E+02  0.45594000000E+02  0.51100000000E-03 0. -1.
    9900012    2    1    2    0    0  0.25825433137E+02 -0.12113968294E+02  0.32709656417E+02  0.47787275956E+02  0.20000022396E+02 0.  0.
         12    1    1    2    0    0 -0.25825433137E+02  0.12113968294E+02 -0.32709656417E+02  0.43400724044E+02  0.00000000000E+00 0. -1.
         11    1    3    3    0    0  0.33627144944E+01 -0.66041608609E+01  0.12357957840E+02  0.14409785275E+02  0.51100000000E-03 0. -1.
        -11    1    3    3    0    0  0.30750874584E+01  0.27307836356E+01  0.79001943448E+01  0.89065376600E+01  0.51100000000E-03 0.  1.
         12    1    3    3    0    0  0.19387631184E+02 -0.82405910690E+01  0.12451504233E+02  0.24470953021E+02  0.00000000000E+00 0. -1.
</event>
<event>
 7    1  0.4875579E-009  0.4778727E+02  0.7816164E-02  0.1312668E+00
        -11   -1    0    0    0    0  0.00000000000E+00  0.00000000000E+00  0.45593999997E+02  0.45594000000E+02  0.51100000000E-03 0.  1.
         11   -1    0    0    0    0 -0.00000000000E+00 -0.00000000000E+00 -0.45593999997E+02  0.45594000000E+02  0.51100000000E-03 0. -1.
    9900012    2    1    2    0    0 -0.23859353245E+02  0.29084862609E+02  0.21643133918E+02  0.47787271711E+02  0.20000003037E+02 0.  0.
         12    1    1    2    0    0  0.23859353245E+02 -0.29084862609E+02 -0.21643133918E+02  0.43400728289E+02  0.00000000000E+00 0. -1.
         11    1    3    3    0    0 -0.22473328398E+02  0.19267127028E+02  0.11587836286E+02  0.31789158895E+02  0.51100000000E-03 0. -1.
        -11    1    3    3    0    0 -0.34806558681E+01  0.23831233325E+01  0.58234942573E+01  0.71907807445E+01  0.51100000000E-03 0.  1.
         12    1    3    3    0    0  0.20946310212E+01  0.74346122487E+01  0.42318033750E+01  0.88073320710E+01  0.00000000000E+00 0. -1.
</event>
<event>
 7    1  0.4875579E-009  0.4778730E+02  0.7816164E-02  0.1312668E+00
        -11   -1    0    0    0    0  0.00000000000E+00  0.00000000000E+00  0.45593999997E+02  0.45594000000E+02  0.51100000000E-03 0. -1.
         11   -1    0    0    0    0 -0.00000000000E+00 -0.00000000000E+00 -0.45593999997E+02  0.45594000000E+02  0.51100000000E-03 0.  1.
    9900012    2    1    2    0    0  0.27244480921E+02  0.29108123764E+02 -0.17148654284E+02  0.47787297777E+02  0.20000121884E+02 0.  0.
         12    1    1    2    0    0 -0.27244480921E+02 -0.29108123764E+02  0.17148654284E+02  0.43400702223E+02  0.00000000000E+00 0. -1.
         11    1    3    3    0    0 -0.90227127779E+00  0.77073717645E-01 -0.19853762017E+01  0.21821440695E+01  0.51100000000E-03 0. -1.
        -11    1    3    3    0    0  0.17765497915E+02  0.14551902225E+02 -0.15636717729E+02  0.27782687345E+02  0.51100000000E-03 0.  1.
        -12    1    3    3    0    0  0.10381254284E+02  0.14479147822E+02  0.47343964625E+00  0.17822466363E+02  0.00000000000E+00 0.  1.
</event>
<event>
 7    1  0.4875579E-009  0.4778727E+02  0.7816164E-02  0.1312668E+00
        -11   -1    0    0    0    0  0.00000000000E+00  0.00000000000E+00  0.45593999997E+02  0.45594000000E+02  0.51100000000E-03 0.  1.
         11   -1    0    0    0    0 -0.00000000000E+00 -0.00000000000E+00 -0.45593999997E+02  0.45594000000E+02  0.51100000000E-03 0. -1.
    9900012    2    1    2    0    0 -0.26003821752E+02  0.30152680622E+02 -0.17269630088E+02  0.47787273995E+02  0.20000013451E+02 0.  0.
         12    1    1    2    0    0  0.26003821752E+02 -0.30152680622E+02  0.17269630088E+02  0.43400726005E+02  0.00000000000E+00 0. -1.
         11    1    3    3    0    0 -0.60687580918E+01  0.69409745018E+01 -0.18497407827E+01  0.94036425408E+01  0.51100000000E-03 0. -1.
        -11    1    3    3    0    0 -0.21030572530E+02  0.21304873649E+02 -0.18048730445E+02  0.34956248270E+02  0.51100000000E-03 0.  1.
         12    1    3    3    0    0  0.10955088690E+01  0.19068324709E+01  0.26288411397E+01  0.34273831842E+01  0.00000000000E+00 0. -1.
</event>
<event>
 7    1  0.4875579E-009  0.4778727E+02  0.7816164E-02  0.1312668E+00
        -11   -1    0    0    0    0  0.00000000000E+00  0.00000000000E+00  0.45593999997E+02  0.45594000000E+02  0.51100000000E-03 0.  1.
         11   -1    0    0    0    0 -0.00000000000E+00 -0.00000000000E+00 -0.45593999997E+02  0.45594000000E+02  0.51100000000E-03 0. -1.
    9900012    2    1    2    0    0 -0.25977593255E+02  0.18533363793E+02  0.29416019247E+02  0.47787272896E+02  0.20000008443E+02 0.  0.
         12    1    1    2    0    0  0.25977593255E+02 -0.18533363793E+02 -0.29416019247E+02  0.43400727104E+02  0.00000000000E+00 0. -1.
         11    1    3    3    0    0  0.20101839351E+01 -0.14039312892E+01  0.38716932773E+01  0.45827799001E+01  0.51100000000E-03 0. -1.
        -11    1    3    3    0    0 -0.11409963988E+01  0.26479656010E+01  0.16501286878E+01  0.33221257582E+01  0.51100000000E-03 0.  1.
        -12    1    3    3    0    0 -0.26846780792E+02  0.17289329481E+02  0.23894197282E+02  0.39882367238E+02  0.00000000000E+00 0.  1.
</event>
<event>
 7    1  0.4875579E-009  0.4778727E+02  0.7816164E-02  0.1312668E+00
        -11   -1    0    0    0    0  0.00000000000E+00  0.00000000000E+00  0.45593999997E+02  0.45594000000E+02  0.51100000000E-03 0.  1.
         11   -1    0    0    0    0 -0.00000000000E+00 -0.00000000000E+00 -0.45593999997E+02  0.45594000000E+02  0.51100000000E-03 0. -1.
    9900012    2    1    2    0    0 -0.23447389672E+02  0.23443840821E+02  0.28004097161E+02  0.47787271750E+02  0.20000003217E+02 0.  0.
         12    1    1    2    0    0  0.23447389672E+02 -0.23443840821E+02 -0.28004097161E+02  0.43400728250E+02  0.00000000000E+00 0. -1.
         11    1    3    3    0    0 -0.23292188575E+01 -0.60645773848E+00  0.68597932414E+01  0.72697878271E+01  0.51100000000E-03 0.  1.
        -11    1    3    3    0    0 -0.10152963522E+02  0.12772297089E+02  0.18326496570E+02  0.24537210885E+02  0.51100000000E-03 0. -1.
         12    1    3    3    0    0 -0.10965207292E+02  0.11278001470E+02  0.28178073497E+01  0.15980273038E+02  0.00000000000E+00 0. -1.
</event>
<event>
 7    1  0.4875579E-009  0.4778727E+02  0.7816164E-02  0.1312668E+00
        -11   -1    0    0    0    0  0.00000000000E+00  0.00000000000E+00  0.45593999997E+02  0.45594000000E+02  0.51100000000E-03 0.  1.
         11   -1    0    0    0    0 -0.00000000000E+00 -0.00000000000E+00 -0.45593999997E+02  0.45594000000E+02  0.51100000000E-03 0. -1.
    9900012    2    1    2    0    0  0.34809523507E+02 -0.25390154891E+02  0.52211269508E+01  0.47787273522E+02  0.20000011296E+02 0.  0.
         12    1    1    2    0    0 -0.34809523507E+02  0.25390154891E+02 -0.52211269508E+01  0.43400726478E+02  0.00000000000E+00 0. -1.
         11    1    3    3    0    0  0.18014228588E+02 -0.95114179219E+01  0.19691747260E+01  0.20465999899E+02  0.51100000000E-03 0. -1.
        -11    1    3    3    0    0  0.90482713938E+01 -0.11879135016E+01 -0.29528394066E+01  0.95917472092E+01  0.51100000000E-03 0.  1.
        -12    1    3    3    0    0  0.77470235252E+01 -0.14690823468E+02  0.62047916313E+01  0.17729526413E+02  0.00000000000E+00 0.  1.
</event>
<event>
 7    1  0.4875579E-009  0.4778727E+02  0.7816164E-02  0.1312668E+00
        -11   -1    0    0    0    0  0.00000000000E+00  0.00000000000E+00  0.45593999997E+02  0.45594000000E+02  0.51100000000E-03 0.  1.
         11   -1    0    0    0    0 -0.00000000000E+00 -0.00000000000E+00 -0.45593999997E+02  0.45594000000E+02  0.51100000000E-03 0. -1.
    9900012    2    1    2    0    0 -0.30727325454E+02 -0.90869963228E+01  0.29272533158E+02  0.47787271559E+02  0.20000002345E+02 0.  0.
         12    1    1    2    0    0  0.30727325454E+02  0.90869963228E+01 -0.29272533158E+02  0.43400728441E+02  0.00000000000E+00 0. -1.
         11    1    3    3    0    0 -0.74494191089E+01 -0.25635744011E+00  0.78651679202E+01  0.10836070823E+02  0.51100000000E-03 0.  1.
        -11    1    3    3    0    0 -0.44692065926E-02  0.16613237469E+01  0.78925182029E+01  0.80654733531E+01  0.51100000000E-03 0. -1.
         12    1    3    3    0    0 -0.23273437139E+02 -0.10491962630E+02  0.13514847035E+02  0.28885727383E+02  0.00000000000E+00 0. -1.
</event>
<event>
 7    1  0.4875579E-009  0.4778727E+02  0.7816164E-02  0.1312668E+00
        -11   -1    0    0    0    0  0.00000000000E+00  0.00000000000E+00  0.45593999997E+02  0.45594000000E+02  0.51100000000E-03 0. -1.
         11   -1    0    0    0    0 -0.00000000000E+00 -0.00000000000E+00 -0.45593999997E+02  0.45594000000E+02  0.51100000000E-03 0.  1.
    9900012    2    1    2    0    0 -0.13536177201E+02 -0.36857909455E+02 -0.18490263556E+02  0.47787269258E+02  0.19999991853E+02 0.  0.
         12    1    1    2    0    0  0.13536177201E+02  0.36857909455E+02  0.18490263556E+02  0.43400730742E+02  0.00000000000E+00 0. -1.
         11    1    3    3    0    0 -0.71477328477E+01 -0.13246492807E+02 -0.12388364336E+02  0.19494389647E+02  0.51100000000E-03 0. -1.
        -11    1    3    3    0    0 -0.75090145549E+01 -0.22490980029E+02 -0.86938156889E+01  0.25254938403E+02  0.51100000000E-03 0.  1.
         12    1    3    3    0    0  0.11205702016E+01 -0.11204366193E+01  0.25919164692E+01  0.30379412071E+01  0.00000000000E+00 0. -1.
</event>
<event>
 7    1  0.4875579E-009  0.4778727E+02  0.7816164E-02  0.1312668E+00
        -11   -1    0    0    0    0  0.00000000000E+00  0.00000000000E+00  0.45593999997E+02  0.45594000000E+02  0.51100000000E-03 0.  1.
         11   -1    0    0    0    0 -0.00000000000E+00 -0.00000000000E+00 -0.45593999997E+02  0.45594000000E+02  0.51100000000E-03 0. -1.
    9900012    2    1    2    0    0 -0.30336598908E+02  0.30309676001E+02 -0.66811420463E+01  0.47787270149E+02  0.19999995917E+02 0.  0.
         12    1    1    2    0    0  0.30336598908E+02 -0.30309676001E+02  0.66811420463E+01  0.43400729851E+02  0.00000000000E+00 0. -1.
         11    1    3    3    0    0 -0.13638511896E+02  0.10631937426E+02  0.23614442451E+00  0.17294590617E+02  0.51100000000E-03 0.  1.
        -11    1    3    3    0    0 -0.11329955673E+02  0.21102165160E+02 -0.42271156772E+01  0.24321549646E+02  0.51100000000E-03 0. -1.
         12    1    3    3    0    0 -0.53681313385E+01 -0.14244265850E+01 -0.26901707936E+01  0.61711298854E+01  0.00000000000E+00 0. -1.
</event>
<event>
 7    1  0.4875579E-009  0.4778727E+02  0.7816164E-02  0.1312668E+00
        -11   -1    0    0    0    0  0.00000000000E+00  0.00000000000E+00  0.45593999997E+02  0.45594000000E+02  0.51100000000E-03 0.  1.
         11   -1    0    0    0    0 -0.00000000000E+00 -0.00000000000E+00 -0.45593999997E+02  0.45594000000E+02  0.51100000000E-03 0. -1.
    9900012    2    1    2    0    0 -0.39782966948E+02 -0.84018553549E+00  0.17327230093E+02  0.47787271047E+02  0.20000000013E+02 0.  0.
         12    1    1    2    0    0  0.39782966948E+02  0.84018553549E+00 -0.17327230093E+02  0.43400728953E+02  0.00000000000E+00 0. -1.
         11    1    3    3    0    0 -0.19977930753E+02  0.14283923188E+01  0.19306176864E+01  0.20121762018E+02  0.51100000000E-03 0. -1.
        -11    1    3    3    0    0 -0.19293774507E+01  0.35477499182E+01  0.15824490248E+01  0.43374153602E+01  0.51100000000E-03 0.  1.
        -12    1    3    3    0    0 -0.17875658744E+02 -0.58163277724E+01  0.13814163382E+02  0.23328093669E+02  0.00000000000E+00 0.  1.
</event>
<event>
 7    1  0.4875579E-009  0.4778727E+02  0.7816164E-02  0.1312668E+00
        -11   -1    0    0    0    0  0.00000000000E+00  0.00000000000E+00  0.45593999997E+02  0.45594000000E+02  0.51100000000E-03 0. -1.
         11   -1    0    0    0    0 -0.00000000000E+00 -0.00000000000E+00 -0.45593999997E+02  0.45594000000E+02  0.51100000000E-03 0.  1.
    9900012    2    1    2    0    0  0.21239584352E+02  0.35971152447E+02  0.11771983190E+02  0.47787270282E+02  0.19999996525E+02 0.  0.
         12    1    1    2    0    0 -0.21239584352E+02 -0.35971152447E+02 -0.11771983190E+02  0.43400729718E+02  0.00000000000E+00 0. -1.
         11    1    3    3    0    0  0.10528805065E+02  0.87977593101E+01 -0.91421375440E+00  0.13751076032E+02  0.51100000000E-03 0. -1.
        -11    1    3    3    0    0  0.56632035270E+01  0.46069283297E+01 -0.67165809208E+00  0.73312200674E+01  0.51100000000E-03 0.  1.
        -12    1    3    3    0    0  0.50475757598E+01  0.22566464807E+02  0.13357855036E+02  0.26704974183E+02  0.00000000000E+00 0.  1.
</event>
<event>
 7    1  0.4875579E-009  0.4778727E+02  0.7816164E-02  0.1312668E+00
        -11   -1    0    0    0    0  0.00000000000E+00  0.00000000000E+00  0.45593999997E+02  0.45594000000E+02  0.51100000000E-03 0.  1.
         11   -1    0    0    0    0 -0.00000000000E+00 -0.00000000000E+00 -0.45593999997E+02  0.45594000000E+02  0.51100000000E-03 0. -1.
    9900012    2    1    2    0    0  0.23395144964E+02 -0.48475149447E+01  0.36232474057E+02  0.47787269761E+02  0.19999994147E+02 0.  0.
         12    1    1    2    0    0 -0.23395144964E+02  0.48475149447E+01 -0.36232474057E+02  0.43400730239E+02  0.00000000000E+00 0. -1.
         11    1    3    3    0    0  0.15850595351E+02  0.58503443545E+01  0.17625087585E+02  0.24415397082E+02  0.51100000000E-03 0. -1.
        -11    1    3    3    0    0  0.61916186688E+01 -0.44095002640E+01  0.86242657249E+01  0.11495990339E+02  0.51100000000E-03 0.  1.
         12    1    3    3    0    0  0.13529309443E+01 -0.62883590352E+01  0.99831207476E+01  0.11875882340E+02  0.00000000000E+00 0. -1.
</event>
<event>
 7    1  0.4875579E-009  0.4778727E+02  0.7816164E-02  0.1312668E+00
        -11   -1    0    0    0    0  0.00000000000E+00  0.00000000000E+00  0.45593999997E+02  0.45594000000E+02  0.51100000000E-03 0.  1.
         11   -1    0    0    0    0 -0.00000000000E+00 -0.00000000000E+00 -0.45593999997E+02  0.45594000000E+02  0.51100000000E-03 0. -1.
    9900012    2    1    2    0    0 -0.40824963030E+02  0.70669396925E+01  0.12923008922E+02  0.47787269561E+02  0.19999993238E+02 0.  0.
         12    1    1    2    0    0  0.40824963030E+02 -0.70669396925E+01 -0.12923008922E+02  0.43400730439E+02  0.00000000000E+00 0. -1.
         11    1    3    3    0    0 -0.67715020876E+01 -0.23097959084E-01  0.54250977121E+01  0.86767193964E+01  0.51100000000E-03 0.  1.
        -11    1    3    3    0    0  0.18336242990E+01  0.44972750448E+00  0.31160783437E+00  0.19135131569E+01  0.51100000000E-03 0. -1.
         12    1    3    3    0    0 -0.35887085241E+02  0.66403101471E+01  0.71863033756E+01  0.37197037008E+02  0.00000000000E+00 0. -1.
</event>
<event>
 7    1  0.4875579E-009  0.4778727E+02  0.7816164E-02  0.1312668E+00
        -11   -1    0    0    0    0  0.00000000000E+00  0.00000000000E+00  0.45593999997E+02  0.45594000000E+02  0.51100000000E-03 0.  1.
         11   -1    0    0    0    0 -0.00000000000E+00 -0.00000000000E+00 -0.45593999997E+02  0.45594000000E+02  0.51100000000E-03 0. -1.
    9900012    2    1    2    0    0 -0.23119736157E+02 -0.25606892330E+02  0.26332267181E+02  0.47787269250E+02  0.19999991818E+02 0.  0.
         12    1    1    2    0    0  0.23119736157E+02  0.25606892330E+02 -0.26332267181E+02  0.43400730750E+02  0.00000000000E+00 0. -1.
         11    1    3    3    0    0 -0.14436668072E+02 -0.10002404503E+02  0.47361684580E+01  0.18190568237E+02  0.51100000000E-03 0. -1.
        -11    1    3    3    0    0 -0.56682502202E+01 -0.48271753057E+01  0.32874123626E+01  0.81386585070E+01  0.51100000000E-03 0.  1.
        -12    1    3    3    0    0 -0.30148178643E+01 -0.10777312522E+02  0.18308686360E+02  0.21458042506E+02  0.00000000000E+00 0.  1.
</event>
<event>
 7    1  0.4875579E-009  0.4778727E+02  0.7816164E-02  0.1312668E+00
        -11   -1    0    0    0    0  0.00000000000E+00  0.00000000000E+00  0.45593999997E+02  0.45594000000E+02  0.51100000000E-03 0. -1.
         11   -1    0    0    0    0 -0.00000000000E+00 -0.00000000000E+00 -0.45593999997E+02  0.45594000000E+02  0.51100000000E-03 0.  1.
    9900012    2    1    2    0    0 -0.36248276817E+02  0.23261586670E+02 -0.53464287600E+01  0.47787270893E+02  0.19999999308E+02 0.  0.
         12    1    1    2    0    0  0.36248276817E+02 -0.23261586670E+02  0.53464287600E+01  0.43400729107E+02  0.00000000000E+00 0. -1.
         11    1    3    3    0    0 -0.15595490977E+01 -0.75630034353E+00  0.48652584602E+00  0.18002475545E+01  0.51100000000E-03 0. -1.
        -11    1    3    3    0    0 -0.16453409239E+02  0.16781041727E+02 -0.10624659231E+02  0.25791499007E+02  0.51100000000E-03 0.  1.
        -12    1    3    3    0    0 -0.18235318480E+02  0.72368452864E+01  0.47917046249E+01  0.20195524331E+02  0.00000000000E+00 0.  1.
</event>
<event>
 7    1  0.4875579E-009  0.4778727E+02  0.7816164E-02  0.1312668E+00
        -11   -1    0    0    0    0  0.00000000000E+00  0.00000000000E+00  0.45593999997E+02  0.45594000000E+02  0.51100000000E-03 0.  1.
         11   -1    0    0    0    0 -0.00000000000E+00 -0.00000000000E+00 -0.45593999997E+02  0.45594000000E+02  0.51100000000E-03 0. -1.
    9900012    2    1    2    0    0  0.26235586615E+02  0.95652958977E+01  0.33223824562E+02  0.47787269486E+02  0.19999992894E+02 0.  0.
         12    1    1    2    0    0 -0.26235586615E+02 -0.95652958977E+01 -0.33223824562E+02  0.43400730514E+02  0.00000000000E+00 0. -1.
         11    1    3    3    0    0  0.16821830771E+02  0.89534149835E+01  0.19414540415E+02  0.27204080763E+02  0.51100000000E-03 0. -1.
        -11    1    3    3    0    0  0.80043777834E+01  0.49826360249E+01  0.12771950537E+02  0.15875120353E+02  0.51100000000E-03 0.  1.
         12    1    3    3    0    0  0.14093780614E+01 -0.43707551107E+01  0.10373336093E+01  0.47080683698E+01  0.00000000000E+00 0. -1.
</event>
<event>
 7    1  0.4875579E-009  0.4778727E+02  0.7816164E-02  0.1312668E+00
        -11   -1    0    0    0    0  0.00000000000E+00  0.00000000000E+00  0.45593999997E+02  0.45594000000E+02  0.51100000000E-03 0.  1.
         11   -1    0    0    0    0 -0.00000000000E+00 -0.00000000000E+00 -0.45593999997E+02  0.45594000000E+02  0.51100000000E-03 0. -1.
    9900012    2    1    2    0    0  0.22656957772E+02  0.23396768963E+02  0.28685825662E+02  0.47787272733E+02  0.20000007699E+02 0.  0.
         12    1    1    2    0    0 -0.22656957772E+02 -0.23396768963E+02 -0.28685825662E+02  0.43400727267E+02  0.00000000000E+00 0. -1.
         11    1    3    3    0    0  0.90617241832E+01  0.11707965624E+02  0.44740481126E+01  0.15466363859E+02  0.51100000000E-03 0. -1.
        -11    1    3    3    0    0  0.17068139177E+01  0.78015394669E+01  0.50852071918E+01  0.94676588578E+01  0.51100000000E-03 0.  1.
         12    1    3    3    0    0  0.11888419671E+02  0.38872638718E+01  0.19126570358E+02  0.22853250017E+02  0.00000000000E+00 0. -1.
</event>
<event>
 7    1  0.4875579E-009  0.4778727E+02  0.7816164E-02  0.1312668E+00
        -11   -1    0    0    0    0  0.00000000000E+00  0.00000000000E+00  0.45593999997E+02  0.45594000000E+02  0.51100000000E-03 0.  1.
         11   -1    0    0    0    0 -0.00000000000E+00 -0.00000000000E+00 -0.45593999997E+02  0.45594000000E+02  0.51100000000E-03 0. -1.
    9900012    2    1    2    0    0 -0.13898498240E+02 -0.22418233498E+01  0.41053976776E+02  0.47787273804E+02  0.20000012582E+02 0.  0.
         12    1    1    2    0    0  0.13898498240E+02  0.22418233498E+01 -0.41053976776E+02  0.43400726196E+02  0.00000000000E+00 0. -1.
         11    1    3    3    0    0  0.57783977110E+00 -0.20061038167E+01  0.18821433530E+02  0.18936861190E+02  0.51100000000E-03 0. -1.
        -11    1    3    3    0    0  0.10353641227E+01  0.21717257768E+01  0.49464078940E+01  0.55004838906E+01  0.51100000000E-03 0.  1.
         12    1    3    3    0    0 -0.15511702134E+02 -0.24074453100E+01  0.17286135351E+02  0.23349928723E+02  0.00000000000E+00 0. -1.
</event>
<event>
 7    1  0.4875579E-009  0.4778727E+02  0.7816164E-02  0.1312668E+00
        -11   -1    0    0    0    0  0.00000000000E+00  0.00000000000E+00  0.45593999997E+02  0.45594000000E+02  0.51100000000E-03 0. -1.
         11   -1    0    0    0    0 -0.00000000000E+00 -0.00000000000E+00 -0.45593999997E+02  0.45594000000E+02  0.51100000000E-03 0.  1.
    9900012    2    1    2    0    0  0.11385336719E+01  0.19918656840E+02 -0.38543148676E+02  0.47787268910E+02  0.19999990270E+02 0.  0.
         12    1    1    2    0    0 -0.11385336719E+01 -0.19918656840E+02  0.38543148676E+02  0.43400731090E+02  0.00000000000E+00 0. -1.
         11    1    3    3    0    0 -0.40060385799E+01  0.72647728239E+01 -0.13683384893E+02  0.16001884004E+02  0.51100000000E-03 0. -1.
        -11    1    3    3    0    0  0.51730039605E+00  0.11535015730E+02 -0.24410462981E+02  0.27003608847E+02  0.51100000000E-03 0.  1.
         12    1    3    3    0    0  0.46272718558E+01  0.11188682863E+01 -0.44930080270E+00  0.47817760592E+01  0.00000000000E+00 0. -1.
</event>
<event>
 7    1  0.4875579E-009  0.4778727E+02  0.7816164E-02  0.1312668E+00
        -11   -1    0    0    0    0  0.00000000000E+00  0.00000000000E+00  0.45593999997E+02  0.45594000000E+02  0.51100000000E-03 0.  1.
         11   -1    0    0    0    0 -0.00000000000E+00 -0.00000000000E+00 -0.45593999997E+02  0.45594000000E+02  0.51100000000E-03 0. -1.
    9900012    2    1    2    0    0  0.26461832826E+02  0.25334170948E+02  0.23271751408E+02  0.47787271576E+02  0.20000002422E+02 0.  0.
         12    1    1    2    0    0 -0.26461832826E+02 -0.25334170948E+02 -0.23271751408E+02  0.43400728424E+02  0.00000000000E+00 0. -1.
         11    1    3    3    0    0  0.76092659112E+01  0.91815794658E+00  0.74719789616E+01  0.10703943740E+02  0.51100000000E-03 0. -1.
        -11    1    3    3    0    0  0.14233832546E+02  0.79915990546E+01  0.58977204450E+01  0.17356576595E+02  0.51100000000E-03 0.  1.
         12    1    3    3    0    0  0.46187343692E+01  0.16424413947E+02  0.99020520014E+01  0.19726751241E+02  0.00000000000E+00 0. -1.
</event>
<event>
 7    1  0.4875579E-009  0.4778727E+02  0.7816164E-02  0.1312668E+00
        -11   -1    0    0    0    0  0.00000000000E+00  0.00000000000E+00  0.45593999997E+02  0.45594000000E+02  0.51100000000E-03 0.  1.
         11   -1    0    0    0    0 -0.00000000000E+00 -0.00000000000E+00 -0.45593999997E+02  0.45594000000E+02  0.51100000000E-03 0. -1.
    9900012    2    1    2    0    0 -0.37818388986E+02 -0.18014760007E+02  0.11351695110E+02  0.47787272985E+02  0.20000008847E+02 0.  0.
         12    1    1    2    0    0  0.37818388986E+02  0.18014760007E+02 -0.11351695110E+02  0.43400727015E+02  0.00000000000E+00 0. -1.
         11    1    3    3    0    0 -0.56719561477E+01 -0.58227119284E+01  0.76168684304E+01  0.11139647467E+02  0.51100000000E-03 0.  1.
        -11    1    3    3    0    0 -0.14150120517E+02 -0.11842634231E+02  0.15817643388E+01  0.18519607848E+02  0.51100000000E-03 0. -1.
        -12    1    3    3    0    0 -0.17996312321E+02 -0.34941384791E+00  0.21530623412E+01  0.18128017669E+02  0.00000000000E+00 0.  1.
</event>
<event>
 7    1  0.4875579E-009  0.4778727E+02  0.7816164E-02  0.1312668E+00
        -11   -1    0    0    0    0  0.00000000000E+00  0.00000000000E+00  0.45593999997E+02  0.45594000000E+02  0.51100000000E-03 0.  1.
         11   -1    0    0    0    0 -0.00000000000E+00 -0.00000000000E+00 -0.45593999997E+02  0.45594000000E+02  0.51100000000E-03 0. -1.
    9900012    2    1    2    0    0  0.17215161549E+02 -0.14586582325E+02  0.37074159217E+02  0.47787268983E+02  0.19999990603E+02 0.  0.
         12    1    1    2    0    0 -0.17215161549E+02  0.14586582325E+02 -0.37074159217E+02  0.43400731017E+02  0.00000000000E+00 0. -1.
         11    1    3    3    0    0  0.50280885655E+01 -0.56436072170E+00  0.14402946188E+02  0.15265812681E+02  0.51100000000E-03 0. -1.
        -11    1    3    3    0    0  0.90861054208E+01 -0.70224378179E+01  0.37019466291E+01  0.12065502631E+02  0.51100000000E-03 0.  1.
         12    1    3    3    0    0  0.31009675628E+01 -0.69997837857E+01  0.18969266400E+02  0.20455953672E+02  0.00000000000E+00 0. -1.
</event>
<event>
 7    1  0.4875579E-009  0.4778727E+02  0.7816164E-02  0.1312668E+00
        -11   -1    0    0    0    0  0.00000000000E+00  0.00000000000E+00  0.45593999997E+02  0.45594000000E+02  0.51100000000E-03 0.  1.
         11   -1    0    0    0    0 -0.00000000000E+00 -0.00000000000E+00 -0.45593999997E+02  0.45594000000E+02  0.51100000000E-03 0. -1.
    9900012    2    1    2    0    0 -0.11132526433E+02  0.40630342228E+02  0.10433854661E+02  0.47787272155E+02  0.20000005064E+02 0.  0.
         12    1    1    2    0    0  0.11132526433E+02 -0.40630342228E+02 -0.10433854661E+02  0.43400727845E+02  0.00000000000E+00 0. -1.
         11    1    3    3    0    0 -0.94508556872E+00 -0.82502445673E-01  0.11873917590E+01  0.15198331606E+01  0.51100000000E-03 0. -1.
        -11    1    3    3    0    0  0.14537699425E+01  0.24470985331E+02  0.67396271595E+00  0.24523392835E+02  0.51100000000E-03 0.  1.
        -12    1    3    3    0    0 -0.11641210807E+02  0.16241859343E+02  0.85725001858E+01  0.21744046160E+02  0.00000000000E+00 0.  1.
</event>
<event>
 7    1  0.4875579E-009  0.4778727E+02  0.7816164E-02  0.1312668E+00
        -11   -1    0    0    0    0  0.00000000000E+00  0.00000000000E+00  0.45593999997E+02  0.45594000000E+02  0.51100000000E-03 0. -1.
         11   -1    0    0    0    0 -0.00000000000E+00 -0.00000000000E+00 -0.45593999997E+02  0.45594000000E+02  0.51100000000E-03 0.  1.
    9900012    2    1    2    0    0 -0.36567125020E+02 -0.22746633460E+02  0.53906649841E+01  0.47787271493E+02  0.20000002043E+02 0.  0.
         12    1    1    2    0    0  0.36567125020E+02  0.22746633460E+02 -0.53906649841E+01  0.43400728507E+02  0.00000000000E+00 0. -1.
         11    1    3    3    0    0 -0.15418822454E+01 -0.10492074514E+01  0.33030784341E+01  0.37932261385E+01  0.51100000000E-03 0. -1.
        -11    1    3    3    0    0 -0.13355274837E+02 -0.64088616972E+01  0.79813206973E+01  0.16826715501E+02  0.51100000000E-03 0.  1.
        -12    1    3    3    0    0 -0.21669967938E+02 -0.15288564311E+02 -0.58937341473E+01  0.27167329853E+02  0.00000000000E+00 0.  1.
</event>
<event>
 7    1  0.4875579E-009  0.4778727E+02  0.7816164E-02  0.1312668E+00
        -11   -1    0    0    0    0  0.00000000000E+00  0.00000000000E+00  0.45593999997E+02  0.45594000000E+02  0.51100000000E-03 0. -1.
         11   -1    0    0    0    0 -0.00000000000E+00 -0.00000000000E+00 -0.45593999997E+02  0.45594000000E+02  0.51100000000E-03 0.  1.
    9900012    2    1    2    0    0 -0.20963989492E+02 -0.25278997467E+02 -0.28374400483E+02  0.47787272228E+02  0.20000005398E+02 0.  0.
         12    1    1    2    0    0  0.20963989492E+02  0.25278997467E+02  0.28374400483E+02  0.43400727772E+02  0.00000000000E+00 0. -1.
         11    1    3    3    0    0  0.13211749943E+01 -0.33647137411E+01 -0.85782288180E+01  0.93087492093E+01  0.51100000000E-03 0. -1.
        -11    1    3    3    0    0 -0.85220788672E+01 -0.23516028617E+01 -0.74500255829E+01  0.11561087565E+02  0.51100000000E-03 0.  1.
         12    1    3    3    0    0 -0.13763085619E+02 -0.19562680864E+02 -0.12346146082E+02  0.26917435454E+02  0.00000000000E+00 0. -1.
</event>
<event>
 7    1  0.4875579E-009  0.4778727E+02  0.7816164E-02  0.1312668E+00
        -11   -1    0    0    0    0  0.00000000000E+00  0.00000000000E+00  0.45593999997E+02  0.45594000000E+02  0.51100000000E-03 0.  1.
         11   -1    0    0    0    0 -0.00000000000E+00 -0.00000000000E+00 -0.45593999997E+02  0.45594000000E+02  0.51100000000E-03 0. -1.
    9900012    2    1    2    0    0 -0.39764362428E+02 -0.36923555455E+01  0.16993680540E+02  0.47787272045E+02  0.20000004560E+02 0.  0.
         12    1    1    2    0    0  0.39764362428E+02  0.36923555455E+01 -0.16993680540E+02  0.43400727955E+02  0.00000000000E+00 0. -1.
         11    1    3    3    0    0 -0.94722406569E+00  0.31001400929E+01 -0.64792058732E+00  0.33057379471E+01  0.51100000000E-03 0. -1.
        -11    1    3    3    0    0 -0.13346791863E+02 -0.52539296085E+01  0.18223342835E+01  0.14458960262E+02  0.51100000000E-03 0.  1.
        -12    1    3    3    0    0 -0.25470346499E+02 -0.15385660298E+01  0.15819266844E+02  0.30022573835E+02  0.00000000000E+00 0.  1.
</event>
<event>
 7    1  0.4875579E-009  0.4778727E+02  0.7816164E-02  0.1312668E+00
        -11   -1    0    0    0    0  0.00000000000E+00  0.00000000000E+00  0.45593999997E+02  0.45594000000E+02  0.51100000000E-03 0.  1.
         11   -1    0    0    0    0 -0.00000000000E+00 -0.00000000000E+00 -0.45593999997E+02  0.45594000000E+02  0.51100000000E-03 0. -1.
    9900012    2    1    2    0    0  0.26385927633E+02 -0.20943569641E+02  0.27363717323E+02  0.47787270604E+02  0.19999997992E+02 0.  0.
         12    1    1    2    0    0 -0.26385927633E+02  0.20943569641E+02 -0.27363717323E+02  0.43400729396E+02  0.00000000000E+00 0. -1.
         11    1    3    3    0    0  0.11425490420E+02 -0.10428623117E+02  0.19096425924E+01  0.15586684912E+02  0.51100000000E-03 0. -1.
        -11    1    3    3    0    0  0.15210425069E+01  0.27378522958E+00  0.10656896492E+00  0.15491565012E+01  0.51100000000E-03 0.  1.
        -12    1    3    3    0    0  0.13439394706E+02 -0.10788731754E+02  0.25347505765E+02  0.30651429191E+02  0.00000000000E+00 0.  1.
</event>
<event>
 7    1  0.4875579E-009  0.4778727E+02  0.7816164E-02  0.1312668E+00
        -11   -1    0    0    0    0  0.00000000000E+00  0.00000000000E+00  0.45593999997E+02  0.45594000000E+02  0.51100000000E-03 0. -1.
         11   -1    0    0    0    0 -0.00000000000E+00 -0.00000000000E+00 -0.45593999997E+02  0.45594000000E+02  0.51100000000E-03 0.  1.
    9900012    2    1    2    0    0  0.37956866861E+02 -0.20634076590E+02 -0.41393911793E+01  0.47787269384E+02  0.19999992430E+02 0.  0.
         12    1    1    2    0    0 -0.37956866861E+02  0.20634076590E+02  0.41393911793E+01  0.43400730616E+02  0.00000000000E+00 0. -1.
         11    1    3    3    0    0  0.12624247415E+02 -0.10012011092E+02  0.22539174773E+01  0.16269361793E+02  0.51100000000E-03 0.  1.
        -11    1    3    3    0    0  0.63470620594E+01 -0.89740259797E+01  0.10871522854E+01  0.11045371855E+02  0.51100000000E-03 0. -1.
         12    1    3    3    0    0  0.18985557387E+02 -0.16480395189E+01 -0.74804609420E+01  0.20472535736E+02  0.00000000000E+00 0. -1.
</event>
<event>
 7    1  0.4875579E-009  0.4778727E+02  0.7816164E-02  0.1312668E+00
        -11   -1    0    0    0    0  0.00000000000E+00  0.00000000000E+00  0.45593999997E+02  0.45594000000E+02  0.51100000000E-03 0.  1.
         11   -1    0    0    0    0 -0.00000000000E+00 -0.00000000000E+00 -0.45593999997E+02  0.45594000000E+02  0.51100000000E-03 0. -1.
    9900012    2    1    2    0    0  0.38153341514E+02 -0.82401166251E+01  0.18974884455E+02  0.47787271541E+02  0.20000002266E+02 0.  0.
         12    1    1    2    0    0 -0.38153341514E+02  0.82401166251E+01 -0.18974884455E+02  0.43400728459E+02  0.00000000000E+00 0. -1.
         11    1    3    3    0    0  0.50110014572E+01 -0.14084924640E+01 -0.34633780585E+01  0.62521175983E+01  0.51100000000E-03 0. -1.
        -11    1    3    3    0    0  0.21215919092E+02 -0.95306017091E-01  0.14590607368E+02  0.25748983083E+02  0.51100000000E-03 0.  1.
        -12    1    3    3    0    0  0.11926420964E+02 -0.67363181439E+01  0.78476551453E+01  0.15786170860E+02  0.00000000000E+00 0.  1.
</event>
<event>
 7    1  0.4875579E-009  0.4778727E+02  0.7816164E-02  0.1312668E+00
        -11   -1    0    0    0    0  0.00000000000E+00  0.00000000000E+00  0.45593999997E+02  0.45594000000E+02  0.51100000000E-03 0.  1.
         11   -1    0    0    0    0 -0.00000000000E+00 -0.00000000000E+00 -0.45593999997E+02  0.45594000000E+02  0.51100000000E-03 0. -1.
    9900012    2    1    2    0    0  0.84569922174E+01  0.41407553270E+01  0.42366931297E+02  0.47787269135E+02  0.19999991295E+02 0.  0.
         12    1    1    2    0    0 -0.84569922174E+01 -0.41407553270E+01 -0.42366931297E+02  0.43400730865E+02  0.00000000000E+00 0. -1.
         11    1    3    3    0    0 -0.57931828891E+00  0.64473499622E+00 -0.30032121567E+00  0.91732545420E+00  0.51100000000E-03 0. -1.
        -11    1    3    3    0    0 -0.32743348376E+01  0.42944650504E+01  0.23221041320E+02  0.23840731091E+02  0.51100000000E-03 0.  1.
         12    1    3    3    0    0  0.12310645344E+02 -0.79844471960E+00  0.19446211193E+02  0.23029212590E+02  0.00000000000E+00 0. -1.
</event>
<event>
 7    1  0.4875579E-009  0.4778727E+02  0.7816164E-02  0.1312668E+00
        -11   -1    0    0    0    0  0.00000000000E+00  0.00000000000E+00  0.45593999997E+02  0.45594000000E+02  0.51100000000E-03 0.  1.
         11   -1    0    0    0    0 -0.00000000000E+00 -0.00000000000E+00 -0.45593999997E+02  0.45594000000E+02  0.51100000000E-03 0. -1.
    9900012    2    1    2    0    0 -0.34972941937E+02 -0.22689408802E+02 -0.12070922696E+02  0.47787272883E+02  0.20000008382E+02 0.  0.
         12    1    1    2    0    0  0.34972941937E+02  0.22689408802E+02  0.12070922696E+02  0.43400727117E+02  0.00000000000E+00 0. -1.
         11    1    3    3    0    0 -0.13140573207E+02 -0.42932434079E+01 -0.30179309917E+01  0.14149717697E+02  0.51100000000E-03 0. -1.
        -11    1    3    3    0    0 -0.10369953470E+02 -0.94202182997E+01 -0.12388550031E+02  0.18701674255E+02  0.51100000000E-03 0.  1.
         12    1    3    3    0    0 -0.11462415261E+02 -0.89759470946E+01  0.33355583270E+01  0.14935880932E+02  0.00000000000E+00 0. -1.
</event>
<event>
 7    1  0.4875579E-009  0.4778727E+02  0.7816164E-02  0.1312668E+00
        -11   -1    0    0    0    0  0.00000000000E+00  0.00000000000E+00  0.45593999997E+02  0.45594000000E+02  0.51100000000E-03 0. -1.
         11   -1    0    0    0    0 -0.00000000000E+00 -0.00000000000E+00 -0.45593999997E+02  0.45594000000E+02  0.51100000000E-03 0.  1.
    9900012    2    1    2    0    0 -0.19260883099E+02 -0.38722405671E+02 -0.36355426812E+01  0.47787268563E+02  0.19999988685E+02 0.  0.
         12    1    1    2    0    0  0.19260883099E+02  0.38722405671E+02  0.36355426812E+01  0.43400731437E+02  0.00000000000E+00 0. -1.
         11    1    3    3    0    0 -0.39912279501E+01 -0.10073887307E+02  0.40486307242E+01  0.11567390243E+02  0.51100000000E-03 0. -1.
        -11    1    3    3    0    0 -0.45349353714E+00 -0.76002462311E+01  0.32184526095E+01  0.82660653652E+01  0.51100000000E-03 0.  1.
         12    1    3    3    0    0 -0.14816161612E+02 -0.21048272133E+02 -0.10902626015E+02  0.27953812954E+02  0.00000000000E+00 0. -1.
</event>
<event>
 7    1  0.4875579E-009  0.4778725E+02  0.7816164E-02  0.1312668E+00
        -11   -1    0    0    0    0  0.00000000000E+00  0.00000000000E+00  0.45593999997E+02  0.45594000000E+02  0.51100000000E-03 0.  1.
         11   -1    0    0    0    0 -0.00000000000E+00 -0.00000000000E+00 -0.45593999997E+02  0.45594000000E+02  0.51100000000E-03 0. -1.
    9900012    2    1    2    0    0  0.13329264265E+02  0.24273007329E+02  0.33418208037E+02  0.47787253473E+02  0.19999919887E+02 0.  0.
         12    1    1    2    0    0 -0.13329264265E+02 -0.24273007329E+02 -0.33418208037E+02  0.43400746527E+02  0.00000000000E+00 0. -1.
         11    1    3    3    0    0  0.43119057161E+01  0.66539015791E+01  0.23411212071E+02  0.24717438945E+02  0.51100000000E-03 0.  1.
        -11    1    3    3    0    0  0.20177260923E+01  0.82306258763E+00 -0.23067144342E+00  0.21913147156E+01  0.51100000000E-03 0. -1.
        -12    1    3    3    0    0  0.69996324561E+01  0.16796043162E+02  0.10237667410E+02  0.20878499813E+02  0.00000000000E+00 0.  1.
</event>
<event>
 7    1  0.4875579E-009  0.4778726E+02  0.7816164E-02  0.1312668E+00
        -11   -1    0    0    0    0  0.00000000000E+00  0.00000000000E+00  0.45593999997E+02  0.45594000000E+02  0.51100000000E-03 0.  1.
         11   -1    0    0    0    0 -0.00000000000E+00 -0.00000000000E+00 -0.45593999997E+02  0.45594000000E+02  0.51100000000E-03 0. -1.
    9900012    2    1    2    0    0  0.36477114134E+02  0.82592262972E+01  0.22018847119E+02  0.47787259188E+02  0.19999945943E+02 0.  0.
         12    1    1    2    0    0 -0.36477114134E+02 -0.82592262972E+01 -0.22018847119E+02  0.43400740812E+02  0.00000000000E+00 0. -1.
         11    1    3    3    0    0  0.18959096793E+02 -0.27560711863E+01  0.10929103995E+02  0.22056486438E+02  0.51100000000E-03 0. -1.
        -11    1    3    3    0    0  0.11581048735E+02  0.10637049937E+01  0.54688052493E+01  0.12851458642E+02  0.51100000000E-03 0.  1.
        -12    1    3    3    0    0  0.59369686063E+01  0.99515924898E+01  0.56209378744E+01  0.12879314108E+02  0.00000000000E+00 0.  1.
</event>
<event>
 7    1  0.4875579E-009  0.4778728E+02  0.7816164E-02  0.1312668E+00
        -11   -1    0    0    0    0  0.00000000000E+00  0.00000000000E+00  0.45593999997E+02  0.45594000000E+02  0.51100000000E-03 0.  1.
         11   -1    0    0    0    0 -0.00000000000E+00 -0.00000000000E+00 -0.45593999997E+02  0.45594000000E+02  0.51100000000E-03 0. -1.
    9900012    2    1    2    0    0  0.27382304226E+02 -0.13303118127E+02  0.30933140431E+02  0.47787277499E+02  0.20000029430E+02 0.  0.
         12    1    1    2    0    0 -0.27382304226E+02  0.13303118127E+02 -0.30933140431E+02  0.43400722501E+02  0.00000000000E+00 0. -1.
         11    1    3    3    0    0  0.19941787391E+02 -0.48095608973E+01  0.17760961334E+02  0.27134083882E+02  0.51100000000E-03 0. -1.
        -11    1    3    3    0    0  0.89863394876E+01 -0.47626433205E+01  0.13137997352E+02  0.16614573225E+02  0.51100000000E-03 0.  1.
         12    1    3    3    0    0 -0.15458226525E+01 -0.37309139095E+01  0.34181745686E-01  0.40386203913E+01  0.00000000000E+00 0. -1.
</event>
<event>
 7    1  0.4875579E-009  0.4778727E+02  0.7816164E-02  0.1312668E+00
        -11   -1    0    0    0    0  0.00000000000E+00  0.00000000000E+00  0.45593999997E+02  0.45594000000E+02  0.51100000000E-03 0.  1.
         11   -1    0    0    0    0 -0.00000000000E+00 -0.00000000000E+00 -0.45593999997E+02  0.45594000000E+02  0.51100000000E-03 0. -1.
    9900012    2    1    2    0    0 -0.39502607982E+01  0.17725692166E+01  0.43184216275E+02  0.47787273079E+02  0.20000009277E+02 0.  0.
         12    1    1    2    0    0  0.39502607982E+01 -0.17725692166E+01 -0.43184216275E+02  0.43400726921E+02  0.00000000000E+00 0. -1.
         11    1    3    3    0    0 -0.28151737202E+01 -0.13494440045E+01  0.89616483357E+01  0.94898547591E+01  0.51100000000E-03 0. -1.
        -11    1    3    3    0    0  0.49182896689E+01  0.34470248794E+01  0.30708780275E+02  0.31290585486E+02  0.51100000000E-03 0.  1.
         12    1    3    3    0    0 -0.60533767470E+01 -0.32501165829E+00  0.35137876636E+01  0.70068328340E+01  0.00000000000E+00 0. -1.
</event>
<event>
 7    1  0.4875579E-009  0.4778727E+02  0.7816164E-02  0.1312668E+00
        -11   -1    0    0    0    0  0.00000000000E+00  0.00000000000E+00  0.45593999997E+02  0.45594000000E+02  0.51100000000E-03 0. -1.
         11   -1    0    0    0    0 -0.00000000000E+00 -0.00000000000E+00 -0.45593999997E+02  0.45594000000E+02  0.51100000000E-03 0.  1.
    9900012    2    1    2    0    0  0.18664478162E+02  0.48013964114E+01 -0.38887107596E+02  0.47787270861E+02  0.19999999165E+02 0.  0.
         12    1    1    2    0    0 -0.18664478162E+02 -0.48013964114E+01  0.38887107596E+02  0.43400729139E+02  0.00000000000E+00 0. -1.
         11    1    3    3    0    0  0.43296194593E+01  0.16100261859E+01 -0.14661005870E+02  0.15371495775E+02  0.51100000000E-03 0. -1.
        -11    1    3    3    0    0  0.88859170303E+01  0.95547248693E+01 -0.16339150327E+02  0.20909809240E+02  0.51100000000E-03 0.  1.
         12    1    3    3    0    0  0.54489416722E+01 -0.63633546438E+01 -0.78869514000E+01  0.11505965846E+02  0.00000000000E+00 0. -1.
</event>
<event>
 7    1  0.4875579E-009  0.4778727E+02  0.7816164E-02  0.1312668E+00
        -11   -1    0    0    0    0  0.00000000000E+00  0.00000000000E+00  0.45593999997E+02  0.45594000000E+02  0.51100000000E-03 0.  1.
         11   -1    0    0    0    0 -0.00000000000E+00 -0.00000000000E+00 -0.45593999997E+02  0.45594000000E+02  0.51100000000E-03 0. -1.
    9900012    2    1    2    0    0 -0.30514571702E+02 -0.28041207950E+02  0.12890888966E+02  0.47787269040E+02  0.19999990863E+02 0.  0.
         12    1    1    2    0    0  0.30514571702E+02  0.28041207950E+02 -0.12890888966E+02  0.43400730960E+02  0.00000000000E+00 0. -1.
         11    1    3    3    0    0 -0.17838051165E+02 -0.13739562744E+02  0.34508249668E+01  0.22778934281E+02  0.51100000000E-03 0. -1.
        -11    1    3    3    0    0  0.18410307070E+01 -0.61447185792E+01  0.36373809311E+01  0.73741101687E+01  0.51100000000E-03 0.  1.
         12    1    3    3    0    0 -0.14517551245E+02 -0.81569266270E+01  0.58026830680E+01  0.17634224591E+02  0.00000000000E+00 0. -1.
</event>
<event>
 7    1  0.4875579E-009  0.4778727E+02  0.7816164E-02  0.1312668E+00
        -11   -1    0    0    0    0  0.00000000000E+00  0.00000000000E+00  0.45593999997E+02  0.45594000000E+02  0.51100000000E-03 0.  1.
         11   -1    0    0    0    0 -0.00000000000E+00 -0.00000000000E+00 -0.45593999997E+02  0.45594000000E+02  0.51100000000E-03 0. -1.
    9900012    2    1    2    0    0 -0.57827775899E+00 -0.38162737243E+02 -0.20661430784E+02  0.47787266814E+02  0.19999980712E+02 0.  0.
         12    1    1    2    0    0  0.57827775899E+00  0.38162737243E+02  0.20661430784E+02  0.43400733186E+02  0.00000000000E+00 0. -1.
         11    1    3    3    0    0 -0.56252706104E+00 -0.24749498919E+02 -0.18643354969E+02  0.30990786021E+02  0.51100000000E-03 0. -1.
        -11    1    3    3    0    0 -0.27894508560E+01 -0.73226343768E+01 -0.51813937045E+01  0.93940859734E+01  0.51100000000E-03 0.  1.
         12    1    3    3    0    0  0.27737001580E+01 -0.60906039464E+01  0.31633178888E+01  0.74023948195E+01  0.00000000000E+00 0. -1.
</event>
<event>
 7    1  0.4875579E-009  0.4778726E+02  0.7816164E-02  0.1312668E+00
        -11   -1    0    0    0    0  0.00000000000E+00  0.00000000000E+00  0.45593999997E+02  0.45594000000E+02  0.51100000000E-03 0.  1.
         11   -1    0    0    0    0 -0.00000000000E+00 -0.00000000000E+00 -0.45593999997E+02  0.45594000000E+02  0.51100000000E-03 0. -1.
    9900012    2    1    2    0    0 -0.32637137984E+01  0.32984251164E+02  0.28018053984E+02  0.47787262661E+02  0.19999961774E+02 0.  0.
         12    1    1    2    0    0  0.32637137984E+01 -0.32984251164E+02 -0.28018053984E+02  0.43400737339E+02  0.00000000000E+00 0. -1.
         11    1    3    3    0    0 -0.87697607768E+01  0.52529006000E+01  0.74957915883E+01  0.12676299168E+02  0.51100000000E-03 0.  1.
        -11    1    3    3    0    0  0.96562625721E+00  0.60501171483E+01  0.27701718004E+01  0.67238533328E+01  0.51100000000E-03 0. -1.
        -12    1    3    3    0    0  0.45404207212E+01  0.21681233415E+02  0.17752090595E+02  0.28387110160E+02  0.00000000000E+00 0.  1.
</event>
<event>
 7    1  0.4875579E-009  0.4778727E+02  0.7816164E-02  0.1312668E+00
        -11   -1    0    0    0    0  0.00000000000E+00  0.00000000000E+00  0.45593999997E+02  0.45594000000E+02  0.51100000000E-03 0. -1.
         11   -1    0    0    0    0 -0.00000000000E+00 -0.00000000000E+00 -0.45593999997E+02  0.45594000000E+02  0.51100000000E-03 0.  1.
    9900012    2    1    2    0    0 -0.16031816965E+02  0.33050870431E+02 -0.23113720867E+02  0.47787270930E+02  0.19999999480E+02 0.  0.
         12    1    1    2    0    0  0.16031816965E+02 -0.33050870431E+02  0.23113720867E+02  0.43400729070E+02  0.00000000000E+00 0. -1.
         11    1    3    3    0    0 -0.13725993766E+02  0.22237769375E+02 -0.11371141958E+02  0.28499546686E+02  0.51100000000E-03 0. -1.
        -11    1    3    3    0    0 -0.55169270511E+01  0.10597654398E+02 -0.10242043072E+02  0.15736778876E+02  0.51100000000E-03 0.  1.
         12    1    3    3    0    0  0.32111038520E+01  0.21544665811E+00 -0.15005358370E+01  0.35509453683E+01  0.00000000000E+00 0. -1.
</event>
<event>
 7    1  0.4875579E-009  0.4778727E+02  0.7816164E-02  0.1312668E+00
        -11   -1    0    0    0    0  0.00000000000E+00  0.00000000000E+00  0.45593999997E+02  0.45594000000E+02  0.51100000000E-03 0.  1.
         11   -1    0    0    0    0 -0.00000000000E+00 -0.00000000000E+00 -0.45593999997E+02  0.45594000000E+02  0.51100000000E-03 0. -1.
    9900012    2    1    2    0    0 -0.39027268336E+02 -0.18822977014E+02  0.24881822343E+01  0.47787272031E+02  0.20000004499E+02 0.  0.
         12    1    1    2    0    0  0.39027268336E+02  0.18822977014E+02 -0.24881822343E+01  0.43400727969E+02  0.00000000000E+00 0. -1.
         11    1    3    3    0    0 -0.62041859087E+01 -0.14811941660E+01 -0.62531539364E+01  0.89324013211E+01  0.51100000000E-03 0. -1.
        -11    1    3    3    0    0 -0.16720890704E+02 -0.48102324355E+01  0.50758122881E+01  0.18124303922E+02  0.51100000000E-03 0.  1.
        -12    1    3    3    0    0 -0.16102191723E+02 -0.12531550412E+02  0.36655238826E+01  0.20730566788E+02  0.00000000000E+00 0.  1.
</event>
<event>
 7    1  0.4875579E-009  0.4778727E+02  0.7816164E-02  0.1312668E+00
        -11   -1    0    0    0    0  0.00000000000E+00  0.00000000000E+00  0.45593999997E+02  0.45594000000E+02  0.51100000000E-03 0.  1.
         11   -1    0    0    0    0 -0.00000000000E+00 -0.00000000000E+00 -0.45593999997E+02  0.45594000000E+02  0.51100000000E-03 0. -1.
    9900012    2    1    2    0    0 -0.46466308541E+01 -0.94872477371E+01  0.42095420032E+02  0.47787269181E+02  0.19999991505E+02 0.  0.
         12    1    1    2    0    0  0.46466308541E+01  0.94872477371E+01 -0.42095420032E+02  0.43400730819E+02  0.00000000000E+00 0. -1.
         11    1    3    3    0    0  0.50801334776E+01 -0.86843429641E+00  0.11917543057E+02  0.12984212223E+02  0.51100000000E-03 0. -1.
        -11    1    3    3    0    0 -0.17617933945E+01 -0.25230141550E+01  0.20947207521E+02  0.21172033903E+02  0.51100000000E-03 0.  1.
         12    1    3    3    0    0 -0.79649709372E+01 -0.60957992856E+01  0.92306694538E+01  0.13631023055E+02  0.00000000000E+00 0. -1.
</event>
<event>
 7    1  0.4875579E-009  0.4778727E+02  0.7816164E-02  0.1312668E+00
        -11   -1    0    0    0    0  0.00000000000E+00  0.00000000000E+00  0.45593999997E+02  0.45594000000E+02  0.51100000000E-03 0. -1.
         11   -1    0    0    0    0 -0.00000000000E+00 -0.00000000000E+00 -0.45593999997E+02  0.45594000000E+02  0.51100000000E-03 0.  1.
    9900012    2    1    2    0    0 -0.38525003022E+02  0.13796739350E+02  0.14460208429E+02  0.47787268413E+02  0.19999988001E+02 0.  0.
         12    1    1    2    0    0  0.38525003022E+02 -0.13796739350E+02 -0.14460208429E+02  0.43400731587E+02  0.00000000000E+00 0. -1.
         11    1    3    3    0    0 -0.46554924206E+01 -0.10993458883E+01  0.54130101490E+01  0.72237698050E+01  0.51100000000E-03 0. -1.
        -11    1    3    3    0    0 -0.13737519516E+02  0.10184333819E+02  0.10099870670E+02  0.19860702041E+02  0.51100000000E-03 0.  1.
        -12    1    3    3    0    0 -0.20131991086E+02  0.47117514192E+01 -0.10526723899E+01  0.20702796566E+02  0.00000000000E+00 0.  1.
</event>
<event>
 7    1  0.4875579E-009  0.4778727E+02  0.7816164E-02  0.1312668E+00
        -11   -1    0    0    0    0  0.00000000000E+00  0.00000000000E+00  0.45593999997E+02  0.45594000000E+02  0.51100000000E-03 0.  1.
         11   -1    0    0    0    0 -0.00000000000E+00 -0.00000000000E+00 -0.45593999997E+02  0.45594000000E+02  0.51100000000E-03 0. -1.
    9900012    2    1    2    0    0  0.30729296478E+02 -0.19292642069E+02  0.23814434828E+02  0.47787274128E+02  0.20000014061E+02 0.  0.
         12    1    1    2    0    0 -0.30729296478E+02  0.19292642069E+02 -0.23814434828E+02  0.43400725872E+02  0.00000000000E+00 0. -1.
         11    1    3    3    0    0  0.24276851644E+02 -0.10842667485E+02  0.71688293764E+01  0.27537630233E+02  0.51100000000E-03 0. -1.
        -11    1    3    3    0    0  0.41147886132E+01 -0.19091356155E+01  0.56770730674E+01  0.72667353745E+01  0.51100000000E-03 0.  1.
         12    1    3    3    0    0  0.23376562205E+01 -0.65408389685E+01  0.10968532384E+02  0.12982908521E+02  0.00000000000E+00 0. -1.
</event>
<event>
 7    1  0.4875579E-009  0.4778727E+02  0.7816164E-02  0.1312668E+00
        -11   -1    0    0    0    0  0.00000000000E+00  0.00000000000E+00  0.45593999997E+02  0.45594000000E+02  0.51100000000E-03 0.  1.
         11   -1    0    0    0    0 -0.00000000000E+00 -0.00000000000E+00 -0.45593999997E+02  0.45594000000E+02  0.51100000000E-03 0. -1.
    9900012    2    1    2    0    0 -0.43005659441E+02  0.53146456862E+01  0.24271113150E+01  0.47787273370E+02  0.20000010602E+02 0.  0.
         12    1    1    2    0    0  0.43005659441E+02 -0.53146456862E+01 -0.24271113150E+01  0.43400726630E+02  0.00000000000E+00 0. -1.
         11    1    3    3    0    0 -0.21650296608E+01 -0.22640786437E+01  0.14768701417E+01  0.34633150612E+01  0.51100000000E-03 0. -1.
        -11    1    3    3    0    0 -0.12198178823E+02  0.96978861114E+01 -0.10536512384E+00  0.15583826991E+02  0.51100000000E-03 0.  1.
        -12    1    3    3    0    0 -0.28642450957E+02 -0.21191617815E+01  0.10556062971E+01  0.28740131318E+02  0.00000000000E+00 0.  1.
</event>
<event>
 7    1  0.4875579E-009  0.4778728E+02  0.7816164E-02  0.1312668E+00
        -11   -1    0    0    0    0  0.00000000000E+00  0.00000000000E+00  0.45593999997E+02  0.45594000000E+02  0.51100000000E-03 0.  1.
         11   -1    0    0    0    0 -0.00000000000E+00 -0.00000000000E+00 -0.45593999997E+02  0.45594000000E+02  0.51100000000E-03 0. -1.
    9900012    2    1    2    0    0  0.23300167988E+02  0.33773893306E+02  0.14143868458E+02  0.47787277515E+02  0.20000029501E+02 0.  0.
         12    1    1    2    0    0 -0.23300167988E+02 -0.33773893306E+02 -0.14143868458E+02  0.43400722485E+02  0.00000000000E+00 0. -1.
         11    1    3    3    0    0  0.72344699452E+01  0.13382324179E+02  0.64894961819E+00  0.15226466816E+02  0.51100000000E-03 0. -1.
        -11    1    3    3    0    0  0.13294506811E+02  0.11981731745E+02  0.19379948416E+01  0.18001711897E+02  0.51100000000E-03 0.  1.
        -12    1    3    3    0    0  0.27711912312E+01  0.84098373817E+01  0.11556923998E+02  0.14559098802E+02  0.00000000000E+00 0.  1.
</event>
<event>
 7    1  0.4875579E-009  0.4778728E+02  0.7816164E-02  0.1312668E+00
        -11   -1    0    0    0    0  0.00000000000E+00  0.00000000000E+00  0.45593999997E+02  0.45594000000E+02  0.51100000000E-03 0.  1.
         11   -1    0    0    0    0 -0.00000000000E+00 -0.00000000000E+00 -0.45593999997E+02  0.45594000000E+02  0.51100000000E-03 0. -1.
    9900012    2    1    2    0    0 -0.20573127271E+02 -0.56749114519E+01  0.37791056296E+02  0.47787284318E+02  0.20000060520E+02 0.  0.
         12    1    1    2    0    0  0.20573127271E+02  0.56749114519E+01 -0.37791056296E+02  0.43400715682E+02  0.00000000000E+00 0. -1.
         11    1    3    3    0    0 -0.11833101645E+01 -0.43888251739E+01  0.12929659348E+02  0.13705404061E+02  0.51100000000E-03 0. -1.
        -11    1    3    3    0    0 -0.12253750256E+02 -0.55438651163E+00  0.23873923613E+02  0.26840752014E+02  0.51100000000E-03 0.  1.
        -12    1    3    3    0    0 -0.71360668512E+01 -0.73169976641E+00  0.98747333553E+00  0.72411282437E+01  0.00000000000E+00 0.  1.
</event>
<event>
 7    1  0.4875579E-009  0.4778728E+02  0.7816164E-02  0.1312668E+00
        -11   -1    0    0    0    0  0.00000000000E+00  0.00000000000E+00  0.45593999997E+02  0.45594000000E+02  0.51100000000E-03 0. -1.
         11   -1    0    0    0    0 -0.00000000000E+00 -0.00000000000E+00 -0.45593999997E+02  0.45594000000E+02  0.51100000000E-03 0.  1.
    9900012    2    1    2    0    0 -0.38432886573E+02  0.18933690854E+02 -0.69319012168E+01  0.47787277954E+02  0.20000031502E+02 0.  0.
         12    1    1    2    0    0  0.38432886573E+02 -0.18933690854E+02  0.69319012168E+01  0.43400722046E+02  0.00000000000E+00 0. -1.
         11    1    3    3    0    0 -0.10631475107E+02  0.36102763190E+01 -0.59846498110E+01  0.12723143938E+02  0.51100000000E-03 0. -1.
        -11    1    3    3    0    0 -0.15939328762E+02  0.34492087976E+00 -0.26295265018E+00  0.15945228633E+02  0.51100000000E-03 0.  1.
        -12    1    3    3    0    0 -0.11862082704E+02  0.14978493655E+02 -0.68429875568E+00  0.19118905383E+02  0.00000000000E+00 0.  1.
</event>
<event>
 7    1  0.4875579E-009  0.4778727E+02  0.7816164E-02  0.1312668E+00
        -11   -1    0    0    0    0  0.00000000000E+00  0.00000000000E+00  0.45593999997E+02  0.45594000000E+02  0.51100000000E-03 0.  1.
         11   -1    0    0    0    0 -0.00000000000E+00 -0.00000000000E+00 -0.45593999997E+02  0.45594000000E+02  0.51100000000E-03 0. -1.
    9900012    2    1    2    0    0  0.34337470899E+02 -0.12665885307E+02  0.23326736097E+02  0.47787272181E+02  0.20000005181E+02 0.  0.
         12    1    1    2    0    0 -0.34337470899E+02  0.12665885307E+02 -0.23326736097E+02  0.43400727819E+02  0.00000000000E+00 0. -1.
         11    1    3    3    0    0  0.19210025032E+02 -0.34207354985E+01  0.15623823804E+01  0.19574665567E+02  0.51100000000E-03 0. -1.
        -11    1    3    3    0    0  0.56005945230E+01 -0.18809223221E+01  0.73822539328E+01  0.94552737233E+01  0.51100000000E-03 0.  1.
         12    1    3    3    0    0  0.95268513432E+01 -0.73642274862E+01  0.14382099783E+02  0.18757332891E+02  0.00000000000E+00 0. -1.
</event>
<event>
 7    1  0.4875579E-009  0.4778727E+02  0.7816164E-02  0.1312668E+00
        -11   -1    0    0    0    0  0.00000000000E+00  0.00000000000E+00  0.45593999997E+02  0.45594000000E+02  0.51100000000E-03 0. -1.
         11   -1    0    0    0    0 -0.00000000000E+00 -0.00000000000E+00 -0.45593999997E+02  0.45594000000E+02  0.51100000000E-03 0.  1.
    9900012    2    1    2    0    0  0.11385582334E+02 -0.41478962548E+02 -0.57868492178E+01  0.47787269096E+02  0.19999991115E+02 0.  0.
         12    1    1    2    0    0 -0.11385582334E+02  0.41478962548E+02  0.57868492178E+01  0.43400730904E+02  0.00000000000E+00 0. -1.
         11    1    3    3    0    0 -0.82667043592E+00 -0.40023871092E+01  0.11835230484E+01  0.42547871449E+01  0.51100000000E-03 0. -1.
        -11    1    3    3    0    0  0.64441881092E+01 -0.19733791408E+02 -0.12299603828E+02  0.24129449606E+02  0.51100000000E-03 0.  1.
        -12    1    3    3    0    0  0.57680646610E+01 -0.17742784031E+02  0.53292315621E+01  0.19403032344E+02  0.00000000000E+00 0.  1.
</event>
<event>
 7    1  0.4875579E-009  0.4778727E+02  0.7816164E-02  0.1312668E+00
        -11   -1    0    0    0    0  0.00000000000E+00  0.00000000000E+00  0.45593999997E+02  0.45594000000E+02  0.51100000000E-03 0. -1.
         11   -1    0    0    0    0 -0.00000000000E+00 -0.00000000000E+00 -0.45593999997E+02  0.45594000000E+02  0.51100000000E-03 0.  1.
    9900012    2    1    2    0    0  0.12744960244E+02  0.41339553937E+02  0.34971735623E+01  0.47787274727E+02  0.20000016790E+02 0.  0.
         12    1    1    2    0    0 -0.12744960244E+02 -0.41339553937E+02 -0.34971735623E+01  0.43400725273E+02  0.00000000000E+00 0. -1.
         11    1    3    3    0    0 -0.12313281031E+01  0.22409960555E+01 -0.23498954081E+01  0.34727857562E+01  0.51100000000E-03 0. -1.
        -11    1    3    3    0    0  0.56102259465E+01  0.44933189523E+01  0.49011657998E+01  0.86997687806E+01  0.51100000000E-03 0.  1.
        -12    1    3    3    0    0  0.83660624003E+01  0.34605238929E+02  0.94590317067E+00  0.35614720190E+02  0.00000000000E+00 0.  1.
</event>
<event>
 7    1  0.4875579E-009  0.4778728E+02  0.7816164E-02  0.1312668E+00
        -11   -1    0    0    0    0  0.00000000000E+00  0.00000000000E+00  0.45593999997E+02  0.45594000000E+02  0.51100000000E-03 0.  1.
         11   -1    0    0    0    0 -0.00000000000E+00 -0.00000000000E+00 -0.45593999997E+02  0.45594000000E+02  0.51100000000E-03 0. -1.
    9900012    2    1    2    0    0 -0.25620480955E+02  0.32854431903E+02  0.12157304188E+02  0.47787276675E+02  0.20000025673E+02 0.  0.
         12    1    1    2    0    0  0.25620480955E+02 -0.32854431903E+02 -0.12157304188E+02  0.43400723325E+02  0.00000000000E+00 0. -1.
         11    1    3    3    0    0 -0.70325207398E+01  0.62831519605E+01 -0.31290473327E+01  0.99360597817E+01  0.51100000000E-03 0. -1.
        -11    1    3    3    0    0 -0.30958350647E+01  0.11257817316E+02  0.82522677738E+00  0.11704855615E+02  0.51100000000E-03 0.  1.
        -12    1    3    3    0    0 -0.15492125150E+02  0.15313462626E+02  0.14461124743E+02  0.26146361279E+02  0.00000000000E+00 0.  1.
</event>
<event>
 7    1  0.4875579E-009  0.4778727E+02  0.7816164E-02  0.1312668E+00
        -11   -1    0    0    0    0  0.00000000000E+00  0.00000000000E+00  0.45593999997E+02  0.45594000000E+02  0.51100000000E-03 0.  1.
         11   -1    0    0    0    0 -0.00000000000E+00 -0.00000000000E+00 -0.45593999997E+02  0.45594000000E+02  0.51100000000E-03 0. -1.
    9900012    2    1    2    0    0 -0.19145644641E+02  0.62598032619E+01  0.38443237485E+02  0.47787270122E+02  0.19999995795E+02 0.  0.
         12    1    1    2    0    0  0.19145644641E+02 -0.62598032619E+01 -0.38443237485E+02  0.43400729878E+02  0.00000000000E+00 0. -1.
         11    1    3    3    0    0 -0.61482800957E+01  0.61066735980E+01  0.76800298209E+01  0.11579104839E+02  0.51100000000E-03 0. -1.
        -11    1    3    3    0    0 -0.67609336727E-01  0.30378543500E+01  0.16356750821E+02  0.16636599044E+02  0.51100000000E-03 0.  1.
        -12    1    3    3    0    0 -0.12929755209E+02 -0.28847246861E+01  0.14406456843E+02  0.19571566239E+02  0.00000000000E+00 0.  1.
</event>
<event>
 7    1  0.4875579E-009  0.4778727E+02  0.7816164E-02  0.1312668E+00
        -11   -1    0    0    0    0  0.00000000000E+00  0.00000000000E+00  0.45593999997E+02  0.45594000000E+02  0.51100000000E-03 0. -1.
         11   -1    0    0    0    0 -0.00000000000E+00 -0.00000000000E+00 -0.45593999997E+02  0.45594000000E+02  0.51100000000E-03 0.  1.
    9900012    2    1    2    0    0 -0.36787379061E+02  0.56561407112E+01 -0.22323086060E+02  0.47787270084E+02  0.19999995623E+02 0.  0.
         12    1    1    2    0    0  0.36787379061E+02 -0.56561407112E+01  0.22323086060E+02  0.43400729916E+02  0.00000000000E+00 0. -1.
         11    1    3    3    0    0 -0.10091485505E+02  0.25724493942E+01  0.24113055634E+00  0.10416991878E+02  0.51100000000E-03 0. -1.
        -11    1    3    3    0    0 -0.75642438799E+01 -0.47749473677E+01 -0.50772286469E+01  0.10285725975E+02  0.51100000000E-03 0.  1.
        -12    1    3    3    0    0 -0.19131649677E+02  0.78586386847E+01 -0.17486987970E+02  0.27084552231E+02  0.00000000000E+00 0.  1.
</event>
<event>
 7    1  0.4875579E-009  0.4778727E+02  0.7816164E-02  0.1312668E+00
        -11   -1    0    0    0    0  0.00000000000E+00  0.00000000000E+00  0.45593999997E+02  0.45594000000E+02  0.51100000000E-03 0. -1.
         11   -1    0    0    0    0 -0.00000000000E+00 -0.00000000000E+00 -0.45593999997E+02  0.45594000000E+02  0.51100000000E-03 0.  1.
    9900012    2    1    2    0    0  0.20177860863E+02  0.37611264448E+02  0.78657455476E+01  0.47787271487E+02  0.20000002019E+02 0.  0.
         12    1    1    2    0    0 -0.20177860863E+02 -0.37611264448E+02 -0.78657455476E+01  0.43400728513E+02  0.00000000000E+00 0. -1.
         11    1    3    3    0    0  0.62217155076E+01  0.14194873143E+01  0.30847849130E+01  0.70880594181E+01  0.51100000000E-03 0. -1.
        -11    1    3    3    0    0  0.60952428592E+01  0.11417393586E+02 -0.35227960414E+01  0.13413387119E+02  0.51100000000E-03 0.  1.
        -12    1    3    3    0    0  0.78609024964E+01  0.24774383548E+02  0.83037566760E+01  0.27285824950E+02  0.00000000000E+00 0.  1.
</event>
<event>
 7    1  0.4875579E-009  0.4778727E+02  0.7816164E-02  0.1312668E+00
        -11   -1    0    0    0    0  0.00000000000E+00  0.00000000000E+00  0.45593999997E+02  0.45594000000E+02  0.51100000000E-03 0.  1.
         11   -1    0    0    0    0 -0.00000000000E+00 -0.00000000000E+00 -0.45593999997E+02  0.45594000000E+02  0.51100000000E-03 0. -1.
    9900012    2    1    2    0    0 -0.24626316438E+02 -0.33636041753E+02  0.12074134273E+02  0.47787268618E+02  0.19999988935E+02 0.  0.
         12    1    1    2    0    0  0.24626316438E+02  0.33636041753E+02 -0.12074134273E+02  0.43400731382E+02  0.00000000000E+00 0. -1.
         11    1    3    3    0    0 -0.11048720572E+01  0.74141517108E+00  0.19058763506E+01  0.23243931775E+01  0.51100000000E-03 0. -1.
        -11    1    3    3    0    0 -0.22327517461E+02 -0.20898891806E+02  0.50533139051E+01  0.30997059479E+02  0.51100000000E-03 0.  1.
        -12    1    3    3    0    0 -0.11939269202E+01 -0.13478565117E+02  0.51149440168E+01  0.14465815961E+02  0.00000000000E+00 0.  1.
</event>
<event>
 7    1  0.4875579E-009  0.4778727E+02  0.7816164E-02  0.1312668E+00
        -11   -1    0    0    0    0  0.00000000000E+00  0.00000000000E+00  0.45593999997E+02  0.45594000000E+02  0.51100000000E-03 0. -1.
         11   -1    0    0    0    0 -0.00000000000E+00 -0.00000000000E+00 -0.45593999997E+02  0.45594000000E+02  0.51100000000E-03 0.  1.
    9900012    2    1    2    0    0  0.41191363323E+02 -0.95206068544E+01  0.98108524961E+01  0.47787271965E+02  0.20000004197E+02 0.  0.
         12    1    1    2    0    0 -0.41191363323E+02  0.95206068544E+01 -0.98108524961E+01  0.43400728035E+02  0.00000000000E+00 0. -1.
         11    1    3    3    0    0  0.28380710096E+01 -0.11555252743E+00  0.75172153239E+01  0.80359520861E+01  0.51100000000E-03 0. -1.
        -11    1    3    3    0    0  0.65935272159E+01 -0.14607664941E+01  0.18809406520E+01  0.70104477671E+01  0.51100000000E-03 0.  1.
         12    1    3    3    0    0  0.31759765097E+02 -0.79442878329E+01  0.41269652014E+00  0.32740872112E+02  0.00000000000E+00 0. -1.
</event>
<event>
 7    1  0.4875579E-009  0.4778727E+02  0.7816164E-02  0.1312668E+00
        -11   -1    0    0    0    0  0.00000000000E+00  0.00000000000E+00  0.45593999997E+02  0.45594000000E+02  0.51100000000E-03 0.  1.
         11   -1    0    0    0    0 -0.00000000000E+00 -0.00000000000E+00 -0.45593999997E+02  0.45594000000E+02  0.51100000000E-03 0. -1.
    9900012    2    1    2    0    0  0.14257904095E+02  0.11050180038E+02  0.39474407439E+02  0.47787272463E+02  0.20000006468E+02 0.  0.
         12    1    1    2    0    0 -0.14257904095E+02 -0.11050180038E+02 -0.39474407439E+02  0.43400727537E+02  0.00000000000E+00 0. -1.
         11    1    3    3    0    0  0.48893782557E+01 -0.21227824050E+01  0.28902610143E+01  0.60634836405E+01  0.51100000000E-03 0.  1.
        -11    1    3    3    0    0  0.86570700920E+01  0.31845832486E+01  0.11689351643E+02  0.14890512924E+02  0.51100000000E-03 0. -1.
        -12    1    3    3    0    0  0.71145574776E+00  0.99883791945E+01  0.24894794782E+02  0.26833275899E+02  0.00000000000E+00 0.  1.
</event>
<event>
 7    1  0.4875579E-009  0.4778727E+02  0.7816164E-02  0.1312668E+00
        -11   -1    0    0    0    0  0.00000000000E+00  0.00000000000E+00  0.45593999997E+02  0.45594000000E+02  0.51100000000E-03 0.  1.
         11   -1    0    0    0    0 -0.00000000000E+00 -0.00000000000E+00 -0.45593999997E+02  0.45594000000E+02  0.51100000000E-03 0. -1.
    9900012    2    1    2    0    0  0.22792155439E+02 -0.10572285539E+01 -0.36919145271E+02  0.47787269945E+02  0.19999994987E+02 0.  0.
         12    1    1    2    0    0 -0.22792155439E+02  0.10572285539E+01  0.36919145271E+02  0.43400730055E+02  0.00000000000E+00 0. -1.
         11    1    3    3    0    0  0.52482315734E+01  0.39545951305E+01 -0.97642391697E+01  0.11769584705E+02  0.51100000000E-03 0. -1.
        -11    1    3    3    0    0  0.95881379009E+01  0.39429476358E+01 -0.67954043474E+01  0.12395835792E+02  0.51100000000E-03 0.  1.
         12    1    3    3    0    0  0.79557859648E+01 -0.89547713201E+01 -0.20359501754E+02  0.23621849449E+02  0.00000000000E+00 0. -1.
</event>
<event>
 7    1  0.4875579E-009  0.4778727E+02  0.7816164E-02  0.1312668E+00
        -11   -1    0    0    0    0  0.00000000000E+00  0.00000000000E+00  0.45593999997E+02  0.45594000000E+02  0.51100000000E-03 0.  1.
         11   -1    0    0    0    0 -0.00000000000E+00 -0.00000000000E+00 -0.45593999997E+02  0.45594000000E+02  0.51100000000E-03 0. -1.
    9900012    2    1    2    0    0 -0.74538604975E+01  0.42293197218E+02  0.62728612843E+01  0.47787270100E+02  0.19999995692E+02 0.  0.
         12    1    1    2    0    0  0.74538604975E+01 -0.42293197218E+02 -0.62728612843E+01  0.43400729900E+02  0.00000000000E+00 0. -1.
         11    1    3    3    0    0 -0.21418127101E+01  0.76381641552E+01 -0.36867492764E+01  0.87476301840E+01  0.51100000000E-03 0. -1.
        -11    1    3    3    0    0 -0.50510576942E+01  0.16539547326E+02 -0.18818508348E+01  0.17395722819E+02  0.51100000000E-03 0.  1.
         12    1    3    3    0    0 -0.26099009329E+00  0.18115485736E+02  0.11841461396E+02  0.21643917096E+02  0.00000000000E+00 0. -1.
</event>
<event>
 7    1  0.4875579E-009  0.4778727E+02  0.7816164E-02  0.1312668E+00
        -11   -1    0    0    0    0  0.00000000000E+00  0.00000000000E+00  0.45593999997E+02  0.45594000000E+02  0.51100000000E-03 0.  1.
         11   -1    0    0    0    0 -0.00000000000E+00 -0.00000000000E+00 -0.45593999997E+02  0.45594000000E+02  0.51100000000E-03 0. -1.
    9900012    2    1    2    0    0  0.16203271550E+02  0.31186508628E+02  0.25465250333E+02  0.47787270699E+02  0.19999998426E+02 0.  0.
         12    1    1    2    0    0 -0.16203271550E+02 -0.31186508628E+02 -0.25465250333E+02  0.43400729301E+02  0.00000000000E+00 0. -1.
         11    1    3    3    0    0  0.11607894928E+01  0.31991592842E+01  0.83939463482E+01  0.90576149140E+01  0.51100000000E-03 0. -1.
        -11    1    3    3    0    0  0.41585337015E+00 -0.16535534298E+01  0.99491318348E+00  0.19740885174E+01  0.51100000000E-03 0.  1.
        -12    1    3    3    0    0  0.14626628687E+02  0.29640902774E+02  0.16076390801E+02  0.36755567268E+02  0.00000000000E+00 0.  1.
</event>
<event>
 7    1  0.4875579E-009  0.4778726E+02  0.7816164E-02  0.1312668E+00
        -11   -1    0    0    0    0  0.00000000000E+00  0.00000000000E+00  0.45593999997E+02  0.45594000000E+02  0.51100000000E-03 0.  1.
         11   -1    0    0    0    0 -0.00000000000E+00 -0.00000000000E+00 -0.45593999997E+02  0.45594000000E+02  0.51100000000E-03 0. -1.
    9900012    2    1    2    0    0  0.20871630519E+02  0.42650770333E+01  0.37812804702E+02  0.47787262194E+02  0.19999959649E+02 0.  0.
         12    1    1    2    0    0 -0.20871630519E+02 -0.42650770333E+01 -0.37812804702E+02  0.43400737806E+02  0.00000000000E+00 0. -1.
         11    1    3    3    0    0 -0.29320841161E+01 -0.21553849066E+01  0.62923094725E+01  0.72688348529E+01  0.51100000000E-03 0. -1.
        -11    1    3    3    0    0  0.20183488385E+01  0.12647942828E+01  0.81331257376E+00  0.25169255482E+01  0.51100000000E-03 0.  1.
        -12    1    3    3    0    0  0.21785365797E+02  0.51556676571E+01  0.30707182656E+02  0.38001501793E+02  0.00000000000E+00 0.  1.
</event>
<event>
 7    1  0.4875579E-009  0.4778727E+02  0.7816164E-02  0.1312668E+00
        -11   -1    0    0    0    0  0.00000000000E+00  0.00000000000E+00  0.45593999997E+02  0.45594000000E+02  0.51100000000E-03 0. -1.
         11   -1    0    0    0    0 -0.00000000000E+00 -0.00000000000E+00 -0.45593999997E+02  0.45594000000E+02  0.51100000000E-03 0.  1.
    9900012    2    1    2    0    0 -0.33632921239E+01  0.42557466253E+02  0.78213477190E+01  0.47787272495E+02  0.20000006614E+02 0.  0.
         12    1    1    2    0    0  0.33632921239E+01 -0.42557466253E+02 -0.78213477190E+01  0.43400727505E+02  0.00000000000E+00 0. -1.
         11    1    3    3    0    0  0.17852710857E+01  0.12209377767E+02 -0.12474826154E+01  0.12402109153E+02  0.51100000000E-03 0. -1.
        -11    1    3    3    0    0  0.53467791481E-01  0.28305031028E+02  0.92937243209E+01  0.29791793372E+02  0.51100000000E-03 0.  1.
         12    1    3    3    0    0 -0.52020310011E+01  0.20430574577E+01 -0.22489398642E+00  0.55933699696E+01  0.00000000000E+00 0. -1.
</event>
<event>
 7    1  0.4875579E-009  0.4778727E+02  0.7816164E-02  0.1312668E+00
        -11   -1    0    0    0    0  0.00000000000E+00  0.00000000000E+00  0.45593999997E+02  0.45594000000E+02  0.51100000000E-03 0.  1.
         11   -1    0    0    0    0 -0.00000000000E+00 -0.00000000000E+00 -0.45593999997E+02  0.45594000000E+02  0.51100000000E-03 0. -1.
    9900012    2    1    2    0    0 -0.11384348478E+02 -0.52135458573E+01  0.41555247462E+02  0.47787273712E+02  0.20000012163E+02 0.  0.
         12    1    1    2    0    0  0.11384348478E+02  0.52135458573E+01 -0.41555247462E+02  0.43400726288E+02  0.00000000000E+00 0. -1.
         11    1    3    3    0    0 -0.46419728679E+01  0.42997042279E+01  0.14942512929E+02  0.16226954781E+02  0.51100000000E-03 0. -1.
        -11    1    3    3    0    0 -0.42605625993E+00 -0.80292898299E+00  0.17318767486E+02  0.17342604372E+02  0.51100000000E-03 0.  1.
        -12    1    3    3    0    0 -0.63163193499E+01 -0.87103211022E+01  0.92939670471E+01  0.14217714560E+02  0.00000000000E+00 0.  1.
</event>
<event>
 7    1  0.4875579E-009  0.4778727E+02  0.7816164E-02  0.1312668E+00
        -11   -1    0    0    0    0  0.00000000000E+00  0.00000000000E+00  0.45593999997E+02  0.45594000000E+02  0.51100000000E-03 0.  1.
         11   -1    0    0    0    0 -0.00000000000E+00 -0.00000000000E+00 -0.45593999997E+02  0.45594000000E+02  0.51100000000E-03 0. -1.
    9900012    2    1    2    0    0  0.39555974926E+02 -0.98548214530E+01  0.14893984754E+02  0.47787269130E+02  0.19999991271E+02 0.  0.
         12    1    1    2    0    0 -0.39555974926E+02  0.98548214530E+01 -0.14893984754E+02  0.43400730870E+02  0.00000000000E+00 0. -1.
         11    1    3    3    0    0  0.24334180407E+02 -0.14787734302E+02  0.10582783764E+02  0.30378030455E+02  0.51100000000E-03 0. -1.
        -11    1    3    3    0    0  0.84630638434E+01  0.41572307851E+01  0.48154641535E+01  0.10587479053E+02  0.51100000000E-03 0.  1.
        -12    1    3    3    0    0  0.67587306750E+01  0.77568206402E+00 -0.50426316308E+00  0.68217596220E+01  0.00000000000E+00 0.  1.
</event>
<event>
 7    1  0.4875579E-009  0.4778727E+02  0.7816164E-02  0.1312668E+00
        -11   -1    0    0    0    0  0.00000000000E+00  0.00000000000E+00  0.45593999997E+02  0.45594000000E+02  0.51100000000E-03 0. -1.
         11   -1    0    0    0    0 -0.00000000000E+00 -0.00000000000E+00 -0.45593999997E+02  0.45594000000E+02  0.51100000000E-03 0.  1.
    9900012    2    1    2    0    0 -0.41554461575E+02 -0.11118632089E+02 -0.57642198626E+01  0.47787268590E+02  0.19999988810E+02 0.  0.
         12    1    1    2    0    0  0.41554461575E+02  0.11118632089E+02  0.57642198626E+01  0.43400731410E+02  0.00000000000E+00 0. -1.
         11    1    3    3    0    0 -0.23535569879E+01 -0.26475551065E+01 -0.89170582561E+00  0.36529328050E+01  0.51100000000E-03 0. -1.
        -11    1    3    3    0    0 -0.33837904721E+02 -0.55592144299E+00 -0.64284902395E+01  0.34447617212E+02  0.51100000000E-03 0.  1.
        -12    1    3    3    0    0 -0.53629998656E+01 -0.79151555394E+01  0.15559762025E+01  0.96867185731E+01  0.00000000000E+00 0.  1.
</event>
<event>
 7    1  0.4875579E-009  0.4778727E+02  0.7816164E-02  0.1312668E+00
        -11   -1    0    0    0    0  0.00000000000E+00  0.00000000000E+00  0.45593999997E+02  0.45594000000E+02  0.51100000000E-03 0. -1.
         11   -1    0    0    0    0 -0.00000000000E+00 -0.00000000000E+00 -0.45593999997E+02  0.45594000000E+02  0.51100000000E-03 0.  1.
    9900012    2    1    2    0    0 -0.26430841741E+01 -0.40321632253E+02 -0.15836768766E+02  0.47787272283E+02  0.20000005645E+02 0.  0.
         12    1    1    2    0    0  0.26430841741E+01  0.40321632253E+02  0.15836768766E+02  0.43400727717E+02  0.00000000000E+00 0. -1.
         11    1    3    3    0    0 -0.25850397068E+01 -0.80062286784E+01 -0.71643257185E+01  0.11050325389E+02  0.51100000000E-03 0. -1.
        -11    1    3    3    0    0 -0.74892379117E+01 -0.18826019992E+02 -0.41000154032E+01  0.20671667562E+02  0.51100000000E-03 0.  1.
        -12    1    3    3    0    0  0.74311934444E+01 -0.13489383582E+02 -0.45724276441E+01  0.16065279331E+02  0.00000000000E+00 0.  1.
</event>
<event>
 7    1  0.4875579E-009  0.4778727E+02  0.7816164E-02  0.1312668E+00
        -11   -1    0    0    0    0  0.00000000000E+00  0.00000000000E+00  0.45593999997E+02  0.45594000000E+02  0.51100000000E-03 0. -1.
         11   -1    0    0    0    0 -0.00000000000E+00 -0.00000000000E+00 -0.45593999997E+02  0.45594000000E+02  0.51100000000E-03 0.  1.
    9900012    2    1    2    0    0  0.21928973786E+02  0.10442483017E+02 -0.35968010193E+02  0.47787273047E+02  0.20000009129E+02 0.  0.
         12    1    1    2    0    0 -0.21928973786E+02 -0.10442483017E+02  0.35968010193E+02  0.43400726953E+02  0.00000000000E+00 0. -1.
         11    1    3    3    0    0  0.34630837935E+01  0.20317032883E+01  0.87457759669E+00  0.41092157215E+01  0.51100000000E-03 0.  1.
        -11    1    3    3    0    0 -0.10294553500E+01  0.30147062820E+01 -0.60108335462E+01  0.68028194497E+01  0.51100000000E-03 0. -1.
        -12    1    3    3    0    0  0.19495345342E+02  0.53960734468E+01 -0.30831754243E+02  0.36875237875E+02  0.00000000000E+00 0.  1.
</event>
<event>
 7    1  0.4875579E-009  0.4778727E+02  0.7816164E-02  0.1312668E+00
        -11   -1    0    0    0    0  0.00000000000E+00  0.00000000000E+00  0.45593999997E+02  0.45594000000E+02  0.51100000000E-03 0.  1.
         11   -1    0    0    0    0 -0.00000000000E+00 -0.00000000000E+00 -0.45593999997E+02  0.45594000000E+02  0.51100000000E-03 0. -1.
    9900012    2    1    2    0    0  0.18071602799E+02  0.25977803366E+02 -0.29701760764E+02  0.47787266275E+02  0.19999978253E+02 0.  0.
         12    1    1    2    0    0 -0.18071602799E+02 -0.25977803366E+02  0.29701760764E+02  0.43400733725E+02  0.00000000000E+00 0. -1.
         11    1    3    3    0    0  0.27235650555E+01  0.45231808891E+01 -0.93780838920E+01  0.10762222341E+02  0.51100000000E-03 0. -1.
        -11    1    3    3    0    0  0.80010960498E+01  0.64344269522E+01 -0.17175602390E+02  0.20010514884E+02  0.51100000000E-03 0.  1.
        -12    1    3    3    0    0  0.73469416936E+01  0.15020195525E+02 -0.31480744818E+01  0.17014529050E+02  0.00000000000E+00 0.  1.
</event>
<event>
 7    1  0.4875579E-009  0.4778727E+02  0.7816164E-02  0.1312668E+00
        -11   -1    0    0    0    0  0.00000000000E+00  0.00000000000E+00  0.45593999997E+02  0.45594000000E+02  0.51100000000E-03 0. -1.
         11   -1    0    0    0    0 -0.00000000000E+00 -0.00000000000E+00 -0.45593999997E+02  0.45594000000E+02  0.51100000000E-03 0.  1.
    9900012    2    1    2    0    0  0.40590157372E+02 -0.43622063390E+01 -0.14732056431E+02  0.47787271823E+02  0.20000003551E+02 0.  0.
         12    1    1    2    0    0 -0.40590157372E+02  0.43622063390E+01  0.14732056431E+02  0.43400728177E+02  0.00000000000E+00 0. -1.
         11    1    3    3    0    0  0.52329743767E+00 -0.67337148470E+00  0.11101499757E+01  0.13998937796E+01  0.51100000000E-03 0. -1.
        -11    1    3    3    0    0  0.14342598554E+02  0.46396508724E+01 -0.11592920514E+02  0.19016632189E+02  0.51100000000E-03 0.  1.
        -12    1    3    3    0    0  0.25724261380E+02 -0.83284857266E+01 -0.42492858920E+01  0.27370745855E+02  0.00000000000E+00 0.  1.
</event>
<event>
 7    1  0.4875579E-009  0.4778727E+02  0.7816164E-02  0.1312668E+00
        -11   -1    0    0    0    0  0.00000000000E+00  0.00000000000E+00  0.45593999997E+02  0.45594000000E+02  0.51100000000E-03 0. -1.
         11   -1    0    0    0    0 -0.00000000000E+00 -0.00000000000E+00 -0.45593999997E+02  0.45594000000E+02  0.51100000000E-03 0.  1.
    9900012    2    1    2    0    0  0.37559240981E+02 -0.21280894537E+02  0.44777240487E+01  0.47787273416E+02  0.20000010813E+02 0.  0.
         12    1    1    2    0    0 -0.37559240981E+02  0.21280894537E+02 -0.44777240487E+01  0.43400726584E+02  0.00000000000E+00 0. -1.
         11    1    3    3    0    0  0.58494133794E+01 -0.15065978338E+01 -0.25569147171E+01  0.65592139047E+01  0.51100000000E-03 0. -1.
        -11    1    3    3    0    0  0.15613117226E+02 -0.65960056134E+01  0.10784895871E+02  0.20089566913E+02  0.51100000000E-03 0.  1.
        -12    1    3    3    0    0  0.16096710376E+02 -0.13178291090E+02 -0.37502571047E+01  0.21138492598E+02  0.00000000000E+00 0.  1.
</event>
<event>
 7    1  0.4875579E-009  0.4778728E+02  0.7816164E-02  0.1312668E+00
        -11   -1    0    0    0    0  0.00000000000E+00  0.00000000000E+00  0.45593999997E+02  0.45594000000E+02  0.51100000000E-03 0.  1.
         11   -1    0    0    0    0 -0.00000000000E+00 -0.00000000000E+00 -0.45593999997E+02  0.45594000000E+02  0.51100000000E-03 0. -1.
    9900012    2    1    2    0    0  0.14998083480E+02  0.29456051625E+02  0.28125103441E+02  0.47787275018E+02  0.20000018115E+02 0.  0.
         12    1    1    2    0    0 -0.14998083480E+02 -0.29456051625E+02 -0.28125103441E+02  0.43400724982E+02  0.00000000000E+00 0. -1.
         11    1    3    3    0    0  0.64613761535E+01  0.14215619345E+02  0.37902843009E+01  0.16068586450E+02  0.51100000000E-03 0. -1.
        -11    1    3    3    0    0  0.87237212641E+01  0.14435821286E+02  0.15695837758E+02  0.23040303211E+02  0.51100000000E-03 0.  1.
        -12    1    3    3    0    0 -0.18701393760E+00  0.80461099460E+00  0.86389813821E+01  0.86783853559E+01  0.00000000000E+00 0.  1.
</event>
<event>
 7    1  0.4875579E-009  0.4778727E+02  0.7816164E-02  0.1312668E+00
        -11   -1    0    0    0    0  0.00000000000E+00  0.00000000000E+00  0.45593999997E+02  0.45594000000E+02  0.51100000000E-03 0.  1.
         11   -1    0    0    0    0 -0.00000000000E+00 -0.00000000000E+00 -0.45593999997E+02  0.45594000000E+02  0.51100000000E-03 0. -1.
    9900012    2    1    2    0    0  0.14608295221E+02  0.20958697960E+02  0.35084956502E+02  0.47787268644E+02  0.19999989057E+02 0.  0.
         12    1    1    2    0    0 -0.14608295221E+02 -0.20958697960E+02 -0.35084956502E+02  0.43400731356E+02  0.00000000000E+00 0. -1.
         11    1    3    3    0    0  0.60634653018E+01  0.12811847766E+02  0.14040865032E+02  0.19951314386E+02  0.51100000000E-03 0.  1.
        -11    1    3    3    0    0 -0.19380344791E+01  0.59007795909E+01  0.13083366885E+02  0.14482736853E+02  0.51100000000E-03 0. -1.
        -12    1    3    3    0    0  0.10482864399E+02  0.22460706032E+01  0.79607245852E+01  0.13353217405E+02  0.00000000000E+00 0.  1.
</event>
<event>
 7    1  0.4875579E-009  0.4778727E+02  0.7816164E-02  0.1312668E+00
        -11   -1    0    0    0    0  0.00000000000E+00  0.00000000000E+00  0.45593999997E+02  0.45594000000E+02  0.51100000000E-03 0.  1.
         11   -1    0    0    0    0 -0.00000000000E+00 -0.00000000000E+00 -0.45593999997E+02  0.45594000000E+02  0.51100000000E-03 0. -1.
    9900012    2    1    2    0    0  0.38903106980E+02  0.14989244197E+02  0.12062098465E+02  0.47787269665E+02  0.19999993709E+02 0.  0.
         12    1    1    2    0    0 -0.38903106980E+02 -0.14989244197E+02 -0.12062098465E+02  0.43400730335E+02  0.00000000000E+00 0. -1.
         11    1    3    3    0    0  0.36258762272E+01 -0.81915414366E+00 -0.22439262387E+01  0.43420268483E+01  0.51100000000E-03 0. -1.
        -11    1    3    3    0    0  0.50267633728E+01  0.81063492392E+01  0.12921824642E+01  0.96255381032E+01  0.51100000000E-03 0.  1.
        -12    1    3    3    0    0  0.30250467380E+02  0.77020491011E+01  0.13013842240E+02  0.33819704713E+02  0.00000000000E+00 0.  1.
</event>
<event>
 7    1  0.4875579E-009  0.4778727E+02  0.7816164E-02  0.1312668E+00
        -11   -1    0    0    0    0  0.00000000000E+00  0.00000000000E+00  0.45593999997E+02  0.45594000000E+02  0.51100000000E-03 0.  1.
         11   -1    0    0    0    0 -0.00000000000E+00 -0.00000000000E+00 -0.45593999997E+02  0.45594000000E+02  0.51100000000E-03 0. -1.
    9900012    2    1    2    0    0  0.14374745434E+02  0.40776805709E+02  0.37738917380E+01  0.47787269027E+02  0.19999990803E+02 0.  0.
         12    1    1    2    0    0 -0.14374745434E+02 -0.40776805709E+02 -0.37738917380E+01  0.43400730973E+02  0.00000000000E+00 0. -1.
         11    1    3    3    0    0 -0.49751634073E+00  0.26942672490E+01  0.33198810916E+01  0.43044406422E+01  0.51100000000E-03 0. -1.
        -11    1    3    3    0    0 -0.11222506352E+01  0.74289482911E+01  0.43611353724E+01  0.86872447414E+01  0.51100000000E-03 0.  1.
        -12    1    3    3    0    0  0.15994512410E+02  0.30653590169E+02 -0.39071247261E+01  0.34795583644E+02  0.00000000000E+00 0.  1.
</event>
<event>
 7    1  0.4875579E-009  0.4778727E+02  0.7816164E-02  0.1312668E+00
        -11   -1    0    0    0    0  0.00000000000E+00  0.00000000000E+00  0.45593999997E+02  0.45594000000E+02  0.51100000000E-03 0. -1.
         11   -1    0    0    0    0 -0.00000000000E+00 -0.00000000000E+00 -0.45593999997E+02  0.45594000000E+02  0.51100000000E-03 0.  1.
    9900012    2    1    2    0    0  0.13987788985E+02 -0.20641450809E+02 -0.35523164748E+02  0.47787274593E+02  0.20000016178E+02 0.  0.
         12    1    1    2    0    0 -0.13987788985E+02  0.20641450809E+02  0.35523164748E+02  0.43400725407E+02  0.00000000000E+00 0. -1.
         11    1    3    3    0    0  0.24818165360E+00 -0.11492541295E+02 -0.12082038585E+02  0.16676802937E+02  0.51100000000E-03 0.  1.
        -11    1    3    3    0    0  0.27327427320E+01 -0.75032479015E+00  0.10126093154E+01  0.30093600676E+01  0.51100000000E-03 0. -1.
        -12    1    3    3    0    0  0.11006864599E+02 -0.83985847237E+01 -0.24453735478E+02  0.28101111589E+02  0.00000000000E+00 0.  1.
</event>
<event>
 7    1  0.4875579E-009  0.4778727E+02  0.7816164E-02  0.1312668E+00
        -11   -1    0    0    0    0  0.00000000000E+00  0.00000000000E+00  0.45593999997E+02  0.45594000000E+02  0.51100000000E-03 0. -1.
         11   -1    0    0    0    0 -0.00000000000E+00 -0.00000000000E+00 -0.45593999997E+02  0.45594000000E+02  0.51100000000E-03 0.  1.
    9900012    2    1    2    0    0  0.12753626639E+02  0.38735968440E+02  0.14849008973E+02  0.47787270617E+02  0.19999998052E+02 0.  0.
         12    1    1    2    0    0 -0.12753626639E+02 -0.38735968440E+02 -0.14849008973E+02  0.43400729383E+02  0.00000000000E+00 0. -1.
         11    1    3    3    0    0  0.26203539260E+01  0.11884170202E+02  0.65697543228E+01  0.13829729867E+02  0.51100000000E-03 0. -1.
        -11    1    3    3    0    0  0.20510883709E+01  0.24035452783E+02  0.79255031822E+01  0.25391407109E+02  0.51100000000E-03 0.  1.
         12    1    3    3    0    0  0.80821843420E+01  0.28163454558E+01  0.35375146820E+00  0.85661336416E+01  0.00000000000E+00 0. -1.
</event>
<event>
 7    1  0.4875579E-009  0.4778727E+02  0.7816164E-02  0.1312668E+00
        -11   -1    0    0    0    0  0.00000000000E+00  0.00000000000E+00  0.45593999997E+02  0.45594000000E+02  0.51100000000E-03 0. -1.
         11   -1    0    0    0    0 -0.00000000000E+00 -0.00000000000E+00 -0.45593999997E+02  0.45594000000E+02  0.51100000000E-03 0.  1.
    9900012    2    1    2    0    0 -0.37429413292E+02 -0.10732205905E+02  0.19169822357E+02  0.47787270603E+02  0.19999997988E+02 0.  0.
         12    1    1    2    0    0  0.37429413292E+02  0.10732205905E+02 -0.19169822357E+02  0.43400729397E+02  0.00000000000E+00 0. -1.
         11    1    3    3    0    0 -0.27277435693E+01 -0.51392564500E+01  0.23785088125E+01  0.62856858234E+01  0.51100000000E-03 0. -1.
        -11    1    3    3    0    0 -0.48279408998E+01  0.41010147375E+01  0.12389525433E+01  0.64546370057E+01  0.51100000000E-03 0.  1.
        -12    1    3    3    0    0 -0.29873728823E+02 -0.96939641926E+01  0.15552361001E+02  0.35046947774E+02  0.00000000000E+00 0.  1.
</event>
<event>
 7    1  0.4875579E-009  0.4778728E+02  0.7816164E-02  0.1312668E+00
        -11   -1    0    0    0    0  0.00000000000E+00  0.00000000000E+00  0.45593999997E+02  0.45594000000E+02  0.51100000000E-03 0. -1.
         11   -1    0    0    0    0 -0.00000000000E+00 -0.00000000000E+00 -0.45593999997E+02  0.45594000000E+02  0.51100000000E-03 0.  1.
    9900012    2    1    2    0    0  0.27717767994E+02 -0.27024489368E+02 -0.19622058363E+02  0.47787275783E+02  0.20000021605E+02 0.  0.
         12    1    1    2    0    0 -0.27717767994E+02  0.27024489368E+02  0.19622058363E+02  0.43400724217E+02  0.00000000000E+00 0. -1.
         11    1    3    3    0    0  0.11431570432E+02 -0.49897494915E+01 -0.28016836371E+01  0.12783889627E+02  0.51100000000E-03 0.  1.
        -11    1    3    3    0    0  0.35860488402E+01 -0.16268350028E+02 -0.78148244914E+01  0.18400827183E+02  0.51100000000E-03 0. -1.
        -12    1    3    3    0    0  0.12700148722E+02 -0.57663898481E+01 -0.90055502343E+01  0.16602558974E+02  0.00000000000E+00 0.  1.
</event>
<event>
 7    1  0.4875579E-009  0.4778729E+02  0.7816164E-02  0.1312668E+00
        -11   -1    0    0    0    0  0.00000000000E+00  0.00000000000E+00  0.45593999997E+02  0.45594000000E+02  0.51100000000E-03 0.  1.
         11   -1    0    0    0    0 -0.00000000000E+00 -0.00000000000E+00 -0.45593999997E+02  0.45594000000E+02  0.51100000000E-03 0. -1.
    9900012    2    1    2    0    0 -0.15007526375E+02  0.54139428491E+01  0.40361929704E+02  0.47787285784E+02  0.20000067203E+02 0.  0.
         12    1    1    2    0    0  0.15007526375E+02 -0.54139428491E+01 -0.40361929704E+02  0.43400714216E+02  0.00000000000E+00 0. -1.
         11    1    3    3    0    0  0.11781190990E+01  0.36735251933E+01  0.10512532362E+02  0.11198039511E+02  0.51100000000E-03 0. -1.
        -11    1    3    3    0    0 -0.10322865076E+02 -0.10030934917E+01  0.27997212300E+02  0.29856517492E+02  0.51100000000E-03 0.  1.
         12    1    3    3    0    0 -0.58627803984E+01  0.27435111475E+01  0.18521850418E+01  0.67327287815E+01  0.00000000000E+00 0. -1.
</event>
<event>
 7    1  0.4875579E-009  0.4778727E+02  0.7816164E-02  0.1312668E+00
        -11   -1    0    0    0    0  0.00000000000E+00  0.00000000000E+00  0.45593999997E+02  0.45594000000E+02  0.51100000000E-03 0. -1.
         11   -1    0    0    0    0 -0.00000000000E+00 -0.00000000000E+00 -0.45593999997E+02  0.45594000000E+02  0.51100000000E-03 0.  1.
    9900012    2    1    2    0    0 -0.17121134013E+02 -0.22920935111E+02 -0.32636188005E+02  0.47787271161E+02  0.20000000531E+02 0.  0.
         12    1    1    2    0    0  0.17121134013E+02  0.22920935111E+02  0.32636188005E+02  0.43400728839E+02  0.00000000000E+00 0. -1.
         11    1    3    3    0    0  0.21110209779E+01 -0.12100389491E+01  0.15429630211E+01  0.28812044310E+01  0.51100000000E-03 0. -1.
        -11    1    3    3    0    0 -0.30733106952E+01 -0.22085212377E+01 -0.49388479524E+01  0.62221398285E+01  0.51100000000E-03 0.  1.
         12    1    3    3    0    0 -0.16158844296E+02 -0.19502374924E+02 -0.29240303074E+02  0.38683926901E+02  0.00000000000E+00 0. -1.
</event>
<event>
 7    1  0.4875579E-009  0.4778727E+02  0.7816164E-02  0.1312668E+00
        -11   -1    0    0    0    0  0.00000000000E+00  0.00000000000E+00  0.45593999997E+02  0.45594000000E+02  0.51100000000E-03 0. -1.
         11   -1    0    0    0    0 -0.00000000000E+00 -0.00000000000E+00 -0.45593999997E+02  0.45594000000E+02  0.51100000000E-03 0.  1.
    9900012    2    1    2    0    0 -0.42075683689E+02 -0.96465997951E+00  0.10598579470E+02  0.47787267131E+02  0.19999982156E+02 0.  0.
         12    1    1    2    0    0  0.42075683689E+02  0.96465997951E+00 -0.10598579470E+02  0.43400732869E+02  0.00000000000E+00 0. -1.
         11    1    3    3    0    0 -0.43070087422E+01 -0.27674687401E+01 -0.32851733271E+01  0.60828917123E+01  0.51100000000E-03 0. -1.
        -11    1    3    3    0    0 -0.18804931782E+02 -0.25486617170E+01  0.24432081098E+01  0.19133489018E+02  0.51100000000E-03 0.  1.
        -12    1    3    3    0    0 -0.18963743165E+02  0.43514704776E+01  0.11440544687E+02  0.22570886400E+02  0.00000000000E+00 0.  1.
</event>
<event>
 7    1  0.4875579E-009  0.4778727E+02  0.7816164E-02  0.1312668E+00
        -11   -1    0    0    0    0  0.00000000000E+00  0.00000000000E+00  0.45593999997E+02  0.45594000000E+02  0.51100000000E-03 0.  1.
         11   -1    0    0    0    0 -0.00000000000E+00 -0.00000000000E+00 -0.45593999997E+02  0.45594000000E+02  0.51100000000E-03 0. -1.
    9900012    2    1    2    0    0 -0.38695592913E+02  0.80425424478E+01  0.17932983006E+02  0.47787270981E+02  0.19999999710E+02 0.  0.
         12    1    1    2    0    0  0.38695592913E+02 -0.80425424478E+01 -0.17932983006E+02  0.43400729019E+02  0.00000000000E+00 0. -1.
         11    1    3    3    0    0 -0.16154560064E+02  0.70346794596E+01 -0.78780063159E+00  0.17637379512E+02  0.51100000000E-03 0. -1.
        -11    1    3    3    0    0 -0.57425677083E+01 -0.22816449549E+01  0.28416842373E+01  0.68013349535E+01  0.51100000000E-03 0.  1.
         12    1    3    3    0    0 -0.16798465141E+02  0.32895079431E+01  0.15879099400E+02  0.23348556515E+02  0.00000000000E+00 0. -1.
</event>
<event>
 7    1  0.4875579E-009  0.4778728E+02  0.7816164E-02  0.1312668E+00
        -11   -1    0    0    0    0  0.00000000000E+00  0.00000000000E+00  0.45593999997E+02  0.45594000000E+02  0.51100000000E-03 0.  1.
         11   -1    0    0    0    0 -0.00000000000E+00 -0.00000000000E+00 -0.45593999997E+02  0.45594000000E+02  0.51100000000E-03 0. -1.
    9900012    2    1    2    0    0 -0.29143886714E+02 -0.11464100377E+02  0.30047145987E+02  0.47787277515E+02  0.20000029504E+02 0.  0.
         12    1    1    2    0    0  0.29143886714E+02  0.11464100377E+02 -0.30047145987E+02  0.43400722485E+02  0.00000000000E+00 0. -1.
         11    1    3    3    0    0 -0.23590320275E+02 -0.65362778898E+01  0.17735627214E+02  0.30228771266E+02  0.51100000000E-03 0. -1.
        -11    1    3    3    0    0 -0.66469597539E+01  0.25999912675E+00  0.93827550868E+01  0.11501554973E+02  0.51100000000E-03 0.  1.
         12    1    3    3    0    0  0.10933933148E+01 -0.51878216141E+01  0.29287636862E+01  0.60569512769E+01  0.00000000000E+00 0. -1.
</event>
<event>
 7    1  0.4875579E-009  0.4778727E+02  0.7816164E-02  0.1312668E+00
        -11   -1    0    0    0    0  0.00000000000E+00  0.00000000000E+00  0.45593999997E+02  0.45594000000E+02  0.51100000000E-03 0.  1.
         11   -1    0    0    0    0 -0.00000000000E+00 -0.00000000000E+00 -0.45593999997E+02  0.45594000000E+02  0.51100000000E-03 0. -1.
    9900012    2    1    2    0    0 -0.22226083371E+02  0.52074394469E+01  0.36912154915E+02  0.47787269729E+02  0.19999994001E+02 0.  0.
         12    1    1    2    0    0  0.22226083371E+02 -0.52074394469E+01 -0.36912154915E+02  0.43400730271E+02  0.00000000000E+00 0. -1.
         11    1    3    3    0    0 -0.36329390562E+01 -0.15389932815E+01  0.19015202478E+01  0.43797860702E+01  0.51100000000E-03 0. -1.
        -11    1    3    3    0    0 -0.10817372044E+02  0.27480299933E+01  0.32421264913E+02  0.34288564064E+02  0.51100000000E-03 0.  1.
        -12    1    3    3    0    0 -0.77757722710E+01  0.39984027351E+01  0.25893697542E+01  0.91189195942E+01  0.00000000000E+00 0.  1.
</event>
<event>
 7    1  0.4875579E-009  0.4778727E+02  0.7816164E-02  0.1312668E+00
        -11   -1    0    0    0    0  0.00000000000E+00  0.00000000000E+00  0.45593999997E+02  0.45594000000E+02  0.51100000000E-03 0.  1.
         11   -1    0    0    0    0 -0.00000000000E+00 -0.00000000000E+00 -0.45593999997E+02  0.45594000000E+02  0.51100000000E-03 0. -1.
    9900012    2    1    2    0    0 -0.22668519344E+02 -0.21430872524E+02  0.30174146020E+02  0.47787272421E+02  0.20000006275E+02 0.  0.
         12    1    1    2    0    0  0.22668519344E+02  0.21430872524E+02 -0.30174146020E+02  0.43400727579E+02  0.00000000000E+00 0. -1.
         11    1    3    3    0    0 -0.41811721034E+00 -0.31119789718E+01  0.95037395244E+00  0.32806167153E+01  0.51100000000E-03 0. -1.
        -11    1    3    3    0    0 -0.17723105391E+02 -0.79557166174E+01  0.26528384141E+02  0.32880952800E+02  0.51100000000E-03 0.  1.
        -12    1    3    3    0    0 -0.45272967424E+01 -0.10363176935E+02  0.26953879262E+01  0.11625702906E+02  0.00000000000E+00 0.  1.
</event>
<event>
 7    1  0.4875579E-009  0.4778727E+02  0.7816164E-02  0.1312668E+00
        -11   -1    0    0    0    0  0.00000000000E+00  0.00000000000E+00  0.45593999997E+02  0.45594000000E+02  0.51100000000E-03 0.  1.
         11   -1    0    0    0    0 -0.00000000000E+00 -0.00000000000E+00 -0.45593999997E+02  0.45594000000E+02  0.51100000000E-03 0. -1.
    9900012    2    1    2    0    0  0.33218851888E+02  0.75553640300E+01  0.26889551003E+02  0.47787267293E+02  0.19999982898E+02 0.  0.
         12    1    1    2    0    0 -0.33218851888E+02 -0.75553640300E+01 -0.26889551003E+02  0.43400732707E+02  0.00000000000E+00 0. -1.
         11    1    3    3    0    0  0.60262530458E+01  0.46998658108E+01  0.84375891664E+01  0.11384084312E+02  0.51100000000E-03 0. -1.
        -11    1    3    3    0    0  0.20848639161E+02 -0.22529588003E+01  0.18921309658E+02  0.28244601921E+02  0.51100000000E-03 0.  1.
        -12    1    3    3    0    0  0.63439596809E+01  0.51084570195E+01 -0.46934782217E+00  0.81585810612E+01  0.00000000000E+00 0.  1.
</event>
<event>
 7    1  0.4875579E-009  0.4778727E+02  0.7816164E-02  0.1312668E+00
        -11   -1    0    0    0    0  0.00000000000E+00  0.00000000000E+00  0.45593999997E+02  0.45594000000E+02  0.51100000000E-03 0.  1.
         11   -1    0    0    0    0 -0.00000000000E+00 -0.00000000000E+00 -0.45593999997E+02  0.45594000000E+02  0.51100000000E-03 0. -1.
    9900012    2    1    2    0    0  0.91430617843E+01 -0.41012173742E+02  0.10864124432E+02  0.47787272201E+02  0.20000005271E+02 0.  0.
         12    1    1    2    0    0 -0.91430617843E+01  0.41012173742E+02 -0.10864124432E+02  0.43400727799E+02  0.00000000000E+00 0. -1.
         11    1    3    3    0    0  0.71843013578E+00 -0.18074119325E+02 -0.91878049112E+00  0.18111711380E+02  0.51100000000E-03 0. -1.
        -11    1    3    3    0    0  0.27699104279E+00 -0.24287576295E+01 -0.24135542655E+01  0.34352339242E+01  0.51100000000E-03 0.  1.
        -12    1    3    3    0    0  0.81476406057E+01 -0.20509296787E+02  0.14196459189E+02  0.26240326897E+02  0.00000000000E+00 0.  1.
</event>
<event>
 7    1  0.4875579E-009  0.4778727E+02  0.7816164E-02  0.1312668E+00
        -11   -1    0    0    0    0  0.00000000000E+00  0.00000000000E+00  0.45593999997E+02  0.45594000000E+02  0.51100000000E-03 0.  1.
         11   -1    0    0    0    0 -0.00000000000E+00 -0.00000000000E+00 -0.45593999997E+02  0.45594000000E+02  0.51100000000E-03 0. -1.
    9900012    2    1    2    0    0  0.17808960167E+02  0.22248666446E+02  0.32733177655E+02  0.47787272584E+02  0.20000007021E+02 0.  0.
         12    1    1    2    0    0 -0.17808960167E+02 -0.22248666446E+02 -0.32733177655E+02  0.43400727416E+02  0.00000000000E+00 0. -1.
         11    1    3    3    0    0  0.53751309959E+01  0.10247113396E+02  0.69524757923E+01  0.13499343913E+02  0.51100000000E-03 0. -1.
        -11    1    3    3    0    0 -0.22129058788E+01 -0.23861704028E+00  0.19681874711E-01  0.22258207830E+01  0.51100000000E-03 0.  1.
        -12    1    3    3    0    0  0.14646735050E+02  0.12240170091E+02  0.25761019988E+02  0.32062107889E+02  0.00000000000E+00 0.  1.
</event>
<event>
 7    1  0.4875579E-009  0.4778727E+02  0.7816164E-02  0.1312668E+00
        -11   -1    0    0    0    0  0.00000000000E+00  0.00000000000E+00  0.45593999997E+02  0.45594000000E+02  0.51100000000E-03 0.  1.
         11   -1    0    0    0    0 -0.00000000000E+00 -0.00000000000E+00 -0.45593999997E+02  0.45594000000E+02  0.51100000000E-03 0. -1.
    9900012    2    1    2    0    0 -0.30218991967E+02  0.24122615713E+02 -0.19711288624E+02  0.47787274619E+02  0.20000016299E+02 0.  0.
         12    1    1    2    0    0  0.30218991967E+02 -0.24122615713E+02  0.19711288624E+02  0.43400725381E+02  0.00000000000E+00 0. -1.
         11    1    3    3    0    0 -0.69468370222E+01  0.11276123611E+02 -0.20313728707E+01  0.13399103862E+02  0.51100000000E-03 0. -1.
        -11    1    3    3    0    0 -0.95531798252E+01  0.23577452833E+01 -0.23695103417E+00  0.98426802065E+01  0.51100000000E-03 0.  1.
        -12    1    3    3    0    0 -0.13718975120E+02  0.10488746818E+02 -0.17442964719E+02  0.24545490551E+02  0.00000000000E+00 0.  1.
</event>
<event>
 7    1  0.4875579E-009  0.4778727E+02  0.7816164E-02  0.1312668E+00
        -11   -1    0    0    0    0  0.00000000000E+00  0.00000000000E+00  0.45593999997E+02  0.45594000000E+02  0.51100000000E-03 0. -1.
         11   -1    0    0    0    0 -0.00000000000E+00 -0.00000000000E+00 -0.45593999997E+02  0.45594000000E+02  0.51100000000E-03 0.  1.
    9900012    2    1    2    0    0 -0.19210053497E+02  0.18614195450E+02 -0.34177606015E+02  0.47787272120E+02  0.20000004904E+02 0.  0.
         12    1    1    2    0    0  0.19210053497E+02 -0.18614195450E+02  0.34177606015E+02  0.43400727880E+02  0.00000000000E+00 0. -1.
         11    1    3    3    0    0 -0.95206145458E+01  0.37302332554E+01 -0.67217581852E+01  0.12236779594E+02  0.51100000000E-03 0. -1.
        -11    1    3    3    0    0 -0.13104997665E+02  0.95556272901E+01 -0.18833692764E+02  0.24854757293E+02  0.51100000000E-03 0.  1.
         12    1    3    3    0    0  0.34155587145E+01  0.53283349049E+01 -0.86221550656E+01  0.10695735233E+02  0.00000000000E+00 0. -1.
</event>
<event>
 7    1  0.4875579E-009  0.4778727E+02  0.7816164E-02  0.1312668E+00
        -11   -1    0    0    0    0  0.00000000000E+00  0.00000000000E+00  0.45593999997E+02  0.45594000000E+02  0.51100000000E-03 0.  1.
         11   -1    0    0    0    0 -0.00000000000E+00 -0.00000000000E+00 -0.45593999997E+02  0.45594000000E+02  0.51100000000E-03 0. -1.
    9900012    2    1    2    0    0 -0.28396812625E+02  0.72646356430E+01  0.32007331597E+02  0.47787272192E+02  0.20000005233E+02 0.  0.
         12    1    1    2    0    0  0.28396812625E+02 -0.72646356430E+01 -0.32007331597E+02  0.43400727808E+02  0.00000000000E+00 0. -1.
         11    1    3    3    0    0 -0.25736943634E+00 -0.37292360087E+01  0.30266920524E+01  0.48098134347E+01  0.51100000000E-03 0. -1.
        -11    1    3    3    0    0 -0.36341423800E+01  0.12122566841E+01  0.63263845468E-01  0.38315218493E+01  0.51100000000E-03 0.  1.
        -12    1    3    3    0    0 -0.24505300809E+02  0.97816149676E+01  0.28917375699E+02  0.39145936908E+02  0.00000000000E+00 0.  1.
</event>
<event>
 7    1  0.4875579E-009  0.4778727E+02  0.7816164E-02  0.1312668E+00
        -11   -1    0    0    0    0  0.00000000000E+00  0.00000000000E+00  0.45593999997E+02  0.45594000000E+02  0.51100000000E-03 0.  1.
         11   -1    0    0    0    0 -0.00000000000E+00 -0.00000000000E+00 -0.45593999997E+02  0.45594000000E+02  0.51100000000E-03 0. -1.
    9900012    2    1    2    0    0 -0.95258653984E+01 -0.17474003394E+02  0.38568644308E+02  0.47787271550E+02  0.20000002306E+02 0.  0.
         12    1    1    2    0    0  0.95258653984E+01  0.17474003394E+02 -0.38568644308E+02  0.43400728450E+02  0.00000000000E+00 0. -1.
         11    1    3    3    0    0 -0.97652223813E+01 -0.15217986751E+02  0.29240681802E+02  0.34379705662E+02  0.51100000000E-03 0. -1.
        -11    1    3    3    0    0  0.17715079647E+01 -0.55870428485E+01  0.66680434992E+01  0.88778427914E+01  0.51100000000E-03 0.  1.
        -12    1    3    3    0    0 -0.15321509817E+01  0.33310262053E+01  0.26599190067E+01  0.45297230967E+01  0.00000000000E+00 0.  1.
</event>
<event>
 7    1  0.4875579E-009  0.4778726E+02  0.7816164E-02  0.1312668E+00
        -11   -1    0    0    0    0  0.00000000000E+00  0.00000000000E+00  0.45593999997E+02  0.45594000000E+02  0.51100000000E-03 0. -1.
         11   -1    0    0    0    0 -0.00000000000E+00 -0.00000000000E+00 -0.45593999997E+02  0.45594000000E+02  0.51100000000E-03 0.  1.
    9900012    2    1    2    0    0 -0.15430196209E+02 -0.39704148984E+02 -0.83134769141E+01  0.47787259222E+02  0.19999946099E+02 0.  0.
         12    1    1    2    0    0  0.15430196209E+02  0.39704148984E+02  0.83134769141E+01  0.43400740778E+02  0.00000000000E+00 0. -1.
         11    1    3    3    0    0  0.62975506534E+00 -0.14329088953E+01 -0.29247443138E+01  0.33172200570E+01  0.51100000000E-03 0. -1.
        -11    1    3    3    0    0 -0.96587377417E+01 -0.14317675527E+02 -0.88987206171E+01  0.19428697232E+02  0.51100000000E-03 0.  1.
        -12    1    3    3    0    0 -0.64012135331E+01 -0.23953564562E+02  0.35099880168E+01  0.25041341933E+02  0.00000000000E+00 0.  1.
</event>
<event>
 7    1  0.4875579E-009  0.4778728E+02  0.7816164E-02  0.1312668E+00
        -11   -1    0    0    0    0  0.00000000000E+00  0.00000000000E+00  0.45593999997E+02  0.45594000000E+02  0.51100000000E-03 0.  1.
         11   -1    0    0    0    0 -0.00000000000E+00 -0.00000000000E+00 -0.45593999997E+02  0.45594000000E+02  0.51100000000E-03 0. -1.
    9900012    2    1    2    0    0 -0.34560569997E+02 -0.13476499406E+02  0.22529389209E+02  0.47787280964E+02  0.20000045226E+02 0.  0.
         12    1    1    2    0    0  0.34560569997E+02  0.13476499406E+02 -0.22529389209E+02  0.43400719036E+02  0.00000000000E+00 0. -1.
         11    1    3    3    0    0 -0.21708976348E+02 -0.77362585605E+01  0.41150898695E+01  0.23410752134E+02  0.51100000000E-03 0. -1.
        -11    1    3    3    0    0 -0.11707062669E+02 -0.73535432371E+01  0.14774903691E+02  0.20234319702E+02  0.51100000000E-03 0.  1.
        -12    1    3    3    0    0 -0.11445309803E+01  0.16133023914E+01  0.36393956486E+01  0.41422091278E+01  0.00000000000E+00 0.  1.
</event>
<event>
 7    1  0.4875579E-009  0.4778729E+02  0.7816164E-02  0.1312668E+00
        -11   -1    0    0    0    0  0.00000000000E+00  0.00000000000E+00  0.45593999997E+02  0.45594000000E+02  0.51100000000E-03 0.  1.
         11   -1    0    0    0    0 -0.00000000000E+00 -0.00000000000E+00 -0.45593999997E+02  0.45594000000E+02  0.51100000000E-03 0. -1.
    9900012    2    1    2    0    0 -0.23616508938E+02  0.68464449719E+01  0.35763224306E+02  0.47787291297E+02  0.20000092339E+02 0.  0.
         12    1    1    2    0    0  0.23616508938E+02 -0.68464449719E+01 -0.35763224306E+02  0.43400708703E+02  0.00000000000E+00 0. -1.
         11    1    3    3    0    0 -0.96922916074E+01  0.73093769480E+01  0.19178140519E+02  0.22697325437E+02  0.51100000000E-03 0.  1.
        -11    1    3    3    0    0 -0.15220272442E+01  0.36592409705E+01  0.93417604958E+01  0.10147664797E+02  0.51100000000E-03 0. -1.
        -12    1    3    3    0    0 -0.12402190087E+02 -0.41221729467E+01  0.72433232909E+01  0.14942301063E+02  0.00000000000E+00 0.  1.
</event>
<event>
 7    1  0.4875579E-009  0.4778727E+02  0.7816164E-02  0.1312668E+00
        -11   -1    0    0    0    0  0.00000000000E+00  0.00000000000E+00  0.45593999997E+02  0.45594000000E+02  0.51100000000E-03 0.  1.
         11   -1    0    0    0    0 -0.00000000000E+00 -0.00000000000E+00 -0.45593999997E+02  0.45594000000E+02  0.51100000000E-03 0. -1.
    9900012    2    1    2    0    0 -0.36309650206E+02 -0.13269894326E+02  0.19726694053E+02  0.47787271299E+02  0.20000001160E+02 0.  0.
         12    1    1    2    0    0  0.36309650206E+02  0.13269894326E+02 -0.19726694053E+02  0.43400728701E+02  0.00000000000E+00 0. -1.
         11    1    3    3    0    0 -0.56051082298E+01  0.57819713667E+00  0.83862342328E+01  0.10103488262E+02  0.51100000000E-03 0. -1.
        -11    1    3    3    0    0 -0.16852551831E+02 -0.11498249169E+02  0.11908029638E+02  0.23622434407E+02  0.51100000000E-03 0.  1.
         12    1    3    3    0    0 -0.13851990145E+02 -0.23498422940E+01 -0.56756981804E+00  0.14061348630E+02  0.00000000000E+00 0. -1.
</event>
<event>
 7    1  0.4875579E-009  0.4778727E+02  0.7816164E-02  0.1312668E+00
        -11   -1    0    0    0    0  0.00000000000E+00  0.00000000000E+00  0.45593999997E+02  0.45594000000E+02  0.51100000000E-03 0.  1.
         11   -1    0    0    0    0 -0.00000000000E+00 -0.00000000000E+00 -0.45593999997E+02  0.45594000000E+02  0.51100000000E-03 0. -1.
    9900012    2    1    2    0    0  0.23454994380E+02 -0.21604922063E+02  0.29440004936E+02  0.47787270636E+02  0.19999998140E+02 0.  0.
         12    1    1    2    0    0 -0.23454994380E+02  0.21604922063E+02 -0.29440004936E+02  0.43400729364E+02  0.00000000000E+00 0. -1.
         11    1    3    3    0    0  0.89117367811E+01 -0.82341842099E+01  0.16436656295E+02  0.20429990516E+02  0.51100000000E-03 0. -1.
        -11    1    3    3    0    0  0.15536692581E+02 -0.90293454620E+01  0.14016468475E+02  0.22789894353E+02  0.51100000000E-03 0.  1.
         12    1    3    3    0    0 -0.99343498279E+00 -0.43413923906E+01 -0.10131198341E+01  0.45673857679E+01  0.00000000000E+00 0. -1.
</event>
<event>
 7    1  0.4875579E-009  0.4778727E+02  0.7816164E-02  0.1312668E+00
        -11   -1    0    0    0    0  0.00000000000E+00  0.00000000000E+00  0.45593999997E+02  0.45594000000E+02  0.51100000000E-03 0.  1.
         11   -1    0    0    0    0 -0.00000000000E+00 -0.00000000000E+00 -0.45593999997E+02  0.45594000000E+02  0.51100000000E-03 0. -1.
    9900012    2    1    2    0    0 -0.94921451007E+01 -0.42028520836E+02 -0.52082425955E+01  0.47787272204E+02  0.20000005286E+02 0.  0.
         12    1    1    2    0    0  0.94921451007E+01  0.42028520836E+02  0.52082425955E+01  0.43400727796E+02  0.00000000000E+00 0. -1.
         11    1    3    3    0    0  0.10036587448E+01 -0.16592441007E+01 -0.32802887085E+01  0.38106057437E+01  0.51100000000E-03 0. -1.
        -11    1    3    3    0    0 -0.81227209272E+01 -0.11947011632E+02 -0.50068327444E+01  0.15289802372E+02  0.51100000000E-03 0.  1.
        -12    1    3    3    0    0 -0.23730829183E+01 -0.28422265104E+02  0.30788788573E+01  0.28686864088E+02  0.00000000000E+00 0.  1.
</event>
<event>
 7    1  0.4875579E-009  0.4778727E+02  0.7816164E-02  0.1312668E+00
        -11   -1    0    0    0    0  0.00000000000E+00  0.00000000000E+00  0.45593999997E+02  0.45594000000E+02  0.51100000000E-03 0.  1.
         11   -1    0    0    0    0 -0.00000000000E+00 -0.00000000000E+00 -0.45593999997E+02  0.45594000000E+02  0.51100000000E-03 0. -1.
    9900012    2    1    2    0    0  0.34419824904E+02  0.22936220907E+02  0.13146438201E+02  0.47787269439E+02  0.19999992678E+02 0.  0.
         12    1    1    2    0    0 -0.34419824904E+02 -0.22936220907E+02 -0.13146438201E+02  0.43400730561E+02  0.00000000000E+00 0. -1.
         11    1    3    3    0    0  0.11852113244E+01 -0.71500272921E+00 -0.29320132906E+01  0.32423227760E+01  0.51100000000E-03 0. -1.
        -11    1    3    3    0    0  0.29539410761E+01  0.50079106278E+01  0.37033086624E+01  0.68934339808E+01  0.51100000000E-03 0.  1.
        -12    1    3    3    0    0  0.30280672503E+02  0.18643313008E+02  0.12375142829E+02  0.37651512682E+02  0.00000000000E+00 0.  1.
</event>
<event>
 7    1  0.4875579E-009  0.4778727E+02  0.7816164E-02  0.1312668E+00
        -11   -1    0    0    0    0  0.00000000000E+00  0.00000000000E+00  0.45593999997E+02  0.45594000000E+02  0.51100000000E-03 0.  1.
         11   -1    0    0    0    0 -0.00000000000E+00 -0.00000000000E+00 -0.45593999997E+02  0.45594000000E+02  0.51100000000E-03 0. -1.
    9900012    2    1    2    0    0 -0.91301777593E+01  0.43408073441E+01  0.42206875831E+02  0.47787272797E+02  0.20000007991E+02 0.  0.
         12    1    1    2    0    0  0.91301777593E+01 -0.43408073441E+01 -0.42206875831E+02  0.43400727203E+02  0.00000000000E+00 0. -1.
         11    1    3    3    0    0  0.15521129542E+01  0.41995598023E+01  0.21086751913E+02  0.21556819423E+02  0.51100000000E-03 0. -1.
        -11    1    3    3    0    0 -0.72356540113E+01 -0.33832579248E+00  0.21540037245E+02  0.22725368162E+02  0.51100000000E-03 0.  1.
         12    1    3    3    0    0 -0.34466367022E+01  0.47957333433E+00 -0.41991332672E+00  0.35050852118E+01  0.00000000000E+00 0. -1.
</event>
<event>
 7    1  0.4875579E-009  0.4778732E+02  0.7816164E-02  0.1312668E+00
        -11   -1    0    0    0    0  0.00000000000E+00  0.00000000000E+00  0.45593999997E+02  0.45594000000E+02  0.51100000000E-03 0.  1.
         11   -1    0    0    0    0 -0.00000000000E+00 -0.00000000000E+00 -0.45593999997E+02  0.45594000000E+02  0.51100000000E-03 0. -1.
    9900012    2    1    2    0    0 -0.24840467939E+02 -0.23371615077E+02  0.26839111072E+02  0.47787318878E+02  0.20000218091E+02 0.  0.
         12    1    1    2    0    0  0.24840467939E+02  0.23371615077E+02 -0.26839111072E+02  0.43400681122E+02  0.00000000000E+00 0. -1.
         11    1    3    3    0    0 -0.43929451013E+01 -0.46577115356E+01  0.99149517047E+00  0.64788352615E+01  0.51100000000E-03 0. -1.
        -11    1    3    3    0    0 -0.18570724239E+02 -0.13615115006E+02  0.11042341305E+02  0.25537745733E+02  0.51100000000E-03 0.  1.
         12    1    3    3    0    0 -0.18767985994E+01 -0.50987885352E+01  0.14805274596E+02  0.15770737883E+02  0.00000000000E+00 0. -1.
</event>
<event>
 7    1  0.4875579E-009  0.4778726E+02  0.7816164E-02  0.1312668E+00
        -11   -1    0    0    0    0  0.00000000000E+00  0.00000000000E+00  0.45593999997E+02  0.45594000000E+02  0.51100000000E-03 0.  1.
         11   -1    0    0    0    0 -0.00000000000E+00 -0.00000000000E+00 -0.45593999997E+02  0.45594000000E+02  0.51100000000E-03 0. -1.
    9900012    2    1    2    0    0  0.21779975613E+02  0.35488636134E+02  0.12239848704E+02  0.47787256589E+02  0.19999934091E+02 0.  0.
         12    1    1    2    0    0 -0.21779975613E+02 -0.35488636134E+02 -0.12239848704E+02  0.43400743411E+02  0.00000000000E+00 0. -1.
         11    1    3    3    0    0  0.50825775298E+01  0.10919541719E+01  0.26298316441E+01  0.58258881725E+01  0.51100000000E-03 0. -1.
        -11    1    3    3    0    0  0.45570730323E+01  0.18199028103E+02  0.10865433732E+02  0.21680156572E+02  0.51100000000E-03 0.  1.
         12    1    3    3    0    0  0.12140325051E+02  0.16197653859E+02 -0.12554166724E+01  0.20281211845E+02  0.00000000000E+00 0. -1.
</event>
<event>
 7    1  0.4875579E-009  0.4778734E+02  0.7816164E-02  0.1312667E+00
        -11   -1    0    0    0    0  0.00000000000E+00  0.00000000000E+00  0.45593999997E+02  0.45594000000E+02  0.51100000000E-03 0.  1.
         11   -1    0    0    0    0 -0.00000000000E+00 -0.00000000000E+00 -0.45593999997E+02  0.45594000000E+02  0.51100000000E-03 0. -1.
    9900012    2    1    2    0    0 -0.33502828657E+02  0.10150358889E+02  0.25654403050E+02  0.47787335150E+02  0.20000292279E+02 0.  0.
         12    1    1    2    0    0  0.33502828657E+02 -0.10150358889E+02 -0.25654403050E+02  0.43400664850E+02  0.00000000000E+00 0. -1.
         11    1    3    3    0    0  0.20390065668E+00 -0.29078003227E+00 -0.44195327961E+00  0.56696690154E+00  0.51100000000E-03 0. -1.
        -11    1    3    3    0    0 -0.23438672497E+02  0.15270115669E+02  0.19434262934E+02  0.34062272047E+02  0.51100000000E-03 0.  1.
        -12    1    3    3    0    0 -0.10268056817E+02 -0.48289767476E+01  0.66620933961E+01  0.13158096201E+02  0.00000000000E+00 0.  1.
</event>
<event>
 7    1  0.4875579E-009  0.4778726E+02  0.7816164E-02  0.1312668E+00
        -11   -1    0    0    0    0  0.00000000000E+00  0.00000000000E+00  0.45593999997E+02  0.45594000000E+02  0.51100000000E-03 0.  1.
         11   -1    0    0    0    0 -0.00000000000E+00 -0.00000000000E+00 -0.45593999997E+02  0.45594000000E+02  0.51100000000E-03 0. -1.
    9900012    2    1    2    0    0 -0.10203235516E+02  0.34767542005E+02  0.23890080226E+02  0.47787263540E+02  0.19999965784E+02 0.  0.
         12    1    1    2    0    0  0.10203235516E+02 -0.34767542005E+02 -0.23890080226E+02  0.43400736460E+02  0.00000000000E+00 0. -1.
         11    1    3    3    0    0  0.26232940883E+01  0.10715040197E+02  0.64812586560E+01  0.12794548539E+02  0.51100000000E-03 0. -1.
        -11    1    3    3    0    0 -0.16642147060E+01  0.23875809258E+01  0.85985307964E+01  0.90777136650E+01  0.51100000000E-03 0.  1.
         12    1    3    3    0    0 -0.11162314898E+02  0.21664920883E+02  0.88102907735E+01  0.25915001336E+02  0.00000000000E+00 0. -1.
</event>
<event>
 7    1  0.4875579E-009  0.4778727E+02  0.7816164E-02  0.1312668E+00
        -11   -1    0    0    0    0  0.00000000000E+00  0.00000000000E+00  0.45593999997E+02  0.45594000000E+02  0.51100000000E-03 0. -1.
         11   -1    0    0    0    0 -0.00000000000E+00 -0.00000000000E+00 -0.45593999997E+02  0.45594000000E+02  0.51100000000E-03 0.  1.
    9900012    2    1    2    0    0 -0.28094000058E+02  0.50126223590E+01 -0.32698992319E+02  0.47787270503E+02  0.19999997531E+02 0.  0.
         12    1    1    2    0    0  0.28094000058E+02 -0.50126223590E+01  0.32698992319E+02  0.43400729497E+02  0.00000000000E+00 0. -1.
         11    1    3    3    0    0 -0.26267469165E+01  0.27808751408E+01 -0.87366046652E+01  0.95373647959E+01  0.51100000000E-03 0. -1.
        -11    1    3    3    0    0 -0.10388739098E+02 -0.62391933090E+01 -0.13005146898E+02  0.17776031033E+02  0.51100000000E-03 0.  1.
         12    1    3    3    0    0 -0.15078514044E+02  0.84709405272E+01 -0.10957240756E+02  0.20473874674E+02  0.00000000000E+00 0. -1.
</event>
<event>
 7    1  0.4875579E-009  0.4778726E+02  0.7816164E-02  0.1312668E+00
        -11   -1    0    0    0    0  0.00000000000E+00  0.00000000000E+00  0.45593999997E+02  0.45594000000E+02  0.51100000000E-03 0.  1.
         11   -1    0    0    0    0 -0.00000000000E+00 -0.00000000000E+00 -0.45593999997E+02  0.45594000000E+02  0.51100000000E-03 0. -1.
    9900012    2    1    2    0    0  0.26887546245E+02  0.29925188755E+02  0.16283951950E+02  0.47787260880E+02  0.19999953656E+02 0.  0.
         12    1    1    2    0    0 -0.26887546245E+02 -0.29925188755E+02 -0.16283951950E+02  0.43400739120E+02  0.00000000000E+00 0. -1.
         11    1    3    3    0    0  0.12228785009E+02  0.10265258946E+02  0.20980366175E+01  0.16103430750E+02  0.51100000000E-03 0. -1.
        -11    1    3    3    0    0 -0.92612319466E+00  0.27794036301E+01 -0.20286902735E+01  0.35634776830E+01  0.51100000000E-03 0.  1.
        -12    1    3    3    0    0  0.15584884430E+02  0.16880526179E+02  0.16214605606E+02  0.28120352447E+02  0.00000000000E+00 0.  1.
</event>
<event>
 7    1  0.4875579E-009  0.4778727E+02  0.7816164E-02  0.1312668E+00
        -11   -1    0    0    0    0  0.00000000000E+00  0.00000000000E+00  0.45593999997E+02  0.45594000000E+02  0.51100000000E-03 0. -1.
         11   -1    0    0    0    0 -0.00000000000E+00 -0.00000000000E+00 -0.45593999997E+02  0.45594000000E+02  0.51100000000E-03 0.  1.
    9900012    2    1    2    0    0 -0.19474243973E+02 -0.38008862888E+02  0.77267998889E+01  0.47787271056E+02  0.20000000052E+02 0.  0.
         12    1    1    2    0    0  0.19474243973E+02  0.38008862888E+02 -0.77267998889E+01  0.43400728944E+02  0.00000000000E+00 0. -1.
         11    1    3    3    0    0 -0.31690040076E+01 -0.16344832709E+02 -0.99447371733E+00  0.16678882484E+02  0.51100000000E-03 0. -1.
        -11    1    3    3    0    0  0.60456164624E-01 -0.93947070872E+01  0.31526117763E+01  0.99097496172E+01  0.51100000000E-03 0.  1.
        -12    1    3    3    0    0 -0.16365696130E+02 -0.12269323092E+02  0.55686618299E+01  0.21198638954E+02  0.00000000000E+00 0.  1.
</event>
<event>
 7    1  0.4875579E-009  0.4778727E+02  0.7816164E-02  0.1312668E+00
        -11   -1    0    0    0    0  0.00000000000E+00  0.00000000000E+00  0.45593999997E+02  0.45594000000E+02  0.51100000000E-03 0.  1.
         11   -1    0    0    0    0 -0.00000000000E+00 -0.00000000000E+00 -0.45593999997E+02  0.45594000000E+02  0.51100000000E-03 0. -1.
    9900012    2    1    2    0    0  0.40899844706E+02  0.14496597039E+02 -0.82128509887E+00  0.47787272680E+02  0.20000007459E+02 0.  0.
         12    1    1    2    0    0 -0.40899844706E+02 -0.14496597039E+02  0.82128509887E+00  0.43400727320E+02  0.00000000000E+00 0. -1.
         11    1    3    3    0    0  0.16615897510E+02  0.57618236894E+00  0.17892405860E+01  0.16721884413E+02  0.51100000000E-03 0. -1.
        -11    1    3    3    0    0  0.12642777687E+02  0.12511127683E+01 -0.50821045319E+01  0.13683307258E+02  0.51100000000E-03 0.  1.
        -12    1    3    3    0    0  0.11641169509E+02  0.12669301902E+02  0.24715788471E+01  0.17382081010E+02  0.00000000000E+00 0.  1.
</event>
<event>
 7    1  0.4875579E-009  0.4778727E+02  0.7816164E-02  0.1312668E+00
        -11   -1    0    0    0    0  0.00000000000E+00  0.00000000000E+00  0.45593999997E+02  0.45594000000E+02  0.51100000000E-03 0.  1.
         11   -1    0    0    0    0 -0.00000000000E+00 -0.00000000000E+00 -0.45593999997E+02  0.45594000000E+02  0.51100000000E-03 0. -1.
    9900012    2    1    2    0    0 -0.16476449908E+02 -0.26222117820E+02  0.30406422246E+02  0.47787269841E+02  0.19999994513E+02 0.  0.
         12    1    1    2    0    0  0.16476449908E+02  0.26222117820E+02 -0.30406422246E+02  0.43400730159E+02  0.00000000000E+00 0. -1.
         11    1    3    3    0    0 -0.58022656170E+01 -0.97363715102E+01  0.21839361188E+02  0.24605302555E+02  0.51100000000E-03 0. -1.
        -11    1    3    3    0    0 -0.87147588310E+01 -0.98462950033E+01  0.94651486500E+01  0.16201406914E+02  0.51100000000E-03 0.  1.
         12    1    3    3    0    0 -0.19594254600E+01 -0.66394513062E+01 -0.89808759141E+00  0.69805603717E+01  0.00000000000E+00 0. -1.
</event>
<event>
 7    1  0.4875579E-009  0.4778726E+02  0.7816164E-02  0.1312668E+00
        -11   -1    0    0    0    0  0.00000000000E+00  0.00000000000E+00  0.45593999997E+02  0.45594000000E+02  0.51100000000E-03 0.  1.
         11   -1    0    0    0    0 -0.00000000000E+00 -0.00000000000E+00 -0.45593999997E+02  0.45594000000E+02  0.51100000000E-03 0. -1.
    9900012    2    1    2    0    0  0.21537816626E+02 -0.16277315036E+02  0.33982285005E+02  0.47787260099E+02  0.19999950097E+02 0.  0.
         12    1    1    2    0    0 -0.21537816626E+02  0.16277315036E+02 -0.33982285005E+02  0.43400739901E+02  0.00000000000E+00 0. -1.
         11    1    3    3    0    0  0.19354235256E+02 -0.41395555886E+01  0.15285625853E+02  0.25007452904E+02  0.51100000000E-03 0. -1.
        -11    1    3    3    0    0  0.58068520462E+00 -0.17881000335E+01  0.79829040783E+00  0.20424898709E+01  0.51100000000E-03 0.  1.
        -12    1    3    3    0    0  0.16028961659E+01 -0.10349659414E+02  0.17898368744E+02  0.20737317324E+02  0.00000000000E+00 0.  1.
</event>
<event>
 7    1  0.4875579E-009  0.4778727E+02  0.7816164E-02  0.1312668E+00
        -11   -1    0    0    0    0  0.00000000000E+00  0.00000000000E+00  0.45593999997E+02  0.45594000000E+02  0.51100000000E-03 0.  1.
         11   -1    0    0    0    0 -0.00000000000E+00 -0.00000000000E+00 -0.45593999997E+02  0.45594000000E+02  0.51100000000E-03 0. -1.
    9900012    2    1    2    0    0  0.17822083889E+02  0.25510952930E+02  0.30252072403E+02  0.47787270994E+02  0.19999999772E+02 0.  0.
         12    1    1    2    0    0 -0.17822083889E+02 -0.25510952930E+02 -0.30252072403E+02  0.43400729006E+02  0.00000000000E+00 0. -1.
         11    1    3    3    0    0  0.46251101464E+01  0.11773883032E+02  0.10183349944E+02  0.16239352877E+02  0.51100000000E-03 0. -1.
        -11    1    3    3    0    0  0.13310159502E+02  0.77413435398E+01  0.20380328613E+02  0.25543033109E+02  0.51100000000E-03 0.  1.
         12    1    3    3    0    0 -0.11318575905E+00  0.59957263577E+01 -0.31160615365E+00  0.60048850087E+01  0.00000000000E+00 0. -1.
</event>
<event>
 7    1  0.4875579E-009  0.4778727E+02  0.7816164E-02  0.1312668E+00
        -11   -1    0    0    0    0  0.00000000000E+00  0.00000000000E+00  0.45593999997E+02  0.45594000000E+02  0.51100000000E-03 0.  1.
         11   -1    0    0    0    0 -0.00000000000E+00 -0.00000000000E+00 -0.45593999997E+02  0.45594000000E+02  0.51100000000E-03 0. -1.
    9900012    2    1    2    0    0 -0.28672547196E+02  0.94461030822E+00  0.32567098590E+02  0.47787272334E+02  0.20000005880E+02 0.  0.
         12    1    1    2    0    0  0.28672547196E+02 -0.94461030822E+00 -0.32567098590E+02  0.43400727666E+02  0.00000000000E+00 0. -1.
         11    1    3    3    0    0 -0.17448173124E+02 -0.86166670644E+01  0.21437478826E+02  0.28952568027E+02  0.51100000000E-03 0. -1.
        -11    1    3    3    0    0 -0.16731939799E+01  0.16921729785E-01  0.94397623358E+00  0.19211860477E+01  0.51100000000E-03 0.  1.
        -12    1    3    3    0    0 -0.95511800921E+01  0.95443556428E+01  0.10185643531E+02  0.16913518260E+02  0.00000000000E+00 0.  1.
</event>
<event>
 7    1  0.4875579E-009  0.4778728E+02  0.7816164E-02  0.1312668E+00
        -11   -1    0    0    0    0  0.00000000000E+00  0.00000000000E+00  0.45593999997E+02  0.45594000000E+02  0.51100000000E-03 0.  1.
         11   -1    0    0    0    0 -0.00000000000E+00 -0.00000000000E+00 -0.45593999997E+02  0.45594000000E+02  0.51100000000E-03 0. -1.
    9900012    2    1    2    0    0 -0.16200326275E+02 -0.25837264372E+01  0.40180799316E+02  0.47787275957E+02  0.20000022400E+02 0.  0.
         12    1    1    2    0    0  0.16200326275E+02  0.25837264372E+01 -0.40180799316E+02  0.43400724043E+02  0.00000000000E+00 0. -1.
         11    1    3    3    0    0 -0.53373965514E+01  0.39775593571E+01  0.15708152013E+02  0.17060328845E+02  0.51100000000E-03 0. -1.
        -11    1    3    3    0    0 -0.36476856145E+01  0.41180310603E+01  0.54055971601E+01  0.77126046880E+01  0.51100000000E-03 0.  1.
         12    1    3    3    0    0 -0.72152441096E+01 -0.10679316855E+02  0.19067050143E+02  0.23014342424E+02  0.00000000000E+00 0. -1.
</event>
<event>
 7    1  0.4875579E-009  0.4778729E+02  0.7816164E-02  0.1312668E+00
        -11   -1    0    0    0    0  0.00000000000E+00  0.00000000000E+00  0.45593999997E+02  0.45594000000E+02  0.51100000000E-03 0. -1.
         11   -1    0    0    0    0 -0.00000000000E+00 -0.00000000000E+00 -0.45593999997E+02  0.45594000000E+02  0.51100000000E-03 0.  1.
    9900012    2    1    2    0    0  0.15124315491E+02  0.65691017733E+01 -0.40146281457E+02  0.47787286503E+02  0.20000070483E+02 0.  0.
         12    1    1    2    0    0 -0.15124315491E+02 -0.65691017733E+01  0.40146281457E+02  0.43400713497E+02  0.00000000000E+00 0. -1.
         11    1    3    3    0    0  0.87567113443E+01  0.10449723849E+01 -0.21731916895E+02  0.23453105830E+02  0.51100000000E-03 0. -1.
        -11    1    3    3    0    0  0.79793310332E+01  0.12243655797E+01 -0.17995440504E+02  0.19723201414E+02  0.51100000000E-03 0.  1.
         12    1    3    3    0    0 -0.16117268865E+01  0.42997638087E+01 -0.41892405747E+00  0.46109792596E+01  0.00000000000E+00 0. -1.
</event>
<event>
 7    1  0.4875579E-009  0.4778728E+02  0.7816164E-02  0.1312668E+00
        -11   -1    0    0    0    0  0.00000000000E+00  0.00000000000E+00  0.45593999997E+02  0.45594000000E+02  0.51100000000E-03 0.  1.
         11   -1    0    0    0    0 -0.00000000000E+00 -0.00000000000E+00 -0.45593999997E+02  0.45594000000E+02  0.51100000000E-03 0. -1.
    9900012    2    1    2    0    0 -0.10344669850E+02  0.29511419597E+02  0.30094624147E+02  0.47787280150E+02  0.20000041515E+02 0.  0.
         12    1    1    2    0    0  0.10344669850E+02 -0.29511419597E+02 -0.30094624147E+02  0.43400719850E+02  0.00000000000E+00 0. -1.
         11    1    3    3    0    0 -0.48330979133E+00  0.70772708324E+00  0.58167950850E+01  0.58795893820E+01  0.51100000000E-03 0. -1.
        -11    1    3    3    0    0 -0.99037144225E+01  0.20503384308E+02  0.24703133330E+02  0.33596385580E+02  0.51100000000E-03 0.  1.
         12    1    3    3    0    0  0.42354363966E-01  0.83003082059E+01 -0.42530426805E+00  0.83113051878E+01  0.00000000000E+00 0. -1.
</event>
<event>
 7    1  0.4875579E-009  0.4778728E+02  0.7816164E-02  0.1312668E+00
        -11   -1    0    0    0    0  0.00000000000E+00  0.00000000000E+00  0.45593999997E+02  0.45594000000E+02  0.51100000000E-03 0. -1.
         11   -1    0    0    0    0 -0.00000000000E+00 -0.00000000000E+00 -0.45593999997E+02  0.45594000000E+02  0.51100000000E-03 0.  1.
    9900012    2    1    2    0    0  0.28012363474E+02 -0.78920826490E+01 -0.32196978261E+02  0.47787275524E+02  0.20000020424E+02 0.  0.
         12    1    1    2    0    0 -0.28012363474E+02  0.78920826490E+01  0.32196978261E+02  0.43400724476E+02  0.00000000000E+00 0. -1.
         11    1    3    3    0    0  0.13286475867E+02  0.40578908614E+00 -0.11890007976E+02  0.17834444081E+02  0.51100000000E-03 0. -1.
        -11    1    3    3    0    0  0.57126950402E+01  0.16003311035E+00 -0.15791286634E+02  0.16793606791E+02  0.51100000000E-03 0.  1.
        -12    1    3    3    0    0  0.90131925664E+01 -0.84579048455E+01 -0.45156836508E+01  0.13159224652E+02  0.00000000000E+00 0.  1.
</event>
<event>
 7    1  0.4875579E-009  0.4778727E+02  0.7816164E-02  0.1312668E+00
        -11   -1    0    0    0    0  0.00000000000E+00  0.00000000000E+00  0.45593999997E+02  0.45594000000E+02  0.51100000000E-03 0. -1.
         11   -1    0    0    0    0 -0.00000000000E+00 -0.00000000000E+00 -0.45593999997E+02  0.45594000000E+02  0.51100000000E-03 0.  1.
    9900012    2    1    2    0    0 -0.30646107773E+02  0.19684716816E+02 -0.23599820263E+02  0.47787268275E+02  0.19999987375E+02 0.  0.
         12    1    1    2    0    0  0.30646107773E+02 -0.19684716816E+02  0.23599820263E+02  0.43400731725E+02  0.00000000000E+00 0. -1.
         11    1    3    3    0    0 -0.14547230650E+02  0.13672097379E+02 -0.10339177354E+02  0.22482143023E+02  0.51100000000E-03 0. -1.
        -11    1    3    3    0    0 -0.15387426207E+02  0.90659566811E+01 -0.13131095958E+02  0.22167321379E+02  0.51100000000E-03 0.  1.
         12    1    3    3    0    0 -0.71145091673E+00 -0.30533372439E+01 -0.12954695142E+00  0.31378038728E+01  0.00000000000E+00 0. -1.
</event>
<event>
 7    1  0.4875579E-009  0.4778727E+02  0.7816164E-02  0.1312668E+00
        -11   -1    0    0    0    0  0.00000000000E+00  0.00000000000E+00  0.45593999997E+02  0.45594000000E+02  0.51100000000E-03 0. -1.
         11   -1    0    0    0    0 -0.00000000000E+00 -0.00000000000E+00 -0.45593999997E+02  0.45594000000E+02  0.51100000000E-03 0.  1.
    9900012    2    1    2    0    0 -0.49074289214E+01 -0.34720287949E+02  0.25574249482E+02  0.47787268549E+02  0.19999988624E+02 0.  0.
         12    1    1    2    0    0  0.49074289214E+01  0.34720287949E+02 -0.25574249482E+02  0.43400731451E+02  0.00000000000E+00 0. -1.
         11    1    3    3    0    0 -0.41223976085E+01 -0.67388039491E+01 -0.12953220530E+01  0.80052170607E+01  0.51100000000E-03 0. -1.
        -11    1    3    3    0    0  0.35806853575E+01 -0.15019751964E+02  0.11816172626E+02  0.19443152843E+02  0.51100000000E-03 0.  1.
        -12    1    3    3    0    0 -0.43657166704E+01 -0.12961732036E+02  0.15053398908E+02  0.20338898646E+02  0.00000000000E+00 0.  1.
</event>
<event>
 7    1  0.4875579E-009  0.4778727E+02  0.7816164E-02  0.1312668E+00
        -11   -1    0    0    0    0  0.00000000000E+00  0.00000000000E+00  0.45593999997E+02  0.45594000000E+02  0.51100000000E-03 0.  1.
         11   -1    0    0    0    0 -0.00000000000E+00 -0.00000000000E+00 -0.45593999997E+02  0.45594000000E+02  0.51100000000E-03 0. -1.
    9900012    2    1    2    0    0  0.12384855584E+02 -0.13081461729E+02  0.39485617951E+02  0.47787270584E+02  0.19999997903E+02 0.  0.
         12    1    1    2    0    0 -0.12384855584E+02  0.13081461729E+02 -0.39485617951E+02  0.43400729416E+02  0.00000000000E+00 0. -1.
         11    1    3    3    0    0  0.29942538962E+01 -0.93513030200E+01  0.67035730460E+01  0.11889083918E+02  0.51100000000E-03 0. -1.
        -11    1    3    3    0    0  0.30628904238E+01  0.43554643272E+00  0.10388133792E+01  0.32634539895E+01  0.51100000000E-03 0.  1.
        -12    1    3    3    0    0  0.63277112636E+01 -0.41657051417E+01  0.31743231526E+02  0.32634732677E+02  0.00000000000E+00 0.  1.
</event>
<event>
 7    1  0.4875579E-009  0.4778727E+02  0.7816164E-02  0.1312668E+00
        -11   -1    0    0    0    0  0.00000000000E+00  0.00000000000E+00  0.45593999997E+02  0.45594000000E+02  0.51100000000E-03 0.  1.
         11   -1    0    0    0    0 -0.00000000000E+00 -0.00000000000E+00 -0.45593999997E+02  0.45594000000E+02  0.51100000000E-03 0. -1.
    9900012    2    1    2    0    0 -0.30476779642E+02  0.20761597545E+02  0.22885485161E+02  0.47787268888E+02  0.19999990168E+02 0.  0.
         12    1    1    2    0    0  0.30476779642E+02 -0.20761597545E+02 -0.22885485161E+02  0.43400731112E+02  0.00000000000E+00 0. -1.
         11    1    3    3    0    0 -0.13851224271E+02  0.12372027919E+02  0.51290061053E+01  0.19267334858E+02  0.51100000000E-03 0. -1.
        -11    1    3    3    0    0 -0.11870795551E+02  0.72349957346E+01  0.48606710491E+01  0.14727086392E+02  0.51100000000E-03 0.  1.
         12    1    3    3    0    0 -0.47547598201E+01  0.11545738915E+01  0.12895808007E+02  0.13792847638E+02  0.00000000000E+00 0. -1.
</event>
<event>
 7    1  0.4875579E-009  0.4778727E+02  0.7816164E-02  0.1312668E+00
        -11   -1    0    0    0    0  0.00000000000E+00  0.00000000000E+00  0.45593999997E+02  0.45594000000E+02  0.51100000000E-03 0.  1.
         11   -1    0    0    0    0 -0.00000000000E+00 -0.00000000000E+00 -0.45593999997E+02  0.45594000000E+02  0.51100000000E-03 0. -1.
    9900012    2    1    2    0    0  0.11046253125E+02 -0.11882907771E+02  0.40254192332E+02  0.47787271832E+02  0.20000003589E+02 0.  0.
         12    1    1    2    0    0 -0.11046253125E+02  0.11882907771E+02 -0.40254192332E+02  0.43400728168E+02  0.00000000000E+00 0. -1.
         11    1    3    3    0    0  0.60399984492E+01  0.32255074411E+01  0.46645956900E+01  0.82851634101E+01  0.51100000000E-03 0. -1.
        -11    1    3    3    0    0  0.37542616465E+01 -0.40441896860E+01  0.77106319449E+01  0.94817612276E+01  0.51100000000E-03 0.  1.
        -12    1    3    3    0    0  0.12519930293E+01 -0.11064225527E+02  0.27878964697E+02  0.30020347194E+02  0.00000000000E+00 0.  1.
</event>
<event>
 7    1  0.4875579E-009  0.4778727E+02  0.7816164E-02  0.1312668E+00
        -11   -1    0    0    0    0  0.00000000000E+00  0.00000000000E+00  0.45593999997E+02  0.45594000000E+02  0.51100000000E-03 0.  1.
         11   -1    0    0    0    0 -0.00000000000E+00 -0.00000000000E+00 -0.45593999997E+02  0.45594000000E+02  0.51100000000E-03 0. -1.
    9900012    2    1    2    0    0  0.86634461239E+01 -0.35224537878E+02  0.23828557781E+02  0.47787268055E+02  0.19999986371E+02 0.  0.
         12    1    1    2    0    0 -0.86634461239E+01  0.35224537878E+02 -0.23828557781E+02  0.43400731945E+02  0.00000000000E+00 0. -1.
         11    1    3    3    0    0 -0.25405355469E+01 -0.11569503779E+02  0.91537360381E+01  0.14969923924E+02  0.51100000000E-03 0. -1.
        -11    1    3    3    0    0  0.12534909345E+00 -0.42323387965E+01  0.86953423826E+01  0.96714726643E+01  0.51100000000E-03 0.  1.
        -12    1    3    3    0    0  0.11078632577E+02 -0.19422695302E+02  0.59794793599E+01  0.23145871467E+02  0.00000000000E+00 0.  1.
</event>
<event>
 7    1  0.4875579E-009  0.4778727E+02  0.7816164E-02  0.1312668E+00
        -11   -1    0    0    0    0  0.00000000000E+00  0.00000000000E+00  0.45593999997E+02  0.45594000000E+02  0.51100000000E-03 0.  1.
         11   -1    0    0    0    0 -0.00000000000E+00 -0.00000000000E+00 -0.45593999997E+02  0.45594000000E+02  0.51100000000E-03 0. -1.
    9900012    2    1    2    0    0  0.38581880894E+01 -0.24650459261E+02  0.35511864485E+02  0.47787271016E+02  0.19999999872E+02 0.  0.
         12    1    1    2    0    0 -0.38581880894E+01  0.24650459261E+02 -0.35511864485E+02  0.43400728984E+02  0.00000000000E+00 0. -1.
         11    1    3    3    0    0  0.31981106808E+01 -0.31279453825E+01  0.44426615560E+01  0.63046963610E+01  0.51100000000E-03 0. -1.
        -11    1    3    3    0    0  0.45315955550E+01 -0.18503800656E+02  0.31217220092E+02  0.36571038097E+02  0.51100000000E-03 0.  1.
         12    1    3    3    0    0 -0.38715181465E+01 -0.30187132231E+01 -0.14801716334E+00  0.49115365582E+01  0.00000000000E+00 0. -1.
</event>
<event>
 7    1  0.4875579E-009  0.4778728E+02  0.7816164E-02  0.1312668E+00
        -11   -1    0    0    0    0  0.00000000000E+00  0.00000000000E+00  0.45593999997E+02  0.45594000000E+02  0.51100000000E-03 0.  1.
         11   -1    0    0    0    0 -0.00000000000E+00 -0.00000000000E+00 -0.45593999997E+02  0.45594000000E+02  0.51100000000E-03 0. -1.
    9900012    2    1    2    0    0  0.28963487069E+02 -0.32268865880E+02 -0.18599457059E+01  0.47787277813E+02  0.20000030860E+02 0.  0.
         12    1    1    2    0    0 -0.28963487069E+02  0.32268865880E+02  0.18599457059E+01  0.43400722187E+02  0.00000000000E+00 0. -1.
         11    1    3    3    0    0  0.16239145664E+01 -0.26427216327E+01 -0.14121842562E+01  0.34081286333E+01  0.51100000000E-03 0. -1.
        -11    1    3    3    0    0  0.23790660359E+02 -0.18313753222E+02  0.63858165940E+01  0.30694750874E+02  0.51100000000E-03 0.  1.
        -12    1    3    3    0    0  0.35489121436E+01 -0.11312391025E+02 -0.68335780437E+01  0.13684398306E+02  0.00000000000E+00 0.  1.
</event>
<event>
 7    1  0.4875579E-009  0.4778727E+02  0.7816164E-02  0.1312668E+00
        -11   -1    0    0    0    0  0.00000000000E+00  0.00000000000E+00  0.45593999997E+02  0.45594000000E+02  0.51100000000E-03 0. -1.
         11   -1    0    0    0    0 -0.00000000000E+00 -0.00000000000E+00 -0.45593999997E+02  0.45594000000E+02  0.51100000000E-03 0.  1.
    9900012    2    1    2    0    0 -0.38630073893E+02 -0.19677243671E+02 -0.20364419948E+01  0.47787267017E+02  0.19999981638E+02 0.  0.
         12    1    1    2    0    0  0.38630073893E+02  0.19677243671E+02  0.20364419948E+01  0.43400732983E+02  0.00000000000E+00 0. -1.
         11    1    3    3    0    0 -0.17473405545E+01 -0.11238226424E+01 -0.53814761045E+00  0.21461079788E+01  0.51100000000E-03 0. -1.
        -11    1    3    3    0    0 -0.33263563294E+02 -0.22564285079E+02 -0.88840195059E+00  0.40204488088E+02  0.51100000000E-03 0.  1.
         12    1    3    3    0    0 -0.36191700444E+01  0.40108640504E+01 -0.60989243372E+00  0.54366709502E+01  0.00000000000E+00 0. -1.
</event>
<event>
 7    1  0.4875579E-009  0.4778724E+02  0.7816164E-02  0.1312668E+00
        -11   -1    0    0    0    0  0.00000000000E+00  0.00000000000E+00  0.45593999997E+02  0.45594000000E+02  0.51100000000E-03 0.  1.
         11   -1    0    0    0    0 -0.00000000000E+00 -0.00000000000E+00 -0.45593999997E+02  0.45594000000E+02  0.51100000000E-03 0. -1.
    9900012    2    1    2    0    0 -0.19083428376E+02  0.38976099860E+02 -0.55860373511E+00  0.47787243820E+02  0.19999875871E+02 0.  0.
         12    1    1    2    0    0  0.19083428376E+02 -0.38976099860E+02  0.55860373511E+00  0.43400756180E+02  0.00000000000E+00 0. -1.
         11    1    3    3    0    0 -0.26179584114E+01  0.16050505755E+02 -0.45376243103E+01  0.16883793291E+02  0.51100000000E-03 0. -1.
        -11    1    3    3    0    0 -0.95029642989E+01  0.19364566453E+02 -0.10660854699E+01  0.21596974392E+02  0.51100000000E-03 0.  1.
         12    1    3    3    0    0 -0.69625056661E+01  0.35610276516E+01  0.50451060451E+01  0.93064761372E+01  0.00000000000E+00 0. -1.
</event>
<event>
 7    1  0.4875579E-009  0.4778729E+02  0.7816164E-02  0.1312668E+00
        -11   -1    0    0    0    0  0.00000000000E+00  0.00000000000E+00  0.45593999997E+02  0.45594000000E+02  0.51100000000E-03 0.  1.
         11   -1    0    0    0    0 -0.00000000000E+00 -0.00000000000E+00 -0.45593999997E+02  0.45594000000E+02  0.51100000000E-03 0. -1.
    9900012    2    1    2    0    0  0.25752642993E+02  0.48044933655E+00  0.34931249841E+02  0.47787289543E+02  0.20000084344E+02 0.  0.
         12    1    1    2    0    0 -0.25752642993E+02 -0.48044933655E+00 -0.34931249841E+02  0.43400710457E+02  0.00000000000E+00 0. -1.
         11    1    3    3    0    0  0.86893827258E+01 -0.80867246878E+00  0.70279459884E+01  0.11204969808E+02  0.51100000000E-03 0. -1.
        -11    1    3    3    0    0  0.28383716853E+01  0.74324325794E+01  0.72579800783E+01  0.10769200664E+02  0.51100000000E-03 0.  1.
        -12    1    3    3    0    0  0.14224888582E+02 -0.61433107741E+01  0.20645323774E+02  0.25813119071E+02  0.00000000000E+00 0.  1.
</event>
<event>
 7    1  0.4875579E-009  0.4778727E+02  0.7816164E-02  0.1312668E+00
        -11   -1    0    0    0    0  0.00000000000E+00  0.00000000000E+00  0.45593999997E+02  0.45594000000E+02  0.51100000000E-03 0.  1.
         11   -1    0    0    0    0 -0.00000000000E+00 -0.00000000000E+00 -0.45593999997E+02  0.45594000000E+02  0.51100000000E-03 0. -1.
    9900012    2    1    2    0    0  0.64783278372E+01 -0.42179081407E+02  0.79107363665E+01  0.47787269709E+02  0.19999993913E+02 0.  0.
         12    1    1    2    0    0 -0.64783278372E+01  0.42179081407E+02 -0.79107363665E+01  0.43400730291E+02  0.00000000000E+00 0. -1.
         11    1    3    3    0    0  0.50220918013E+01 -0.27605130644E+02  0.65848185496E+01  0.28820556544E+02  0.51100000000E-03 0. -1.
        -11    1    3    3    0    0  0.60565409516E+00 -0.48639170688E+01  0.63333554152E+01  0.80084890717E+01  0.51100000000E-03 0.  1.
         12    1    3    3    0    0  0.85058194066E+00 -0.97100336943E+01 -0.50074375983E+01  0.10958224094E+02  0.00000000000E+00 0. -1.
</event>
<event>
 7    1  0.4875579E-009  0.4778727E+02  0.7816164E-02  0.1312668E+00
        -11   -1    0    0    0    0  0.00000000000E+00  0.00000000000E+00  0.45593999997E+02  0.45594000000E+02  0.51100000000E-03 0.  1.
         11   -1    0    0    0    0 -0.00000000000E+00 -0.00000000000E+00 -0.45593999997E+02  0.45594000000E+02  0.51100000000E-03 0. -1.
    9900012    2    1    2    0    0 -0.33582985879E+02  0.33866990960E+01  0.27282530982E+02  0.47787272263E+02  0.20000005556E+02 0.  0.
         12    1    1    2    0    0  0.33582985879E+02 -0.33866990960E+01 -0.27282530982E+02  0.43400727737E+02  0.00000000000E+00 0. -1.
         11    1    3    3    0    0 -0.19357068751E+01  0.58456139279E+01  0.70374366505E+01  0.93511324539E+01  0.51100000000E-03 0. -1.
        -11    1    3    3    0    0 -0.63833271794E+01 -0.36322396779E+01  0.53287539288E+01  0.90738993631E+01  0.51100000000E-03 0.  1.
        -12    1    3    3    0    0 -0.25263951825E+02  0.11733248459E+01  0.14916340402E+02  0.29362240446E+02  0.00000000000E+00 0.  1.
</event>
<event>
 7    1  0.4875579E-009  0.4778727E+02  0.7816164E-02  0.1312668E+00
        -11   -1    0    0    0    0  0.00000000000E+00  0.00000000000E+00  0.45593999997E+02  0.45594000000E+02  0.51100000000E-03 0.  1.
         11   -1    0    0    0    0 -0.00000000000E+00 -0.00000000000E+00 -0.45593999997E+02  0.45594000000E+02  0.51100000000E-03 0. -1.
    9900012    2    1    2    0    0  0.21586212378E+02 -0.35802495320E+02  0.11655036989E+02  0.47787272780E+02  0.20000007914E+02 0.  0.
         12    1    1    2    0    0 -0.21586212378E+02  0.35802495320E+02 -0.11655036989E+02  0.43400727220E+02  0.00000000000E+00 0. -1.
         11    1    3    3    0    0  0.79878621178E+01 -0.42287420356E+01  0.44893170797E+01  0.10091688091E+02  0.51100000000E-03 0. -1.
        -11    1    3    3    0    0  0.81782216146E+01 -0.46021616522E+01  0.31177670292E+01  0.98885626943E+01  0.51100000000E-03 0.  1.
         12    1    3    3    0    0  0.54201286459E+01 -0.26971591632E+02  0.40479528806E+01  0.27807021995E+02  0.00000000000E+00 0. -1.
</event>
<event>
 7    1  0.4875579E-009  0.4778727E+02  0.7816164E-02  0.1312668E+00
        -11   -1    0    0    0    0  0.00000000000E+00  0.00000000000E+00  0.45593999997E+02  0.45594000000E+02  0.51100000000E-03 0.  1.
         11   -1    0    0    0    0 -0.00000000000E+00 -0.00000000000E+00 -0.45593999997E+02  0.45594000000E+02  0.51100000000E-03 0. -1.
    9900012    2    1    2    0    0  0.27178461707E+02 -0.13590686819E+02  0.30987865990E+02  0.47787269734E+02  0.19999994025E+02 0.  0.
         12    1    1    2    0    0 -0.27178461707E+02  0.13590686819E+02 -0.30987865990E+02  0.43400730266E+02  0.00000000000E+00 0. -1.
         11    1    3    3    0    0  0.89191531690E+00  0.50972770124E+00  0.66900964886E+01  0.67685099210E+01  0.51100000000E-03 0. -1.
        -11    1    3    3    0    0  0.18644977999E+02 -0.76456766174E+01  0.23539664195E+02  0.30987212947E+02  0.51100000000E-03 0.  1.
         12    1    3    3    0    0  0.76415683911E+01 -0.64547379030E+01  0.75810530677E+00  0.10031546866E+02  0.00000000000E+00 0. -1.
</event>
<event>
 7    1  0.4875579E-009  0.4778727E+02  0.7816164E-02  0.1312668E+00
        -11   -1    0    0    0    0  0.00000000000E+00  0.00000000000E+00  0.45593999997E+02  0.45594000000E+02  0.51100000000E-03 0. -1.
         11   -1    0    0    0    0 -0.00000000000E+00 -0.00000000000E+00 -0.45593999997E+02  0.45594000000E+02  0.51100000000E-03 0.  1.
    9900012    2    1    2    0    0  0.30942959869E+02 -0.14081923090E+02 -0.26978806818E+02  0.47787270275E+02  0.19999996491E+02 0.  0.
         12    1    1    2    0    0 -0.30942959869E+02  0.14081923090E+02  0.26978806818E+02  0.43400729725E+02  0.00000000000E+00 0. -1.
         11    1    3    3    0    0  0.11113613669E+02 -0.45815045621E+01 -0.67325092637E+01  0.13777854480E+02  0.51100000000E-03 0. -1.
        -11    1    3    3    0    0  0.22382159111E+02 -0.10261969637E+02 -0.17699833130E+02  0.30324134949E+02  0.51100000000E-03 0.  1.
         12    1    3    3    0    0 -0.25528129107E+01  0.76155110924E+00 -0.25464644242E+01  0.36852808458E+01  0.00000000000E+00 0. -1.
</event>
<event>
 7    1  0.4875579E-009  0.4778727E+02  0.7816164E-02  0.1312668E+00
        -11   -1    0    0    0    0  0.00000000000E+00  0.00000000000E+00  0.45593999997E+02  0.45594000000E+02  0.51100000000E-03 0.  1.
         11   -1    0    0    0    0 -0.00000000000E+00 -0.00000000000E+00 -0.45593999997E+02  0.45594000000E+02  0.51100000000E-03 0. -1.
    9900012    2    1    2    0    0  0.21194144109E+02 -0.34364947839E+02  0.15921131027E+02  0.47787265010E+02  0.19999972487E+02 0.  0.
         12    1    1    2    0    0 -0.21194144109E+02  0.34364947839E+02 -0.15921131027E+02  0.43400734990E+02  0.00000000000E+00 0. -1.
         11    1    3    3    0    0 -0.44992345159E+00 -0.15391720343E+00  0.13626521435E+01  0.14432403622E+01  0.51100000000E-03 0. -1.
        -11    1    3    3    0    0  0.47563423586E+01 -0.16601761447E+02  0.13504488102E+02  0.21922875608E+02  0.51100000000E-03 0.  1.
         12    1    3    3    0    0  0.16887725202E+02 -0.17609269188E+02  0.10539907813E+01  0.24421149040E+02  0.00000000000E+00 0. -1.
</event>
<event>
 7    1  0.4875579E-009  0.4778725E+02  0.7816164E-02  0.1312668E+00
        -11   -1    0    0    0    0  0.00000000000E+00  0.00000000000E+00  0.45593999997E+02  0.45594000000E+02  0.51100000000E-03 0.  1.
         11   -1    0    0    0    0 -0.00000000000E+00 -0.00000000000E+00 -0.45593999997E+02  0.45594000000E+02  0.51100000000E-03 0. -1.
    9900012    2    1    2    0    0 -0.54514920999E+01  0.82294544465E+01  0.42263247283E+02  0.47787253953E+02  0.19999922071E+02 0.  0.
         12    1    1    2    0    0  0.54514920999E+01 -0.82294544465E+01 -0.42263247283E+02  0.43400746047E+02  0.00000000000E+00 0. -1.
         11    1    3    3    0    0 -0.55974258554E+01  0.16818441980E+01  0.35541391947E+01  0.68404445608E+01  0.51100000000E-03 0. -1.
        -11    1    3    3    0    0 -0.38618654945E+01  0.67662666819E+01  0.15022385956E+02  0.16922424471E+02  0.51100000000E-03 0.  1.
         12    1    3    3    0    0  0.40077992500E+01 -0.21865643343E+00  0.23686722132E+02  0.24024384921E+02  0.00000000000E+00 0. -1.
</event>
<event>
 7    1  0.4875579E-009  0.4778728E+02  0.7816164E-02  0.1312668E+00
        -11   -1    0    0    0    0  0.00000000000E+00  0.00000000000E+00  0.45593999997E+02  0.45594000000E+02  0.51100000000E-03 0.  1.
         11   -1    0    0    0    0 -0.00000000000E+00 -0.00000000000E+00 -0.45593999997E+02  0.45594000000E+02  0.51100000000E-03 0. -1.
    9900012    2    1    2    0    0 -0.42665571036E+02 -0.50708534112E+01  0.61284864910E+01  0.47787275895E+02  0.20000022116E+02 0.  0.
         12    1    1    2    0    0  0.42665571036E+02  0.50708534112E+01 -0.61284864910E+01  0.43400724105E+02  0.00000000000E+00 0. -1.
         11    1    3    3    0    0 -0.27698851960E+01 -0.59668436002E+00 -0.41318166447E+01  0.50100105061E+01  0.51100000000E-03 0. -1.
        -11    1    3    3    0    0 -0.16720846110E+01 -0.15622092060E+01 -0.14319810133E+01  0.26994322427E+01  0.51100000000E-03 0.  1.
        -12    1    3    3    0    0 -0.38223601229E+02 -0.29119598451E+01  0.11692284149E+02  0.40077833146E+02  0.00000000000E+00 0.  1.
</event>
<event>
 7    1  0.4875579E-009  0.4778727E+02  0.7816164E-02  0.1312668E+00
        -11   -1    0    0    0    0  0.00000000000E+00  0.00000000000E+00  0.45593999997E+02  0.45594000000E+02  0.51100000000E-03 0. -1.
         11   -1    0    0    0    0 -0.00000000000E+00 -0.00000000000E+00 -0.45593999997E+02  0.45594000000E+02  0.51100000000E-03 0.  1.
    9900012    2    1    2    0    0  0.29599860970E+02  0.25725076839E+02 -0.18592802740E+02  0.47787266579E+02  0.19999979638E+02 0.  0.
         12    1    1    2    0    0 -0.29599860970E+02 -0.25725076839E+02  0.18592802740E+02  0.43400733421E+02  0.00000000000E+00 0. -1.
         11    1    3    3    0    0  0.15779915421E+01  0.92539182160E-02 -0.46336278005E+01  0.48949616747E+01  0.51100000000E-03 0. -1.
        -11    1    3    3    0    0  0.98949655222E+01  0.10377103041E+02 -0.12632454272E+02  0.19109513636E+02  0.51100000000E-03 0.  1.
        -12    1    3    3    0    0  0.18126903905E+02  0.15338719880E+02 -0.13267206670E+01  0.23782791268E+02  0.00000000000E+00 0.  1.
</event>
<event>
 7    1  0.4875579E-009  0.4778727E+02  0.7816164E-02  0.1312668E+00
        -11   -1    0    0    0    0  0.00000000000E+00  0.00000000000E+00  0.45593999997E+02  0.45594000000E+02  0.51100000000E-03 0.  1.
         11   -1    0    0    0    0 -0.00000000000E+00 -0.00000000000E+00 -0.45593999997E+02  0.45594000000E+02  0.51100000000E-03 0. -1.
    9900012    2    1    2    0    0 -0.33202918179E+02 -0.10344520419E+02  0.25964982493E+02  0.47787271963E+02  0.20000004186E+02 0.  0.
         12    1    1    2    0    0  0.33202918179E+02  0.10344520419E+02 -0.25964982493E+02  0.43400728037E+02  0.00000000000E+00 0. -1.
         11    1    3    3    0    0 -0.66295850845E+01 -0.95602823425E+01  0.14001719855E+02  0.18204355414E+02  0.51100000000E-03 0. -1.
        -11    1    3    3    0    0 -0.43019565603E+01 -0.16031588381E+01  0.33790057149E+01  0.57004059846E+01  0.51100000000E-03 0.  1.
        -12    1    3    3    0    0 -0.22271376534E+02  0.81892076128E+00  0.85842569232E+01  0.23882510564E+02  0.00000000000E+00 0.  1.
</event>
<event>
 7    1  0.4875579E-009  0.4778727E+02  0.7816164E-02  0.1312668E+00
        -11   -1    0    0    0    0  0.00000000000E+00  0.00000000000E+00  0.45593999997E+02  0.45594000000E+02  0.51100000000E-03 0. -1.
         11   -1    0    0    0    0 -0.00000000000E+00 -0.00000000000E+00 -0.45593999997E+02  0.45594000000E+02  0.51100000000E-03 0.  1.
    9900012    2    1    2    0    0 -0.37295999920E+02 -0.47413777509E+01 -0.21682964356E+02  0.47787271708E+02  0.20000003023E+02 0.  0.
         12    1    1    2    0    0  0.37295999920E+02  0.47413777509E+01  0.21682964356E+02  0.43400728292E+02  0.00000000000E+00 0. -1.
         11    1    3    3    0    0 -0.13676172813E+02  0.26891186483E+01 -0.88086103772E+01  0.16488198172E+02  0.51100000000E-03 0.  1.
        -11    1    3    3    0    0 -0.19464461679E+00  0.23078729621E+01  0.83619275106E+00  0.24623936960E+01  0.51100000000E-03 0. -1.
        -12    1    3    3    0    0 -0.23425182491E+02 -0.97383693614E+01 -0.13710546730E+02  0.28836679840E+02  0.00000000000E+00 0.  1.
</event>
<event>
 7    1  0.4875579E-009  0.4778727E+02  0.7816164E-02  0.1312668E+00
        -11   -1    0    0    0    0  0.00000000000E+00  0.00000000000E+00  0.45593999997E+02  0.45594000000E+02  0.51100000000E-03 0.  1.
         11   -1    0    0    0    0 -0.00000000000E+00 -0.00000000000E+00 -0.45593999997E+02  0.45594000000E+02  0.51100000000E-03 0. -1.
    9900012    2    1    2    0    0  0.16333078111E+02  0.39661818403E+02  0.66176789622E+01  0.47787274724E+02  0.20000016777E+02 0.  0.
         12    1    1    2    0    0 -0.16333078111E+02 -0.39661818403E+02 -0.66176789622E+01  0.43400725276E+02  0.00000000000E+00 0. -1.
         11    1    3    3    0    0  0.26797152367E+00  0.96418507534E+01 -0.38433801716E+01  0.10383095208E+02  0.51100000000E-03 0. -1.
        -11    1    3    3    0    0  0.52368443703E+00  0.11741395657E+02  0.51443451498E+01  0.12829610463E+02  0.51100000000E-03 0.  1.
        -12    1    3    3    0    0  0.15541422151E+02  0.18278571993E+02  0.53167139840E+01  0.24574569053E+02  0.00000000000E+00 0.  1.
</event>
<event>
 7    1  0.4875579E-009  0.4778727E+02  0.7816164E-02  0.1312668E+00
        -11   -1    0    0    0    0  0.00000000000E+00  0.00000000000E+00  0.45593999997E+02  0.45594000000E+02  0.51100000000E-03 0. -1.
         11   -1    0    0    0    0 -0.00000000000E+00 -0.00000000000E+00 -0.45593999997E+02  0.45594000000E+02  0.51100000000E-03 0.  1.
    9900012    2    1    2    0    0  0.10889927533E+02  0.25501504215E+02 -0.33387209510E+02  0.47787274225E+02  0.20000014503E+02 0.  0.
         12    1    1    2    0    0 -0.10889927533E+02 -0.25501504215E+02  0.33387209510E+02  0.43400725775E+02  0.00000000000E+00 0. -1.
         11    1    3    3    0    0 -0.13610551764E+01  0.29000787617E+01 -0.27584486838E+00  0.32154344450E+01  0.51100000000E-03 0. -1.
        -11    1    3    3    0    0 -0.15967014261E+01  0.91641514234E+00  0.79764971951E+00  0.20063692315E+01  0.51100000000E-03 0.  1.
        -12    1    3    3    0    0  0.13847684135E+02  0.21685010311E+02 -0.33909014361E+02  0.42565470549E+02  0.00000000000E+00 0.  1.
</event>
<event>
 7    1  0.4875579E-009  0.4778727E+02  0.7816164E-02  0.1312668E+00
        -11   -1    0    0    0    0  0.00000000000E+00  0.00000000000E+00  0.45593999997E+02  0.45594000000E+02  0.51100000000E-03 0.  1.
         11   -1    0    0    0    0 -0.00000000000E+00 -0.00000000000E+00 -0.45593999997E+02  0.45594000000E+02  0.51100000000E-03 0. -1.
    9900012    2    1    2    0    0  0.23077946067E+02  0.22642485013E+02  0.28954267938E+02  0.47787270121E+02  0.19999995788E+02 0.  0.
         12    1    1    2    0    0 -0.23077946067E+02 -0.22642485013E+02 -0.28954267938E+02  0.43400729879E+02  0.00000000000E+00 0. -1.
         11    1    3    3    0    0 -0.12327550766E+00  0.32884736158E+01 -0.10316279296E+01  0.34486971480E+01  0.51100000000E-03 0. -1.
        -11    1    3    3    0    0  0.12932469883E+02  0.13002595876E+02  0.97383224452E+01  0.20764180723E+02  0.51100000000E-03 0.  1.
         12    1    3    3    0    0  0.10268751692E+02  0.63514155207E+01  0.20247573423E+02  0.23574392249E+02  0.00000000000E+00 0. -1.
</event>
<event>
 7    1  0.4875579E-009  0.4778726E+02  0.7816164E-02  0.1312668E+00
        -11   -1    0    0    0    0  0.00000000000E+00  0.00000000000E+00  0.45593999997E+02  0.45594000000E+02  0.51100000000E-03 0.  1.
         11   -1    0    0    0    0 -0.00000000000E+00 -0.00000000000E+00 -0.45593999997E+02  0.45594000000E+02  0.51100000000E-03 0. -1.
    9900012    2    1    2    0    0 -0.33210642509E+02  0.10274458726E+02  0.25982929843E+02  0.47787263587E+02  0.19999966000E+02 0.  0.
         12    1    1    2    0    0  0.33210642509E+02 -0.10274458726E+02 -0.25982929843E+02  0.43400736413E+02  0.00000000000E+00 0. -1.
         11    1    3    3    0    0 -0.13445933065E+02 -0.38132414093E+01  0.14269590452E+02  0.19973861368E+02  0.51100000000E-03 0. -1.
        -11    1    3    3    0    0 -0.10330391769E+01  0.34299432684E+01  0.25380225687E+01  0.43901297914E+01  0.51100000000E-03 0.  1.
        -12    1    3    3    0    0 -0.18731670268E+02  0.10657756867E+02  0.91753168219E+01  0.23423272428E+02  0.00000000000E+00 0.  1.
</event>
<event>
 7    1  0.4875579E-009  0.4778727E+02  0.7816164E-02  0.1312668E+00
        -11   -1    0    0    0    0  0.00000000000E+00  0.00000000000E+00  0.45593999997E+02  0.45594000000E+02  0.51100000000E-03 0. -1.
         11   -1    0    0    0    0 -0.00000000000E+00 -0.00000000000E+00 -0.45593999997E+02  0.45594000000E+02  0.51100000000E-03 0.  1.
    9900012    2    1    2    0    0  0.29536766827E+02 -0.35581950536E+01 -0.31599714037E+02  0.47787271045E+02  0.20000000002E+02 0.  0.
         12    1    1    2    0    0 -0.29536766827E+02  0.35581950536E+01  0.31599714037E+02  0.43400728955E+02  0.00000000000E+00 0. -1.
         11    1    3    3    0    0  0.67568424222E+01 -0.27205470095E+01 -0.72707376132E+01  0.10291740438E+02  0.51100000000E-03 0. -1.
        -11    1    3    3    0    0  0.82007649298E+01 -0.83425150625E+01 -0.13409239651E+02  0.17794881604E+02  0.51100000000E-03 0.  1.
         12    1    3    3    0    0  0.14579159475E+02  0.75048670184E+01 -0.10919736773E+02  0.19700649003E+02  0.00000000000E+00 0. -1.
</event>
<event>
 7    1  0.4875579E-009  0.4778727E+02  0.7816164E-02  0.1312668E+00
        -11   -1    0    0    0    0  0.00000000000E+00  0.00000000000E+00  0.45593999997E+02  0.45594000000E+02  0.51100000000E-03 0.  1.
         11   -1    0    0    0    0 -0.00000000000E+00 -0.00000000000E+00 -0.45593999997E+02  0.45594000000E+02  0.51100000000E-03 0. -1.
    9900012    2    1    2    0    0  0.17271826582E+02  0.13716262057E+02  0.37378756527E+02  0.47787270999E+02  0.19999999793E+02 0.  0.
         12    1    1    2    0    0 -0.17271826582E+02 -0.13716262057E+02 -0.37378756527E+02  0.43400729001E+02  0.00000000000E+00 0. -1.
         11    1    3    3    0    0 -0.32485475637E+01  0.23243850262E+01  0.76422227679E+01  0.86231894400E+01  0.51100000000E-03 0. -1.
        -11    1    3    3    0    0  0.50400873779E+01 -0.15665434942E+01  0.55401658105E+01  0.76517956563E+01  0.51100000000E-03 0.  1.
        -12    1    3    3    0    0  0.15480286767E+02  0.12958420525E+02  0.24196367949E+02  0.31512285903E+02  0.00000000000E+00 0.  1.
</event>
<event>
 7    1  0.4875579E-009  0.4778727E+02  0.7816164E-02  0.1312668E+00
        -11   -1    0    0    0    0  0.00000000000E+00  0.00000000000E+00  0.45593999997E+02  0.45594000000E+02  0.51100000000E-03 0.  1.
         11   -1    0    0    0    0 -0.00000000000E+00 -0.00000000000E+00 -0.45593999997E+02  0.45594000000E+02  0.51100000000E-03 0. -1.
    9900012    2    1    2    0    0  0.12854068141E+02 -0.30077776844E+02  0.28525845695E+02  0.47787267284E+02  0.19999982854E+02 0.  0.
         12    1    1    2    0    0 -0.12854068141E+02  0.30077776844E+02 -0.28525845695E+02  0.43400732716E+02  0.00000000000E+00 0. -1.
         11    1    3    3    0    0  0.20961211089E+01 -0.58035589561E+01  0.57612128028E+01  0.84419543638E+01  0.51100000000E-03 0. -1.
        -11    1    3    3    0    0 -0.35244896749E+01 -0.12584391114E+02  0.13130757917E+02  0.18525812557E+02  0.51100000000E-03 0.  1.
         12    1    3    3    0    0  0.14282436707E+02 -0.11689826774E+02  0.96338749755E+01  0.20819500363E+02  0.00000000000E+00 0. -1.
</event>
<event>
 7    1  0.4875579E-009  0.4778727E+02  0.7816164E-02  0.1312668E+00
        -11   -1    0    0    0    0  0.00000000000E+00  0.00000000000E+00  0.45593999997E+02  0.45594000000E+02  0.51100000000E-03 0. -1.
         11   -1    0    0    0    0 -0.00000000000E+00 -0.00000000000E+00 -0.45593999997E+02  0.45594000000E+02  0.51100000000E-03 0.  1.
    9900012    2    1    2    0    0 -0.19599457477E+01 -0.19503270366E+02 -0.38722146612E+02  0.47787267512E+02  0.19999983893E+02 0.  0.
         12    1    1    2    0    0  0.19599457477E+01  0.19503270366E+02  0.38722146612E+02  0.43400732488E+02  0.00000000000E+00 0. -1.
         11    1    3    3    0    0 -0.65551343829E+01 -0.55658864529E+01 -0.13619304238E+02  0.16106965170E+02  0.51100000000E-03 0. -1.
        -11    1    3    3    0    0 -0.40762577069E+01 -0.34789482936E+01 -0.10146220348E+02  0.11474525949E+02  0.51100000000E-03 0.  1.
        -12    1    3    3    0    0  0.86714463422E+01 -0.10458435619E+02 -0.14956622025E+02  0.20205776393E+02  0.00000000000E+00 0.  1.
</event>
<event>
 7    1  0.4875579E-009  0.4778729E+02  0.7816164E-02  0.1312668E+00
        -11   -1    0    0    0    0  0.00000000000E+00  0.00000000000E+00  0.45593999997E+02  0.45594000000E+02  0.51100000000E-03 0. -1.
         11   -1    0    0    0    0 -0.00000000000E+00 -0.00000000000E+00 -0.45593999997E+02  0.45594000000E+02  0.51100000000E-03 0.  1.
    9900012    2    1    2    0    0 -0.20196299241E+02 -0.35710281884E+02 -0.14160038980E+02  0.47787292181E+02  0.20000096370E+02 0.  0.
         12    1    1    2    0    0  0.20196299241E+02  0.35710281884E+02  0.14160038980E+02  0.43400707819E+02  0.00000000000E+00 0. -1.
         11    1    3    3    0    0 -0.11533379881E+02 -0.17546450368E+02 -0.11032822477E+02  0.23719610960E+02  0.51100000000E-03 0. -1.
        -11    1    3    3    0    0 -0.34129835164E+01 -0.79502457586E+01 -0.78197774514E+01  0.11662066016E+02  0.51100000000E-03 0.  1.
         12    1    3    3    0    0 -0.52499358430E+01 -0.10213585757E+02  0.46925609481E+01  0.12405615206E+02  0.00000000000E+00 0. -1.
</event>
<event>
 7    1  0.4875579E-009  0.4778727E+02  0.7816164E-02  0.1312668E+00
        -11   -1    0    0    0    0  0.00000000000E+00  0.00000000000E+00  0.45593999997E+02  0.45594000000E+02  0.51100000000E-03 0. -1.
         11   -1    0    0    0    0 -0.00000000000E+00 -0.00000000000E+00 -0.45593999997E+02  0.45594000000E+02  0.51100000000E-03 0.  1.
    9900012    2    1    2    0    0 -0.19354923440E+02 -0.15496285053E+02 -0.35621275181E+02  0.47787272387E+02  0.20000006123E+02 0.  0.
         12    1    1    2    0    0  0.19354923440E+02  0.15496285053E+02  0.35621275181E+02  0.43400727613E+02  0.00000000000E+00 0. -1.
         11    1    3    3    0    0 -0.56225498634E+01 -0.19132045378E+01 -0.24118770468E+02  0.24839253365E+02  0.51100000000E-03 0.  1.
        -11    1    3    3    0    0 -0.13703780338E+01 -0.63519180061E+00  0.25331827334E+00  0.15315270118E+01  0.51100000000E-03 0. -1.
        -12    1    3    3    0    0 -0.12361995543E+02 -0.12947888715E+02 -0.11755822986E+02  0.21416492011E+02  0.00000000000E+00 0.  1.
</event>
<event>
 7    1  0.4875579E-009  0.4778728E+02  0.7816164E-02  0.1312668E+00
        -11   -1    0    0    0    0  0.00000000000E+00  0.00000000000E+00  0.45593999997E+02  0.45594000000E+02  0.51100000000E-03 0.  1.
         11   -1    0    0    0    0 -0.00000000000E+00 -0.00000000000E+00 -0.45593999997E+02  0.45594000000E+02  0.51100000000E-03 0. -1.
    9900012    2    1    2    0    0 -0.19290794380E+02  0.88812735970E+01  0.37849849219E+02  0.47787275877E+02  0.20000022032E+02 0.  0.
         12    1    1    2    0    0  0.19290794380E+02 -0.88812735970E+01 -0.37849849219E+02  0.43400724123E+02  0.00000000000E+00 0. -1.
         11    1    3    3    0    0 -0.31174555753E+01 -0.55772428597E+01  0.61851888588E+01  0.88927345997E+01  0.51100000000E-03 0. -1.
        -11    1    3    3    0    0 -0.12825465231E+01  0.10354780258E+01  0.65780349084E+01  0.67814219633E+01  0.51100000000E-03 0.  1.
        -12    1    3    3    0    0 -0.14890792282E+02  0.13423038431E+02  0.25086625452E+02  0.32113119314E+02  0.00000000000E+00 0.  1.
</event>
<event>
 7    1  0.4875579E-009  0.4778727E+02  0.7816164E-02  0.1312668E+00
        -11   -1    0    0    0    0  0.00000000000E+00  0.00000000000E+00  0.45593999997E+02  0.45594000000E+02  0.51100000000E-03 0.  1.
         11   -1    0    0    0    0 -0.00000000000E+00 -0.00000000000E+00 -0.45593999997E+02  0.45594000000E+02  0.51100000000E-03 0. -1.
    9900012    2    1    2    0    0 -0.18032192945E+01  0.41667714919E+02  0.12007217923E+02  0.47787270183E+02  0.19999996070E+02 0.  0.
         12    1    1    2    0    0  0.18032192945E+01 -0.41667714919E+02 -0.12007217923E+02  0.43400729817E+02  0.00000000000E+00 0. -1.
         11    1    3    3    0    0 -0.21353329140E+01 -0.91075570193E+00 -0.11444789676E+01  0.25882339482E+01  0.51100000000E-03 0. -1.
        -11    1    3    3    0    0  0.69933309303E+00  0.58078830892E+01 -0.72675703089E+00  0.58948069346E+01  0.51100000000E-03 0.  1.
        -12    1    3    3    0    0 -0.36721947351E+00  0.36770587532E+02  0.13878453921E+02  0.39304229300E+02  0.00000000000E+00 0.  1.
</event>
<event>
 7    1  0.4875579E-009  0.4778722E+02  0.7816164E-02  0.1312668E+00
        -11   -1    0    0    0    0  0.00000000000E+00  0.00000000000E+00  0.45593999997E+02  0.45594000000E+02  0.51100000000E-03 0.  1.
         11   -1    0    0    0    0 -0.00000000000E+00 -0.00000000000E+00 -0.45593999997E+02  0.45594000000E+02  0.51100000000E-03 0. -1.
    9900012    2    1    2    0    0 -0.13375441971E+02 -0.25820394200E+02  0.32218507471E+02  0.47787223184E+02  0.19999781784E+02 0.  0.
         12    1    1    2    0    0  0.13375441971E+02  0.25820394200E+02 -0.32218507471E+02  0.43400776816E+02  0.00000000000E+00 0. -1.
         11    1    3    3    0    0 -0.29206618056E+00 -0.42440386518E+01  0.52170288195E+01  0.67316087748E+01  0.51100000000E-03 0. -1.
        -11    1    3    3    0    0 -0.10556768106E+02 -0.15818937286E+02  0.28803022486E+02  0.34515188458E+02  0.51100000000E-03 0.  1.
         12    1    3    3    0    0 -0.25266076843E+01 -0.57574182619E+01 -0.18015438346E+01  0.65404259510E+01  0.00000000000E+00 0. -1.
</event>
<event>
 7    1  0.4875579E-009  0.4778727E+02  0.7816164E-02  0.1312668E+00
        -11   -1    0    0    0    0  0.00000000000E+00  0.00000000000E+00  0.45593999997E+02  0.45594000000E+02  0.51100000000E-03 0.  1.
         11   -1    0    0    0    0 -0.00000000000E+00 -0.00000000000E+00 -0.45593999997E+02  0.45594000000E+02  0.51100000000E-03 0. -1.
    9900012    2    1    2    0    0  0.43335170594E+02 -0.16121644901E+01 -0.17570902784E+01  0.47787269004E+02  0.19999990697E+02 0.  0.
         12    1    1    2    0    0 -0.43335170594E+02  0.16121644901E+01  0.17570902784E+01  0.43400730996E+02  0.00000000000E+00 0. -1.
         11    1    3    3    0    0  0.14232695848E+02 -0.16031207773E+01  0.40359001714E+01  0.14880460940E+02  0.51100000000E-03 0. -1.
        -11    1    3    3    0    0  0.19525595025E+02 -0.66284704093E+01 -0.22758429861E+01  0.20745239035E+02  0.51100000000E-03 0.  1.
         12    1    3    3    0    0  0.95768797209E+01  0.66194266964E+01 -0.35171474638E+01  0.12161569030E+02  0.00000000000E+00 0. -1.
</event>
<event>
 7    1  0.4875579E-009  0.4778727E+02  0.7816164E-02  0.1312668E+00
        -11   -1    0    0    0    0  0.00000000000E+00  0.00000000000E+00  0.45593999997E+02  0.45594000000E+02  0.51100000000E-03 0.  1.
         11   -1    0    0    0    0 -0.00000000000E+00 -0.00000000000E+00 -0.45593999997E+02  0.45594000000E+02  0.51100000000E-03 0. -1.
    9900012    2    1    2    0    0 -0.82805280252E+01  0.38521464471E+02  0.18197610609E+02  0.47787269577E+02  0.19999993309E+02 0.  0.
         12    1    1    2    0    0  0.82805280252E+01 -0.38521464471E+02 -0.18197610609E+02  0.43400730423E+02  0.00000000000E+00 0. -1.
         11    1    3    3    0    0 -0.25884777809E+01  0.15096433591E+01 -0.22906339999E+01  0.37717694357E+01  0.51100000000E-03 0. -1.
        -11    1    3    3    0    0 -0.77561506655E+01  0.16877229520E+02  0.79314640737E+01  0.20196704485E+02  0.51100000000E-03 0.  1.
         12    1    3    3    0    0  0.20641004212E+01  0.20134591592E+02  0.12556780535E+02  0.23818795656E+02  0.00000000000E+00 0. -1.
</event>
<event>
 7    1  0.4875579E-009  0.4778727E+02  0.7816164E-02  0.1312668E+00
        -11   -1    0    0    0    0  0.00000000000E+00  0.00000000000E+00  0.45593999997E+02  0.45594000000E+02  0.51100000000E-03 0.  1.
         11   -1    0    0    0    0 -0.00000000000E+00 -0.00000000000E+00 -0.45593999997E+02  0.45594000000E+02  0.51100000000E-03 0. -1.
    9900012    2    1    2    0    0  0.28785177604E+02  0.15276771776E+02  0.28664560108E+02  0.47787271760E+02  0.20000003261E+02 0.  0.
         12    1    1    2    0    0 -0.28785177604E+02 -0.15276771776E+02 -0.28664560108E+02  0.43400728240E+02  0.00000000000E+00 0. -1.
         11    1    3    3    0    0  0.11771838651E+02  0.51667667114E+01  0.86971079010E+01  0.15521319196E+02  0.51100000000E-03 0. -1.
        -11    1    3    3    0    0  0.15507838767E+02  0.10274205422E+02  0.22574062823E+02  0.29251336258E+02  0.51100000000E-03 0.  1.
         12    1    3    3    0    0  0.15055001868E+01 -0.16420035695E+00 -0.26066106163E+01  0.30146163063E+01  0.00000000000E+00 0. -1.
</event>
<event>
 7    1  0.4875579E-009  0.4778727E+02  0.7816164E-02  0.1312668E+00
        -11   -1    0    0    0    0  0.00000000000E+00  0.00000000000E+00  0.45593999997E+02  0.45594000000E+02  0.51100000000E-03 0. -1.
         11   -1    0    0    0    0 -0.00000000000E+00 -0.00000000000E+00 -0.45593999997E+02  0.45594000000E+02  0.51100000000E-03 0.  1.
    9900012    2    1    2    0    0  0.42196295839E+01  0.32165355889E+02 -0.28830670737E+02  0.47787274564E+02  0.20000016045E+02 0.  0.
         12    1    1    2    0    0 -0.42196295839E+01 -0.32165355889E+02  0.28830670737E+02  0.43400725436E+02  0.00000000000E+00 0. -1.
         11    1    3    3    0    0  0.32895182244E+01  0.15962901316E+01 -0.18099929793E+00  0.36608514501E+01  0.51100000000E-03 0. -1.
        -11    1    3    3    0    0  0.70203273558E+01  0.15141146128E+02 -0.17237507524E+02  0.23993144191E+02  0.51100000000E-03 0.  1.
         12    1    3    3    0    0 -0.60902159964E+01  0.15427919629E+02 -0.11412163915E+02  0.20133278923E+02  0.00000000000E+00 0. -1.
</event>
<event>
 7    1  0.4875579E-009  0.4778727E+02  0.7816164E-02  0.1312668E+00
        -11   -1    0    0    0    0  0.00000000000E+00  0.00000000000E+00  0.45593999997E+02  0.45594000000E+02  0.51100000000E-03 0. -1.
         11   -1    0    0    0    0 -0.00000000000E+00 -0.00000000000E+00 -0.45593999997E+02  0.45594000000E+02  0.51100000000E-03 0.  1.
    9900012    2    1    2    0    0  0.26641247384E+02  0.31941129379E+02 -0.12394819136E+02  0.47787270172E+02  0.19999996023E+02 0.  0.
         12    1    1    2    0    0 -0.26641247384E+02 -0.31941129379E+02  0.12394819136E+02  0.43400729828E+02  0.00000000000E+00 0. -1.
         11    1    3    3    0    0  0.11235936615E+02  0.86211649910E+01 -0.10984921930E+02  0.17923148928E+02  0.51100000000E-03 0. -1.
        -11    1    3    3    0    0  0.93090687939E+01  0.13468327664E+02 -0.59513762670E+01  0.17420490568E+02  0.51100000000E-03 0.  1.
        -12    1    3    3    0    0  0.60962419756E+01  0.98516367236E+01  0.45414790614E+01  0.12443630677E+02  0.00000000000E+00 0.  1.
</event>
<event>
 7    1  0.4875579E-009  0.4778727E+02  0.7816164E-02  0.1312668E+00
        -11   -1    0    0    0    0  0.00000000000E+00  0.00000000000E+00  0.45593999997E+02  0.45594000000E+02  0.51100000000E-03 0. -1.
         11   -1    0    0    0    0 -0.00000000000E+00 -0.00000000000E+00 -0.45593999997E+02  0.45594000000E+02  0.51100000000E-03 0.  1.
    9900012    2    1    2    0    0  0.26158018576E+02 -0.31155873922E+02 -0.15122607267E+02  0.47787266524E+02  0.19999979391E+02 0.  0.
         12    1    1    2    0    0 -0.26158018576E+02  0.31155873922E+02  0.15122607267E+02  0.43400733476E+02  0.00000000000E+00 0. -1.
         11    1    3    3    0    0  0.56887800468E+01 -0.11678473016E+02 -0.90099398288E+00  0.13021549095E+02  0.51100000000E-03 0. -1.
        -11    1    3    3    0    0  0.77923222408E+01 -0.13447633460E+02 -0.11507042775E+01  0.15584712130E+02  0.51100000000E-03 0.  1.
        -12    1    3    3    0    0  0.12676916289E+02 -0.60297674456E+01 -0.13070909006E+02  0.19181005299E+02  0.00000000000E+00 0.  1.
</event>
<event>
 7    1  0.4875579E-009  0.4778728E+02  0.7816164E-02  0.1312668E+00
        -11   -1    0    0    0    0  0.00000000000E+00  0.00000000000E+00  0.45593999997E+02  0.45594000000E+02  0.51100000000E-03 0. -1.
         11   -1    0    0    0    0 -0.00000000000E+00 -0.00000000000E+00 -0.45593999997E+02  0.45594000000E+02  0.51100000000E-03 0.  1.
    9900012    2    1    2    0    0  0.36024431365E+02  0.31433611696E+01 -0.23999636152E+02  0.47787275237E+02  0.20000019113E+02 0.  0.
         12    1    1    2    0    0 -0.36024431365E+02 -0.31433611696E+01  0.23999636152E+02  0.43400724763E+02  0.00000000000E+00 0. -1.
         11    1    3    3    0    0  0.73270321635E+01 -0.23756898583E+01 -0.72619129243E+01  0.10586060750E+02  0.51100000000E-03 0.  1.
        -11    1    3    3    0    0  0.23257383499E+02  0.94918832214E+01 -0.17207945137E+02  0.30448564998E+02  0.51100000000E-03 0. -1.
         12    1    3    3    0    0  0.54400157017E+01 -0.39728321934E+01  0.47022190935E+00  0.67526494886E+01  0.00000000000E+00 0. -1.
</event>
<event>
 7    1  0.4875579E-009  0.4778727E+02  0.7816164E-02  0.1312668E+00
        -11   -1    0    0    0    0  0.00000000000E+00  0.00000000000E+00  0.45593999997E+02  0.45594000000E+02  0.51100000000E-03 0.  1.
         11   -1    0    0    0    0 -0.00000000000E+00 -0.00000000000E+00 -0.45593999997E+02  0.45594000000E+02  0.51100000000E-03 0. -1.
    9900012    2    1    2    0    0 -0.13741872223E+01 -0.43118502541E+02  0.47465454894E+01  0.47787270213E+02  0.19999996211E+02 0.  0.
         12    1    1    2    0    0  0.13741872223E+01  0.43118502541E+02 -0.47465454894E+01  0.43400729787E+02  0.00000000000E+00 0. -1.
         11    1    3    3    0    0 -0.63481336084E+01 -0.22964989509E+02 -0.40461494454E+01  0.24167351304E+02  0.51100000000E-03 0. -1.
        -11    1    3    3    0    0 -0.16151607579E+01 -0.48915886376E+01  0.94595498639E+00  0.52374817203E+01  0.51100000000E-03 0.  1.
        -12    1    3    3    0    0  0.65891071440E+01 -0.15261924395E+02  0.78467399484E+01  0.18382437189E+02  0.00000000000E+00 0.  1.
</event>
<event>
 7    1  0.4875579E-009  0.4778728E+02  0.7816164E-02  0.1312668E+00
        -11   -1    0    0    0    0  0.00000000000E+00  0.00000000000E+00  0.45593999997E+02  0.45594000000E+02  0.51100000000E-03 0.  1.
         11   -1    0    0    0    0 -0.00000000000E+00 -0.00000000000E+00 -0.45593999997E+02  0.45594000000E+02  0.51100000000E-03 0. -1.
    9900012    2    1    2    0    0  0.32789661252E+02  0.27130159123E+02  0.85097302619E+01  0.47787275028E+02  0.20000018161E+02 0.  0.
         12    1    1    2    0    0 -0.32789661252E+02 -0.27130159123E+02 -0.85097302619E+01  0.43400724972E+02  0.00000000000E+00 0. -1.
         11    1    3    3    0    0  0.10081242919E+01  0.49691441927E+01  0.16882226524E+01  0.53440438417E+01  0.51100000000E-03 0. -1.
        -11    1    3    3    0    0  0.25174060180E+02  0.13753284241E+02  0.11324500313E+02  0.30840402737E+02  0.51100000000E-03 0.  1.
        -12    1    3    3    0    0  0.66074767798E+01  0.84077306888E+01 -0.45029927039E+01  0.11602828449E+02  0.00000000000E+00 0.  1.
</event>
<event>
 7    1  0.4875579E-009  0.4778727E+02  0.7816164E-02  0.1312668E+00
        -11   -1    0    0    0    0  0.00000000000E+00  0.00000000000E+00  0.45593999997E+02  0.45594000000E+02  0.51100000000E-03 0. -1.
         11   -1    0    0    0    0 -0.00000000000E+00 -0.00000000000E+00 -0.45593999997E+02  0.45594000000E+02  0.51100000000E-03 0.  1.
    9900012    2    1    2    0    0  0.24657185795E+02 -0.28201524536E+02 -0.21916217139E+02  0.47787269924E+02  0.19999994891E+02 0.  0.
         12    1    1    2    0    0 -0.24657185795E+02  0.28201524536E+02  0.21916217139E+02  0.43400730076E+02  0.00000000000E+00 0. -1.
         11    1    3    3    0    0  0.89394324566E+01 -0.11753380240E+01 -0.64865146940E+01  0.11107193401E+02  0.51100000000E-03 0. -1.
        -11    1    3    3    0    0  0.18782087401E+01 -0.14415695006E+02 -0.73123694168E+01  0.16273004558E+02  0.51100000000E-03 0.  1.
         12    1    3    3    0    0  0.13839544598E+02 -0.12610491505E+02 -0.81173330281E+01  0.20407071965E+02  0.00000000000E+00 0. -1.
</event>
<event>
 7    1  0.4875579E-009  0.4778727E+02  0.7816164E-02  0.1312668E+00
        -11   -1    0    0    0    0  0.00000000000E+00  0.00000000000E+00  0.45593999997E+02  0.45594000000E+02  0.51100000000E-03 0. -1.
         11   -1    0    0    0    0 -0.00000000000E+00 -0.00000000000E+00 -0.45593999997E+02  0.45594000000E+02  0.51100000000E-03 0.  1.
    9900012    2    1    2    0    0 -0.36241204974E+02 -0.10324339434E+02 -0.21531519501E+02  0.47787271265E+02  0.20000001007E+02 0.  0.
         12    1    1    2    0    0  0.36241204974E+02  0.10324339434E+02  0.21531519501E+02  0.43400728735E+02  0.00000000000E+00 0. -1.
         11    1    3    3    0    0 -0.22701174506E+02 -0.91854265492E+01 -0.21093870442E+02  0.32321304976E+02  0.51100000000E-03 0. -1.
        -11    1    3    3    0    0 -0.10465955676E+02 -0.34375936422E+00 -0.35133945480E+01  0.11045285882E+02  0.51100000000E-03 0.  1.
         12    1    3    3    0    0 -0.30740747919E+01 -0.79515352017E+00  0.30757454895E+01  0.44206804072E+01  0.00000000000E+00 0. -1.
</event>
<event>
 7    1  0.4875579E-009  0.4778727E+02  0.7816164E-02  0.1312668E+00
        -11   -1    0    0    0    0  0.00000000000E+00  0.00000000000E+00  0.45593999997E+02  0.45594000000E+02  0.51100000000E-03 0. -1.
         11   -1    0    0    0    0 -0.00000000000E+00 -0.00000000000E+00 -0.45593999997E+02  0.45594000000E+02  0.51100000000E-03 0.  1.
    9900012    2    1    2    0    0  0.13003200321E+02  0.39784823784E+02  0.11476392834E+02  0.47787274032E+02  0.20000013621E+02 0.  0.
         12    1    1    2    0    0 -0.13003200321E+02 -0.39784823784E+02 -0.11476392834E+02  0.43400725968E+02  0.00000000000E+00 0. -1.
         11    1    3    3    0    0  0.48925059816E+01  0.20040414828E+02  0.48973880483E+01  0.21202340702E+02  0.51100000000E-03 0. -1.
        -11    1    3    3    0    0 -0.26770107599E+01  0.11350155605E+02  0.54419546258E+01  0.12868849571E+02  0.51100000000E-03 0.  1.
        -12    1    3    3    0    0  0.10787705100E+02  0.83942533499E+01  0.11370501600E+01  0.13716083759E+02  0.00000000000E+00 0.  1.
</event>
<event>
 7    1  0.4875579E-009  0.4778730E+02  0.7816164E-02  0.1312668E+00
        -11   -1    0    0    0    0  0.00000000000E+00  0.00000000000E+00  0.45593999997E+02  0.45594000000E+02  0.51100000000E-03 0.  1.
         11   -1    0    0    0    0 -0.00000000000E+00 -0.00000000000E+00 -0.45593999997E+02  0.45594000000E+02  0.51100000000E-03 0. -1.
    9900012    2    1    2    0    0  0.34862085544E+02  0.23482510784E+02  0.10808673274E+02  0.47787300246E+02  0.20000133142E+02 0.  0.
         12    1    1    2    0    0 -0.34862085544E+02 -0.23482510784E+02 -0.10808673274E+02  0.43400699754E+02  0.00000000000E+00 0. -1.
         11    1    3    3    0    0  0.22646105981E+01  0.75122614408E-01  0.41989893146E+01  0.47713327377E+01  0.51100000000E-03 0. -1.
        -11    1    3    3    0    0  0.13301529756E+02  0.16286728152E+02  0.77638387439E+01  0.22415740006E+02  0.51100000000E-03 0.  1.
        -12    1    3    3    0    0  0.19295945190E+02  0.71206600176E+01 -0.11541547845E+01  0.20600227502E+02  0.00000000000E+00 0.  1.
</event>
<event>
 7    1  0.4875579E-009  0.4778727E+02  0.7816164E-02  0.1312668E+00
        -11   -1    0    0    0    0  0.00000000000E+00  0.00000000000E+00  0.45593999997E+02  0.45594000000E+02  0.51100000000E-03 0.  1.
         11   -1    0    0    0    0 -0.00000000000E+00 -0.00000000000E+00 -0.45593999997E+02  0.45594000000E+02  0.51100000000E-03 0. -1.
    9900012    2    1    2    0    0 -0.28839285945E+02 -0.26076144820E+02  0.19286099752E+02  0.47787269751E+02  0.19999994105E+02 0.  0.
         12    1    1    2    0    0  0.28839285945E+02  0.26076144820E+02 -0.19286099752E+02  0.43400730249E+02  0.00000000000E+00 0. -1.
         11    1    3    3    0    0 -0.66903334682E+01 -0.73719858693E+01  0.66020525151E+01  0.11945452492E+02  0.51100000000E-03 0.  1.
        -11    1    3    3    0    0 -0.30631333106E+01  0.25172196180E+01  0.48114132782E+01  0.62344910200E+01  0.51100000000E-03 0. -1.
        -12    1    3    3    0    0 -0.19085819166E+02 -0.21221378569E+02  0.78726339590E+01  0.29607326239E+02  0.00000000000E+00 0.  1.
</event>
<event>
 7    1  0.4875579E-009  0.4778727E+02  0.7816164E-02  0.1312668E+00
        -11   -1    0    0    0    0  0.00000000000E+00  0.00000000000E+00  0.45593999997E+02  0.45594000000E+02  0.51100000000E-03 0.  1.
         11   -1    0    0    0    0 -0.00000000000E+00 -0.00000000000E+00 -0.45593999997E+02  0.45594000000E+02  0.51100000000E-03 0. -1.
    9900012    2    1    2    0    0 -0.40325895746E+02  0.14444849874E+02  0.69850998852E+01  0.47787272172E+02  0.20000005141E+02 0.  0.
         12    1    1    2    0    0  0.40325895746E+02 -0.14444849874E+02 -0.69850998852E+01  0.43400727828E+02  0.00000000000E+00 0. -1.
         11    1    3    3    0    0 -0.15176992839E+02  0.28121987090E+01 -0.58051758162E+00  0.15446247898E+02  0.51100000000E-03 0. -1.
        -11    1    3    3    0    0 -0.22385230159E+02  0.33617453016E+01  0.65301261882E+01  0.23559338043E+02  0.51100000000E-03 0.  1.
        -12    1    3    3    0    0 -0.27636727482E+01  0.82709058639E+01  0.10354912786E+01  0.87816862308E+01  0.00000000000E+00 0.  1.
</event>
<event>
 7    1  0.4875579E-009  0.4778728E+02  0.7816164E-02  0.1312668E+00
        -11   -1    0    0    0    0  0.00000000000E+00  0.00000000000E+00  0.45593999997E+02  0.45594000000E+02  0.51100000000E-03 0. -1.
         11   -1    0    0    0    0 -0.00000000000E+00 -0.00000000000E+00 -0.45593999997E+02  0.45594000000E+02  0.51100000000E-03 0.  1.
    9900012    2    1    2    0    0  0.33860888209E+02 -0.20551662794E+02  0.17739566804E+02  0.47787276224E+02  0.20000023616E+02 0.  0.
         12    1    1    2    0    0 -0.33860888209E+02  0.20551662794E+02 -0.17739566804E+02  0.43400723776E+02  0.00000000000E+00 0. -1.
         11    1    3    3    0    0  0.73882382266E+01 -0.10564215492E+01  0.32224384564E+01  0.81293419444E+01  0.51100000000E-03 0. -1.
        -11    1    3    3    0    0  0.56021680552E+01 -0.15286306773E+01 -0.34706941891E+01  0.67651102786E+01  0.51100000000E-03 0.  1.
         12    1    3    3    0    0  0.20870481927E+02 -0.17966610567E+02  0.17987822537E+02  0.32892824001E+02  0.00000000000E+00 0. -1.
</event>
<event>
 7    1  0.4875579E-009  0.4778727E+02  0.7816164E-02  0.1312668E+00
        -11   -1    0    0    0    0  0.00000000000E+00  0.00000000000E+00  0.45593999997E+02  0.45594000000E+02  0.51100000000E-03 0. -1.
         11   -1    0    0    0    0 -0.00000000000E+00 -0.00000000000E+00 -0.45593999997E+02  0.45594000000E+02  0.51100000000E-03 0.  1.
    9900012    2    1    2    0    0 -0.32684487411E+02 -0.28359641999E+02 -0.33284182392E+01  0.47787269826E+02  0.19999994446E+02 0.  0.
         12    1    1    2    0    0  0.32684487411E+02  0.28359641999E+02  0.33284182392E+01  0.43400730174E+02  0.00000000000E+00 0. -1.
         11    1    3    3    0    0 -0.25020340848E+02 -0.19697173986E+02  0.38914009175E+00  0.31845683372E+02  0.51100000000E-03 0. -1.
        -11    1    3    3    0    0 -0.10100774426E+02 -0.68196875390E+01 -0.41093035045E+01  0.12861576796E+02  0.51100000000E-03 0.  1.
         12    1    3    3    0    0  0.24366278622E+01 -0.18427804735E+01  0.39174517352E+00  0.30800096580E+01  0.00000000000E+00 0. -1.
</event>
<event>
 7    1  0.4875579E-009  0.4778728E+02  0.7816164E-02  0.1312668E+00
        -11   -1    0    0    0    0  0.00000000000E+00  0.00000000000E+00  0.45593999997E+02  0.45594000000E+02  0.51100000000E-03 0. -1.
         11   -1    0    0    0    0 -0.00000000000E+00 -0.00000000000E+00 -0.45593999997E+02  0.45594000000E+02  0.51100000000E-03 0.  1.
    9900012    2    1    2    0    0  0.31720052587E+02  0.19428876501E+02 -0.22360227875E+02  0.47787276863E+02  0.20000026527E+02 0.  0.
         12    1    1    2    0    0 -0.31720052587E+02 -0.19428876501E+02  0.22360227875E+02  0.43400723137E+02  0.00000000000E+00 0. -1.
         11    1    3    3    0    0  0.51524029204E+01 -0.20799557747E+01 -0.25091528161E+01  0.60966646615E+01  0.51100000000E-03 0. -1.
        -11    1    3    3    0    0 -0.20682626983E+00  0.53205706294E+01 -0.21473711560E+01  0.57412935887E+01  0.51100000000E-03 0.  1.
        -12    1    3    3    0    0  0.26774475936E+02  0.16188261647E+02 -0.17703703903E+02  0.35949318612E+02  0.00000000000E+00 0.  1.
</event>
<event>
 7    1  0.4875579E-009  0.4778728E+02  0.7816164E-02  0.1312668E+00
        -11   -1    0    0    0    0  0.00000000000E+00  0.00000000000E+00  0.45593999997E+02  0.45594000000E+02  0.51100000000E-03 0. -1.
         11   -1    0    0    0    0 -0.00000000000E+00 -0.00000000000E+00 -0.45593999997E+02  0.45594000000E+02  0.51100000000E-03 0.  1.
    9900012    2    1    2    0    0  0.11143023643E+01  0.42252418888E+02  0.98546555538E+01  0.47787276415E+02  0.20000024486E+02 0.  0.
         12    1    1    2    0    0 -0.11143023643E+01 -0.42252418888E+02 -0.98546555538E+01  0.43400723585E+02  0.00000000000E+00 0. -1.
         11    1    3    3    0    0  0.38666472472E+01  0.29144955809E+02  0.34607740735E+01  0.29603316832E+02  0.51100000000E-03 0. -1.
        -11    1    3    3    0    0  0.51933506987E+00  0.11031148184E+02  0.83485727698E+01  0.13843937544E+02  0.51100000000E-03 0.  1.
         12    1    3    3    0    0 -0.32716799528E+01  0.20763148947E+01 -0.19546912895E+01  0.43400220382E+01  0.00000000000E+00 0. -1.
</event>
<event>
 7    1  0.4875579E-009  0.4778727E+02  0.7816164E-02  0.1312668E+00
        -11   -1    0    0    0    0  0.00000000000E+00  0.00000000000E+00  0.45593999997E+02  0.45594000000E+02  0.51100000000E-03 0.  1.
         11   -1    0    0    0    0 -0.00000000000E+00 -0.00000000000E+00 -0.45593999997E+02  0.45594000000E+02  0.51100000000E-03 0. -1.
    9900012    2    1    2    0    0 -0.77834709573E+01 -0.21027036270E+02  0.37160524863E+02  0.47787270945E+02  0.19999999547E+02 0.  0.
         12    1    1    2    0    0  0.77834709573E+01  0.21027036270E+02 -0.37160524863E+02  0.43400729055E+02  0.00000000000E+00 0. -1.
         11    1    3    3    0    0  0.25333549567E+01 -0.17304061992E+02  0.16105429852E+02  0.23774636059E+02  0.51100000000E-03 0. -1.
        -11    1    3    3    0    0 -0.28641108069E+01 -0.23067178701E+01  0.45707925698E+01  0.58665341577E+01  0.51100000000E-03 0.  1.
         12    1    3    3    0    0 -0.74527151071E+01 -0.14162564077E+01  0.16484302441E+02  0.18146100728E+02  0.00000000000E+00 0. -1.
</event>
<event>
 7    1  0.4875579E-009  0.4778727E+02  0.7816164E-02  0.1312668E+00
        -11   -1    0    0    0    0  0.00000000000E+00  0.00000000000E+00  0.45593999997E+02  0.45594000000E+02  0.51100000000E-03 0.  1.
         11   -1    0    0    0    0 -0.00000000000E+00 -0.00000000000E+00 -0.45593999997E+02  0.45594000000E+02  0.51100000000E-03 0. -1.
    9900012    2    1    2    0    0  0.26139235156E+02 -0.76113666588E+01  0.33799868418E+02  0.47787267033E+02  0.19999981711E+02 0.  0.
         12    1    1    2    0    0 -0.26139235156E+02  0.76113666588E+01 -0.33799868418E+02  0.43400732967E+02  0.00000000000E+00 0. -1.
         11    1    3    3    0    0  0.81100166605E+01  0.26695823830E+01  0.11013725147E+02  0.13935608426E+02  0.51100000000E-03 0. -1.
        -11    1    3    3    0    0  0.60599503216E+01  0.33207361852E+01  0.66289428356E+01  0.95756550737E+01  0.51100000000E-03 0.  1.
         12    1    3    3    0    0  0.11969268174E+02 -0.13601685227E+02  0.16157200436E+02  0.24276003534E+02  0.00000000000E+00 0. -1.
</event>
<event>
 7    1  0.4875579E-009  0.4778727E+02  0.7816164E-02  0.1312668E+00
        -11   -1    0    0    0    0  0.00000000000E+00  0.00000000000E+00  0.45593999997E+02  0.45594000000E+02  0.51100000000E-03 0. -1.
         11   -1    0    0    0    0 -0.00000000000E+00 -0.00000000000E+00 -0.45593999997E+02  0.45594000000E+02  0.51100000000E-03 0.  1.
    9900012    2    1    2    0    0  0.52933078040E+01 -0.30693034467E+02 -0.30224848625E+02  0.47787274814E+02  0.20000017185E+02 0.  0.
         12    1    1    2    0    0 -0.52933078040E+01  0.30693034467E+02  0.30224848625E+02  0.43400725186E+02  0.00000000000E+00 0. -1.
         11    1    3    3    0    0  0.34853086238E+00  0.11403218312E+01 -0.60251024709E+01  0.61419595966E+01  0.51100000000E-03 0. -1.
        -11    1    3    3    0    0 -0.14080121526E+01 -0.82649933990E-01 -0.42071404321E+00  0.14718457123E+01  0.51100000000E-03 0.  1.
        -12    1    3    3    0    0  0.63527890942E+01 -0.31750706364E+02 -0.23779032111E+02  0.40173469505E+02  0.00000000000E+00 0.  1.
</event>
<event>
 7    1  0.4875579E-009  0.4778727E+02  0.7816164E-02  0.1312668E+00
        -11   -1    0    0    0    0  0.00000000000E+00  0.00000000000E+00  0.45593999997E+02  0.45594000000E+02  0.51100000000E-03 0.  1.
         11   -1    0    0    0    0 -0.00000000000E+00 -0.00000000000E+00 -0.45593999997E+02  0.45594000000E+02  0.51100000000E-03 0. -1.
    9900012    2    1    2    0    0  0.38966688737E+02 -0.11569233319E+01  0.19075690084E+02  0.47787271263E+02  0.20000000997E+02 0.  0.
         12    1    1    2    0    0 -0.38966688737E+02  0.11569233319E+01 -0.19075690084E+02  0.43400728737E+02  0.00000000000E+00 0. -1.
         11    1    3    3    0    0  0.17754733886E+02  0.47333660358E-01  0.15584985057E+01  0.17823067460E+02  0.51100000000E-03 0. -1.
        -11    1    3    3    0    0  0.20904805862E+02 -0.29411824086E+00  0.11480586262E+02  0.23851651407E+02  0.51100000000E-03 0.  1.
         12    1    3    3    0    0  0.30714898934E+00 -0.91013875144E+00  0.60366053167E+01  0.61125523964E+01  0.00000000000E+00 0. -1.
</event>
<event>
 7    1  0.4875579E-009  0.4778728E+02  0.7816164E-02  0.1312668E+00
        -11   -1    0    0    0    0  0.00000000000E+00  0.00000000000E+00  0.45593999997E+02  0.45594000000E+02  0.51100000000E-03 0.  1.
         11   -1    0    0    0    0 -0.00000000000E+00 -0.00000000000E+00 -0.45593999997E+02  0.45594000000E+02  0.51100000000E-03 0. -1.
    9900012    2    1    2    0    0 -0.12586715397E+02  0.20375884967E+01  0.41485487681E+02  0.47787275818E+02  0.20000021766E+02 0.  0.
         12    1    1    2    0    0  0.12586715397E+02 -0.20375884967E+01 -0.41485487681E+02  0.43400724182E+02  0.00000000000E+00 0. -1.
         11    1    3    3    0    0 -0.17435197635E+01 -0.42319511047E+01  0.10171898346E+02  0.11154227340E+02  0.51100000000E-03 0. -1.
        -11    1    3    3    0    0  0.19668387731E+01  0.24659947973E+01  0.16004239153E+02  0.16312119918E+02  0.51100000000E-03 0.  1.
         12    1    3    3    0    0 -0.12810034406E+02  0.38035448042E+01  0.15309350181E+02  0.20320928560E+02  0.00000000000E+00 0. -1.
</event>
<event>
 7    1  0.4875579E-009  0.4778727E+02  0.7816164E-02  0.1312668E+00
        -11   -1    0    0    0    0  0.00000000000E+00  0.00000000000E+00  0.45593999997E+02  0.45594000000E+02  0.51100000000E-03 0. -1.
         11   -1    0    0    0    0 -0.00000000000E+00 -0.00000000000E+00 -0.45593999997E+02  0.45594000000E+02  0.51100000000E-03 0.  1.
    9900012    2    1    2    0    0  0.27447957847E+02  0.13380387217E+02  0.30841499693E+02  0.47787271258E+02  0.20000000973E+02 0.  0.
         12    1    1    2    0    0 -0.27447957847E+02 -0.13380387217E+02 -0.30841499693E+02  0.43400728742E+02  0.00000000000E+00 0. -1.
         11    1    3    3    0    0  0.67857246712E+01  0.34426024785E+01  0.17328947917E+02  0.18925908362E+02  0.51100000000E-03 0.  1.
        -11    1    3    3    0    0  0.11431073935E+01  0.52872422174E+01  0.34294340642E+01  0.64048921178E+01  0.51100000000E-03 0. -1.
        -12    1    3    3    0    0  0.19519125782E+02  0.46505425208E+01  0.10083117712E+02  0.22456470778E+02  0.00000000000E+00 0.  1.
</event>
<event>
 7    1  0.4875579E-009  0.4778727E+02  0.7816164E-02  0.1312668E+00
        -11   -1    0    0    0    0  0.00000000000E+00  0.00000000000E+00  0.45593999997E+02  0.45594000000E+02  0.51100000000E-03 0. -1.
         11   -1    0    0    0    0 -0.00000000000E+00 -0.00000000000E+00 -0.45593999997E+02  0.45594000000E+02  0.51100000000E-03 0.  1.
    9900012    2    1    2    0    0  0.26003001084E+02 -0.29974920435E+02  0.17577581107E+02  0.47787270996E+02  0.19999999779E+02 0.  0.
         12    1    1    2    0    0 -0.26003001084E+02  0.29974920435E+02 -0.17577581107E+02  0.43400729004E+02  0.00000000000E+00 0. -1.
         11    1    3    3    0    0 -0.12130524831E+01 -0.27710690679E+01  0.42656912969E+01  0.52293826220E+01  0.51100000000E-03 0. -1.
        -11    1    3    3    0    0  0.26153057185E+01 -0.10167712247E+02  0.34492448982E+01  0.11050768615E+02  0.51100000000E-03 0.  1.
        -12    1    3    3    0    0  0.24600747849E+02 -0.17036139120E+02  0.98626449121E+01  0.31507119759E+02  0.00000000000E+00 0.  1.
</event>
<event>
 7    1  0.4875579E-009  0.4778726E+02  0.7816164E-02  0.1312668E+00
        -11   -1    0    0    0    0  0.00000000000E+00  0.00000000000E+00  0.45593999997E+02  0.45594000000E+02  0.51100000000E-03 0.  1.
         11   -1    0    0    0    0 -0.00000000000E+00 -0.00000000000E+00 -0.45593999997E+02  0.45594000000E+02  0.51100000000E-03 0. -1.
    9900012    2    1    2    0    0 -0.42881142016E+02 -0.50140165490E+01  0.44374844874E+01  0.47787263012E+02  0.19999963376E+02 0.  0.
         12    1    1    2    0    0  0.42881142016E+02  0.50140165490E+01 -0.44374844874E+01  0.43400736988E+02  0.00000000000E+00 0. -1.
         11    1    3    3    0    0 -0.75431689373E+01  0.33583128412E+01 -0.39842198419E+01  0.91679698279E+01  0.51100000000E-03 0. -1.
        -11    1    3    3    0    0 -0.21742712715E+02 -0.41855544516E+00  0.29549094943E+01  0.21946576846E+02  0.51100000000E-03 0.  1.
         12    1    3    3    0    0 -0.13595260363E+02 -0.79537739450E+01  0.54667948350E+01  0.16672716338E+02  0.00000000000E+00 0. -1.
</event>
<event>
 7    1  0.4875579E-009  0.4778727E+02  0.7816164E-02  0.1312668E+00
        -11   -1    0    0    0    0  0.00000000000E+00  0.00000000000E+00  0.45593999997E+02  0.45594000000E+02  0.51100000000E-03 0. -1.
         11   -1    0    0    0    0 -0.00000000000E+00 -0.00000000000E+00 -0.45593999997E+02  0.45594000000E+02  0.51100000000E-03 0.  1.
    9900012    2    1    2    0    0 -0.20786717158E+02 -0.34554306627E+02  0.16047917757E+02  0.47787269810E+02  0.19999994373E+02 0.  0.
         12    1    1    2    0    0  0.20786717158E+02  0.34554306627E+02 -0.16047917757E+02  0.43400730190E+02  0.00000000000E+00 0. -1.
         11    1    3    3    0    0 -0.27436916451E+00 -0.20636444700E+01  0.72049262874E+01  0.74996579925E+01  0.51100000000E-03 0. -1.
        -11    1    3    3    0    0 -0.16857511291E+01 -0.57658575841E+01  0.40568833058E+01  0.72488049338E+01  0.51100000000E-03 0.  1.
        -12    1    3    3    0    0 -0.18826596865E+02 -0.26724804573E+02  0.47861081635E+01  0.33038806884E+02  0.00000000000E+00 0.  1.
</event>
<event>
 7    1  0.4875579E-009  0.4778727E+02  0.7816164E-02  0.1312668E+00
        -11   -1    0    0    0    0  0.00000000000E+00  0.00000000000E+00  0.45593999997E+02  0.45594000000E+02  0.51100000000E-03 0.  1.
         11   -1    0    0    0    0 -0.00000000000E+00 -0.00000000000E+00 -0.45593999997E+02  0.45594000000E+02  0.51100000000E-03 0. -1.
    9900012    2    1    2    0    0  0.17757652971E+02  0.52224215328E+00  0.39598186726E+02  0.47787269962E+02  0.19999995064E+02 0.  0.
         12    1    1    2    0    0 -0.17757652971E+02 -0.52224215328E+00 -0.39598186726E+02  0.43400730038E+02  0.00000000000E+00 0. -1.
         11    1    3    3    0    0  0.21174921012E+01  0.27133602911E+01  0.11833358749E+02  0.12323736301E+02  0.51100000000E-03 0. -1.
        -11    1    3    3    0    0  0.15546081116E+00  0.23374715769E+00 -0.18957730135E+01  0.19164449842E+01  0.51100000000E-03 0.  1.
        -12    1    3    3    0    0  0.15484700058E+02 -0.24248652955E+01  0.29660600990E+02  0.33547088677E+02  0.00000000000E+00 0.  1.
</event>
<event>
 7    1  0.4875579E-009  0.4778727E+02  0.7816164E-02  0.1312668E+00
        -11   -1    0    0    0    0  0.00000000000E+00  0.00000000000E+00  0.45593999997E+02  0.45594000000E+02  0.51100000000E-03 0. -1.
         11   -1    0    0    0    0 -0.00000000000E+00 -0.00000000000E+00 -0.45593999997E+02  0.45594000000E+02  0.51100000000E-03 0.  1.
    9900012    2    1    2    0    0 -0.62595729879E+01  0.33535379395E+02 -0.26829448296E+02  0.47787271653E+02  0.20000002777E+02 0.  0.
         12    1    1    2    0    0  0.62595729879E+01 -0.33535379395E+02  0.26829448296E+02  0.43400728347E+02  0.00000000000E+00 0. -1.
         11    1    3    3    0    0 -0.16930632430E+01  0.77484662506E+00 -0.91276536546E+01  0.93156272970E+01  0.51100000000E-03 0. -1.
        -11    1    3    3    0    0 -0.44271115485E-01  0.28931464294E+01  0.85769233922E+00  0.30179285285E+01  0.51100000000E-03 0.  1.
        -12    1    3    3    0    0 -0.45222386295E+01  0.29867386340E+02 -0.18559486981E+02  0.35453715828E+02  0.00000000000E+00 0.  1.
</event>
<event>
 7    1  0.4875579E-009  0.4778727E+02  0.7816164E-02  0.1312668E+00
        -11   -1    0    0    0    0  0.00000000000E+00  0.00000000000E+00  0.45593999997E+02  0.45594000000E+02  0.51100000000E-03 0. -1.
         11   -1    0    0    0    0 -0.00000000000E+00 -0.00000000000E+00 -0.45593999997E+02  0.45594000000E+02  0.51100000000E-03 0.  1.
    9900012    2    1    2    0    0  0.10263573449E+02  0.25134103498E+02 -0.33860881519E+02  0.47787269639E+02  0.19999993593E+02 0.  0.
         12    1    1    2    0    0 -0.10263573449E+02 -0.25134103498E+02  0.33860881519E+02  0.43400730361E+02  0.00000000000E+00 0. -1.
         11    1    3    3    0    0  0.18019033804E+01  0.93991779740E+00  0.18508186688E+01  0.27487872351E+01  0.51100000000E-03 0. -1.
        -11    1    3    3    0    0  0.31290791165E+01  0.58330880341E+00 -0.51194744862E+01  0.60283003039E+01  0.51100000000E-03 0.  1.
        -12    1    3    3    0    0  0.53325909517E+01  0.23610876897E+02 -0.30592225702E+02  0.39010182100E+02  0.00000000000E+00 0.  1.
</event>
<event>
 7    1  0.4875579E-009  0.4778727E+02  0.7816164E-02  0.1312668E+00
        -11   -1    0    0    0    0  0.00000000000E+00  0.00000000000E+00  0.45593999997E+02  0.45594000000E+02  0.51100000000E-03 0.  1.
         11   -1    0    0    0    0 -0.00000000000E+00 -0.00000000000E+00 -0.45593999997E+02  0.45594000000E+02  0.51100000000E-03 0. -1.
    9900012    2    1    2    0    0  0.36434886537E+02 -0.23367839630E+02  0.31727418895E+01  0.47787272160E+02  0.20000005087E+02 0.  0.
         12    1    1    2    0    0 -0.36434886537E+02  0.23367839630E+02 -0.31727418895E+01  0.43400727840E+02  0.00000000000E+00 0. -1.
         11    1    3    3    0    0  0.14582011556E+02 -0.14311502666E+02  0.10200189551E+02  0.22836331508E+02  0.51100000000E-03 0. -1.
        -11    1    3    3    0    0  0.85518273537E+01 -0.50529237322E+01 -0.17191976999E+01  0.10080745524E+02  0.51100000000E-03 0.  1.
         12    1    3    3    0    0  0.13301047628E+02 -0.40034132313E+01 -0.53082499620E+01  0.14870195128E+02  0.00000000000E+00 0. -1.
</event>
<event>
 7    1  0.4875579E-009  0.4778727E+02  0.7816164E-02  0.1312668E+00
        -11   -1    0    0    0    0  0.00000000000E+00  0.00000000000E+00  0.45593999997E+02  0.45594000000E+02  0.51100000000E-03 0.  1.
         11   -1    0    0    0    0 -0.00000000000E+00 -0.00000000000E+00 -0.45593999997E+02  0.45594000000E+02  0.51100000000E-03 0. -1.
    9900012    2    1    2    0    0 -0.34311978374E+02  0.23869651232E+02  0.11685511099E+02  0.47787270979E+02  0.19999999702E+02 0.  0.
         12    1    1    2    0    0  0.34311978374E+02 -0.23869651232E+02 -0.11685511099E+02  0.43400729021E+02  0.00000000000E+00 0. -1.
         11    1    3    3    0    0 -0.17884256437E+02  0.36594545580E+01  0.17569213497E+01  0.18339165980E+02  0.51100000000E-03 0. -1.
        -11    1    3    3    0    0 -0.13851179615E+01  0.95959508859E-01 -0.13305157037E+01  0.19230268572E+01  0.51100000000E-03 0.  1.
        -12    1    3    3    0    0 -0.15042603976E+02  0.20114237165E+02  0.11259105453E+02  0.27525078142E+02  0.00000000000E+00 0.  1.
</event>
<event>
 7    1  0.4875579E-009  0.4778727E+02  0.7816164E-02  0.1312668E+00
        -11   -1    0    0    0    0  0.00000000000E+00  0.00000000000E+00  0.45593999997E+02  0.45594000000E+02  0.51100000000E-03 0.  1.
         11   -1    0    0    0    0 -0.00000000000E+00 -0.00000000000E+00 -0.45593999997E+02  0.45594000000E+02  0.51100000000E-03 0. -1.
    9900012    2    1    2    0    0 -0.28266826718E+02  0.30048519309E+02 -0.13479486350E+02  0.47787267776E+02  0.19999985096E+02 0.  0.
         12    1    1    2    0    0  0.28266826718E+02 -0.30048519309E+02  0.13479486350E+02  0.43400732224E+02  0.00000000000E+00 0. -1.
         11    1    3    3    0    0 -0.24025728076E+01  0.33034718008E+01  0.21736134000E+01  0.46270808841E+01  0.51100000000E-03 0. -1.
        -11    1    3    3    0    0 -0.88236697726E+01  0.80076585168E+00 -0.58172364384E+01  0.10598991190E+02  0.51100000000E-03 0.  1.
        -12    1    3    3    0    0 -0.17040584138E+02  0.25944281656E+02 -0.98358633118E+01  0.32561195701E+02  0.00000000000E+00 0.  1.
</event>
<event>
 7    1  0.4875579E-009  0.4778727E+02  0.7816164E-02  0.1312668E+00
        -11   -1    0    0    0    0  0.00000000000E+00  0.00000000000E+00  0.45593999997E+02  0.45594000000E+02  0.51100000000E-03 0.  1.
         11   -1    0    0    0    0 -0.00000000000E+00 -0.00000000000E+00 -0.45593999997E+02  0.45594000000E+02  0.51100000000E-03 0. -1.
    9900012    2    1    2    0    0 -0.14635287710E+02  0.36130763354E+02  0.19078764728E+02  0.47787274540E+02  0.20000015936E+02 0.  0.
         12    1    1    2    0    0  0.14635287710E+02 -0.36130763354E+02 -0.19078764728E+02  0.43400725460E+02  0.00000000000E+00 0. -1.
         11    1    3    3    0    0  0.92889353197E+00  0.42269538672E+01 -0.15092106428E+01  0.45834156712E+01  0.51100000000E-03 0. -1.
        -11    1    3    3    0    0 -0.10836965124E+02  0.24656758565E+02  0.83150644086E+01  0.28187512349E+02  0.51100000000E-03 0.  1.
         12    1    3    3    0    0 -0.47272161187E+01  0.72470509218E+01  0.12272910963E+02  0.15016346520E+02  0.00000000000E+00 0. -1.
</event>
<event>
 7    1  0.4875579E-009  0.4778727E+02  0.7816164E-02  0.1312668E+00
        -11   -1    0    0    0    0  0.00000000000E+00  0.00000000000E+00  0.45593999997E+02  0.45594000000E+02  0.51100000000E-03 0.  1.
         11   -1    0    0    0    0 -0.00000000000E+00 -0.00000000000E+00 -0.45593999997E+02  0.45594000000E+02  0.51100000000E-03 0. -1.
    9900012    2    1    2    0    0 -0.14358058089E+01  0.42907232110E+02  0.63664446978E+01  0.47787265862E+02  0.19999976370E+02 0.  0.
         12    1    1    2    0    0  0.14358058089E+01 -0.42907232110E+02 -0.63664446978E+01  0.43400734138E+02  0.00000000000E+00 0. -1.
         11    1    3    3    0    0  0.34428107485E+01  0.24498705718E+02  0.16990020820E+01  0.24797704249E+02  0.51100000000E-03 0. -1.
        -11    1    3    3    0    0 -0.12178761744E+01  0.15364807710E+02  0.78162844411E+01  0.17281633056E+02  0.51100000000E-03 0.  1.
         12    1    3    3    0    0 -0.36607403830E+01  0.30437186818E+01 -0.31488418253E+01  0.57079285565E+01  0.00000000000E+00 0. -1.
</event>
<event>
 7    1  0.4875579E-009  0.4778728E+02  0.7816164E-02  0.1312668E+00
        -11   -1    0    0    0    0  0.00000000000E+00  0.00000000000E+00  0.45593999997E+02  0.45594000000E+02  0.51100000000E-03 0.  1.
         11   -1    0    0    0    0 -0.00000000000E+00 -0.00000000000E+00 -0.45593999997E+02  0.45594000000E+02  0.51100000000E-03 0. -1.
    9900012    2    1    2    0    0  0.79479516768E+00  0.14948045515E+02  0.40737538739E+02  0.47787276197E+02  0.20000023492E+02 0.  0.
         12    1    1    2    0    0 -0.79479516768E+00 -0.14948045515E+02 -0.40737538739E+02  0.43400723803E+02  0.00000000000E+00 0. -1.
         11    1    3    3    0    0 -0.21433432458E+01  0.10479756050E+02  0.94519885499E+01  0.14274428008E+02  0.51100000000E-03 0. -1.
        -11    1    3    3    0    0  0.38688932453E+01  0.19028075464E+00  0.30239430694E+01  0.49141401747E+01  0.51100000000E-03 0.  1.
        -12    1    3    3    0    0 -0.93075483180E+00  0.42780087105E+01  0.28261607120E+02  0.28598708014E+02  0.00000000000E+00 0.  1.
</event>
<event>
 7    1  0.4875579E-009  0.4778728E+02  0.7816164E-02  0.1312668E+00
        -11   -1    0    0    0    0  0.00000000000E+00  0.00000000000E+00  0.45593999997E+02  0.45594000000E+02  0.51100000000E-03 0.  1.
         11   -1    0    0    0    0 -0.00000000000E+00 -0.00000000000E+00 -0.45593999997E+02  0.45594000000E+02  0.51100000000E-03 0. -1.
    9900012    2    1    2    0    0 -0.29489450536E+02 -0.99796953652E+01  0.30239062310E+02  0.47787275330E+02  0.20000019540E+02 0.  0.
         12    1    1    2    0    0  0.29489450536E+02  0.99796953652E+01 -0.30239062310E+02  0.43400724670E+02  0.00000000000E+00 0. -1.
         11    1    3    3    0    0  0.15128513671E+01 -0.41002591226E+00  0.97102753252E+00  0.18438370963E+01  0.51100000000E-03 0. -1.
        -11    1    3    3    0    0 -0.85943108928E+01  0.21198086312E+01  0.26544153614E+01  0.92413034539E+01  0.51100000000E-03 0.  1.
        -12    1    3    3    0    0 -0.22407991010E+02 -0.11689478084E+02  0.26613619416E+02  0.36702134780E+02  0.00000000000E+00 0.  1.
</event>
<event>
 7    1  0.4875579E-009  0.4778727E+02  0.7816164E-02  0.1312668E+00
        -11   -1    0    0    0    0  0.00000000000E+00  0.00000000000E+00  0.45593999997E+02  0.45594000000E+02  0.51100000000E-03 0.  1.
         11   -1    0    0    0    0 -0.00000000000E+00 -0.00000000000E+00 -0.45593999997E+02  0.45594000000E+02  0.51100000000E-03 0. -1.
    9900012    2    1    2    0    0 -0.26191580489E+02  0.15472480613E+02  0.30955240624E+02  0.47787268821E+02  0.19999989862E+02 0.  0.
         12    1    1    2    0    0  0.26191580489E+02 -0.15472480613E+02 -0.30955240624E+02  0.43400731179E+02  0.00000000000E+00 0. -1.
         11    1    3    3    0    0 -0.87984637399E+01 -0.31885918047E+01  0.13833925548E+02  0.16702023177E+02  0.51100000000E-03 0. -1.
        -11    1    3    3    0    0 -0.20814375900E+01  0.47784659546E+01  0.43559875031E+01  0.67926980434E+01  0.51100000000E-03 0.  1.
         12    1    3    3    0    0 -0.15311679159E+02  0.13882606463E+02  0.12765327572E+02  0.24292547600E+02  0.00000000000E+00 0. -1.
</event>
<event>
 7    1  0.4875579E-009  0.4778727E+02  0.7816164E-02  0.1312668E+00
        -11   -1    0    0    0    0  0.00000000000E+00  0.00000000000E+00  0.45593999997E+02  0.45594000000E+02  0.51100000000E-03 0. -1.
         11   -1    0    0    0    0 -0.00000000000E+00 -0.00000000000E+00 -0.45593999997E+02  0.45594000000E+02  0.51100000000E-03 0.  1.
    9900012    2    1    2    0    0 -0.10560788504E+02  0.79616323407E+01 -0.41336489981E+02  0.47787271351E+02  0.20000001397E+02 0.  0.
         12    1    1    2    0    0  0.10560788504E+02 -0.79616323407E+01  0.41336489981E+02  0.43400728649E+02  0.00000000000E+00 0. -1.
         11    1    3    3    0    0 -0.57298239645E+01  0.66383483979E+01 -0.52667792021E+01  0.10229248044E+02  0.51100000000E-03 0. -1.
        -11    1    3    3    0    0 -0.31621683774E+01  0.38278888960E+00 -0.28230529837E+01  0.42562265672E+01  0.51100000000E-03 0.  1.
        -12    1    3    3    0    0 -0.16687961616E+01  0.94049505319E+00 -0.33246657795E+02  0.33301796740E+02  0.00000000000E+00 0.  1.
</event>
<event>
 7    1  0.4875579E-009  0.4778725E+02  0.7816164E-02  0.1312668E+00
        -11   -1    0    0    0    0  0.00000000000E+00  0.00000000000E+00  0.45593999997E+02  0.45594000000E+02  0.51100000000E-03 0. -1.
         11   -1    0    0    0    0 -0.00000000000E+00 -0.00000000000E+00 -0.45593999997E+02  0.45594000000E+02  0.51100000000E-03 0.  1.
    9900012    2    1    2    0    0 -0.37400649157E+02  0.18058343595E+02 -0.12598110003E+02  0.47787254541E+02  0.19999924753E+02 0.  0.
         12    1    1    2    0    0  0.37400649157E+02 -0.18058343595E+02  0.12598110003E+02  0.43400745459E+02  0.00000000000E+00 0. -1.
         11    1    3    3    0    0 -0.13273893697E+01  0.31198598883E+01 -0.70708310751E+01  0.78416924586E+01  0.51100000000E-03 0. -1.
        -11    1    3    3    0    0 -0.20017900638E+01  0.25193865896E+01 -0.11540740910E+01  0.34185317779E+01  0.51100000000E-03 0.  1.
        -12    1    3    3    0    0 -0.34071469723E+02  0.12419097117E+02 -0.43732048373E+01  0.36527030304E+02  0.00000000000E+00 0.  1.
</event>
<event>
 7    1  0.4875579E-009  0.4778727E+02  0.7816164E-02  0.1312668E+00
        -11   -1    0    0    0    0  0.00000000000E+00  0.00000000000E+00  0.45593999997E+02  0.45594000000E+02  0.51100000000E-03 0.  1.
         11   -1    0    0    0    0 -0.00000000000E+00 -0.00000000000E+00 -0.45593999997E+02  0.45594000000E+02  0.51100000000E-03 0. -1.
    9900012    2    1    2    0    0 -0.34209503842E+02 -0.10742061267E+02  0.24452832375E+02  0.47787273686E+02  0.20000012046E+02 0.  0.
         12    1    1    2    0    0  0.34209503842E+02  0.10742061267E+02 -0.24452832375E+02  0.43400726314E+02  0.00000000000E+00 0. -1.
         11    1    3    3    0    0 -0.13047677936E+02 -0.43615952913E+00  0.49466177345E+01  0.13960700624E+02  0.51100000000E-03 0. -1.
        -11    1    3    3    0    0 -0.11297562045E+02 -0.12761800905E+02  0.15010078409E+02  0.22711251058E+02  0.51100000000E-03 0.  1.
        -12    1    3    3    0    0 -0.98642638617E+01  0.24558991677E+01  0.44961362315E+01  0.11115322005E+02  0.00000000000E+00 0.  1.
</event>
<event>
 7    1  0.4875579E-009  0.4778727E+02  0.7816164E-02  0.1312668E+00
        -11   -1    0    0    0    0  0.00000000000E+00  0.00000000000E+00  0.45593999997E+02  0.45594000000E+02  0.51100000000E-03 0.  1.
         11   -1    0    0    0    0 -0.00000000000E+00 -0.00000000000E+00 -0.45593999997E+02  0.45594000000E+02  0.51100000000E-03 0. -1.
    9900012    2    1    2    0    0 -0.70009913259E+01  0.12079247249E+02  0.41093811302E+02  0.47787269350E+02  0.19999992274E+02 0.  0.
         12    1    1    2    0    0  0.70009913259E+01 -0.12079247249E+02 -0.41093811302E+02  0.43400730650E+02  0.00000000000E+00 0. -1.
         11    1    3    3    0    0  0.53155747901E+01  0.45200937191E+01  0.11333501131E+02  0.13309200980E+02  0.51100000000E-03 0. -1.
        -11    1    3    3    0    0  0.16609367252E+01  0.49442441210E+00  0.25662746361E+01  0.30966000829E+01  0.51100000000E-03 0.  1.
        -12    1    3    3    0    0 -0.13977502841E+02  0.70647291174E+01  0.27194035535E+02  0.31381468287E+02  0.00000000000E+00 0.  1.
</event>
<event>
 7    1  0.4875579E-009  0.4778725E+02  0.7816164E-02  0.1312668E+00
        -11   -1    0    0    0    0  0.00000000000E+00  0.00000000000E+00  0.45593999997E+02  0.45594000000E+02  0.51100000000E-03 0.  1.
         11   -1    0    0    0    0 -0.00000000000E+00 -0.00000000000E+00 -0.45593999997E+02  0.45594000000E+02  0.51100000000E-03 0. -1.
    9900012    2    1    2    0    0 -0.43074300855E+02  0.51607301820E+01 -0.12635264342E+01  0.47787250822E+02  0.19999907798E+02 0.  0.
         12    1    1    2    0    0  0.43074300855E+02 -0.51607301820E+01  0.12635264342E+01  0.43400749178E+02  0.00000000000E+00 0. -1.
         11    1    3    3    0    0 -0.75585598276E+01  0.26982785500E+01 -0.41941583632E+01  0.90555783050E+01  0.51100000000E-03 0. -1.
        -11    1    3    3    0    0 -0.76162842540E+01 -0.56789487856E+01 -0.18374597416E+00  0.95022106897E+01  0.51100000000E-03 0.  1.
         12    1    3    3    0    0 -0.27899456773E+02  0.81414004176E+01  0.31143779032E+01  0.29229461827E+02  0.00000000000E+00 0. -1.
</event>
<event>
 7    1  0.4875579E-009  0.4778727E+02  0.7816164E-02  0.1312668E+00
        -11   -1    0    0    0    0  0.00000000000E+00  0.00000000000E+00  0.45593999997E+02  0.45594000000E+02  0.51100000000E-03 0. -1.
         11   -1    0    0    0    0 -0.00000000000E+00 -0.00000000000E+00 -0.45593999997E+02  0.45594000000E+02  0.51100000000E-03 0.  1.
    9900012    2    1    2    0    0  0.30698640384E+02 -0.15492199367E+01 -0.30640117098E+02  0.47787269826E+02  0.19999994446E+02 0.  0.
         12    1    1    2    0    0 -0.30698640384E+02  0.15492199367E+01  0.30640117098E+02  0.43400730174E+02  0.00000000000E+00 0. -1.
         11    1    3    3    0    0 -0.76939441739E+00  0.87364763938E+00 -0.25708824519E+01  0.28221737739E+01  0.51100000000E-03 0. -1.
        -11    1    3    3    0    0  0.89379128969E+01  0.36152397928E+01 -0.16055212718E+02  0.18727682755E+02  0.51100000000E-03 0.  1.
         12    1    3    3    0    0  0.22530121904E+02 -0.60381073689E+01 -0.12014021928E+02  0.26237413297E+02  0.00000000000E+00 0. -1.
</event>
<event>
 7    1  0.4875579E-009  0.4778731E+02  0.7816164E-02  0.1312668E+00
        -11   -1    0    0    0    0  0.00000000000E+00  0.00000000000E+00  0.45593999997E+02  0.45594000000E+02  0.51100000000E-03 0. -1.
         11   -1    0    0    0    0 -0.00000000000E+00 -0.00000000000E+00 -0.45593999997E+02  0.45594000000E+02  0.51100000000E-03 0.  1.
    9900012    2    1    2    0    0 -0.18220264936E+02 -0.38349681786E+02 -0.89968782409E+01  0.47787309158E+02  0.20000173776E+02 0.  0.
         12    1    1    2    0    0  0.18220264936E+02  0.38349681786E+02  0.89968782409E+01  0.43400690842E+02  0.00000000000E+00 0. -1.
         11    1    3    3    0    0 -0.60174992256E+01 -0.22839266034E+02 -0.18174883409E+01  0.23688512702E+02  0.51100000000E-03 0. -1.
        -11    1    3    3    0    0  0.65011995094E+00 -0.80834574429E+01 -0.33045646396E+01  0.87570022211E+01  0.51100000000E-03 0.  1.
         12    1    3    3    0    0 -0.12852885662E+02 -0.74269583091E+01 -0.38748252604E+01  0.15341794235E+02  0.00000000000E+00 0. -1.
</event>
<event>
 7    1  0.4875579E-009  0.4778727E+02  0.7816164E-02  0.1312668E+00
        -11   -1    0    0    0    0  0.00000000000E+00  0.00000000000E+00  0.45593999997E+02  0.45594000000E+02  0.51100000000E-03 0.  1.
         11   -1    0    0    0    0 -0.00000000000E+00 -0.00000000000E+00 -0.45593999997E+02  0.45594000000E+02  0.51100000000E-03 0. -1.
    9900012    2    1    2    0    0  0.20637282478E+02  0.34789499767E+02  0.15729481252E+02  0.47787270714E+02  0.19999998493E+02 0.  0.
         12    1    1    2    0    0 -0.20637282478E+02 -0.34789499767E+02 -0.15729481252E+02  0.43400729286E+02  0.00000000000E+00 0. -1.
         11    1    3    3    0    0 -0.97134360843E+00  0.79382928522E+01 -0.11279508102E+01  0.80766499927E+01  0.51100000000E-03 0. -1.
        -11    1    3    3    0    0  0.78919728275E+01  0.58669450430E+01  0.64389573229E+00  0.98548912334E+01  0.51100000000E-03 0.  1.
        -12    1    3    3    0    0  0.13716653259E+02  0.20984261872E+02  0.16213536330E+02  0.29855729488E+02  0.00000000000E+00 0.  1.
</event>
<event>
 7    1  0.4875579E-009  0.4778727E+02  0.7816164E-02  0.1312668E+00
        -11   -1    0    0    0    0  0.00000000000E+00  0.00000000000E+00  0.45593999997E+02  0.45594000000E+02  0.51100000000E-03 0.  1.
         11   -1    0    0    0    0 -0.00000000000E+00 -0.00000000000E+00 -0.45593999997E+02  0.45594000000E+02  0.51100000000E-03 0. -1.
    9900012    2    1    2    0    0 -0.47067575284E+01 -0.30212622782E+02  0.30800440044E+02  0.47787271334E+02  0.20000001321E+02 0.  0.
         12    1    1    2    0    0  0.47067575284E+01  0.30212622782E+02 -0.30800440044E+02  0.43400728666E+02  0.00000000000E+00 0. -1.
         11    1    3    3    0    0 -0.28858282867E+00  0.85899938551E+00 -0.14214409869E+01  0.16857208350E+01  0.51100000000E-03 0. -1.
        -11    1    3    3    0    0  0.14005591766E+01 -0.28827573033E+01  0.75106410907E+01  0.81658793483E+01  0.51100000000E-03 0.  1.
        -12    1    3    3    0    0 -0.58187338763E+01 -0.28188864864E+02  0.24711239941E+02  0.37935671151E+02  0.00000000000E+00 0.  1.
</event>
<event>
 7    1  0.4875579E-009  0.4778726E+02  0.7816164E-02  0.1312668E+00
        -11   -1    0    0    0    0  0.00000000000E+00  0.00000000000E+00  0.45593999997E+02  0.45594000000E+02  0.51100000000E-03 0.  1.
         11   -1    0    0    0    0 -0.00000000000E+00 -0.00000000000E+00 -0.45593999997E+02  0.45594000000E+02  0.51100000000E-03 0. -1.
    9900012    2    1    2    0    0 -0.20186051632E+02  0.61288459616E+01  0.37928676954E+02  0.47787263039E+02  0.19999963498E+02 0.  0.
         12    1    1    2    0    0  0.20186051632E+02 -0.61288459616E+01 -0.37928676954E+02  0.43400736961E+02  0.00000000000E+00 0. -1.
         11    1    3    3    0    0 -0.17122277076E+02  0.39450181362E+01  0.13597362228E+02  0.22217646144E+02  0.51100000000E-03 0. -1.
        -11    1    3    3    0    0 -0.28466899560E+01 -0.76880321519E+00  0.37207104448E+01  0.47474612757E+01  0.51100000000E-03 0.  1.
         12    1    3    3    0    0 -0.21708460013E+00  0.29526310405E+01  0.20610604281E+02  0.20822155619E+02  0.00000000000E+00 0. -1.
</event>
<event>
 7    1  0.4875579E-009  0.4778725E+02  0.7816164E-02  0.1312668E+00
        -11   -1    0    0    0    0  0.00000000000E+00  0.00000000000E+00  0.45593999997E+02  0.45594000000E+02  0.51100000000E-03 0.  1.
         11   -1    0    0    0    0 -0.00000000000E+00 -0.00000000000E+00 -0.45593999997E+02  0.45594000000E+02  0.51100000000E-03 0. -1.
    9900012    2    1    2    0    0 -0.38514738107E+02  0.28362795457E+01  0.19803919261E+02  0.47787254025E+02  0.19999922402E+02 0.  0.
         12    1    1    2    0    0  0.38514738107E+02 -0.28362795457E+01 -0.19803919261E+02  0.43400745975E+02  0.00000000000E+00 0. -1.
         11    1    3    3    0    0 -0.42606251024E+01  0.19895715072E+01  0.60729537429E+01  0.76806307339E+01  0.51100000000E-03 0.  1.
        -11    1    3    3    0    0 -0.65009272467E+01  0.25247602509E+01 -0.30711038178E+01  0.76202459482E+01  0.51100000000E-03 0. -1.
         12    1    3    3    0    0 -0.27753185758E+02 -0.16780522124E+01  0.16802069335E+02  0.32486377343E+02  0.00000000000E+00 0. -1.
</event>
<event>
 7    1  0.4875579E-009  0.4778727E+02  0.7816164E-02  0.1312668E+00
        -11   -1    0    0    0    0  0.00000000000E+00  0.00000000000E+00  0.45593999997E+02  0.45594000000E+02  0.51100000000E-03 0.  1.
         11   -1    0    0    0    0 -0.00000000000E+00 -0.00000000000E+00 -0.45593999997E+02  0.45594000000E+02  0.51100000000E-03 0. -1.
    9900012    2    1    2    0    0 -0.27600673905E+02 -0.33424041885E+02  0.21585172607E+01  0.47787274514E+02  0.20000015821E+02 0.  0.
         12    1    1    2    0    0  0.27600673905E+02  0.33424041885E+02 -0.21585172607E+01  0.43400725486E+02  0.00000000000E+00 0. -1.
         11    1    3    3    0    0 -0.45778311049E+01 -0.59025164233E+01  0.62409767226E+01  0.97337571607E+01  0.51100000000E-03 0. -1.
        -11    1    3    3    0    0 -0.15590131456E+02 -0.12530539930E+02  0.23246934466E+01  0.20136306256E+02  0.51100000000E-03 0.  1.
        -12    1    3    3    0    0 -0.74327113438E+01 -0.14990985531E+02 -0.64071529085E+01  0.17917211097E+02  0.00000000000E+00 0.  1.
</event>
<event>
 7    1  0.4875579E-009  0.4778727E+02  0.7816164E-02  0.1312668E+00
        -11   -1    0    0    0    0  0.00000000000E+00  0.00000000000E+00  0.45593999997E+02  0.45594000000E+02  0.51100000000E-03 0.  1.
         11   -1    0    0    0    0 -0.00000000000E+00 -0.00000000000E+00 -0.45593999997E+02  0.45594000000E+02  0.51100000000E-03 0. -1.
    9900012    2    1    2    0    0 -0.14114986904E+02  0.34481479591E+02  0.22257983719E+02  0.47787272710E+02  0.20000007593E+02 0.  0.
         12    1    1    2    0    0  0.14114986904E+02 -0.34481479591E+02 -0.22257983719E+02  0.43400727290E+02  0.00000000000E+00 0. -1.
         11    1    3    3    0    0 -0.12674115287E+02  0.11532936271E+02  0.10685656430E+02  0.20194679273E+02  0.51100000000E-03 0. -1.
        -11    1    3    3    0    0 -0.42985040988E+01  0.13251836997E+02  0.10462681700E+02  0.17422859407E+02  0.51100000000E-03 0.  1.
         12    1    3    3    0    0  0.28576324812E+01  0.96967063225E+01  0.11096455884E+01  0.10169734030E+02  0.00000000000E+00 0. -1.
</event>
<event>
 7    1  0.4875579E-009  0.4778727E+02  0.7816164E-02  0.1312668E+00
        -11   -1    0    0    0    0  0.00000000000E+00  0.00000000000E+00  0.45593999997E+02  0.45594000000E+02  0.51100000000E-03 0. -1.
         11   -1    0    0    0    0 -0.00000000000E+00 -0.00000000000E+00 -0.45593999997E+02  0.45594000000E+02  0.51100000000E-03 0.  1.
    9900012    2    1    2    0    0 -0.32817530045E+02 -0.20432142095E+01 -0.28327695506E+02  0.47787270338E+02  0.19999996777E+02 0.  0.
         12    1    1    2    0    0  0.32817530045E+02  0.20432142095E+01  0.28327695506E+02  0.43400729662E+02  0.00000000000E+00 0. -1.
         11    1    3    3    0    0 -0.36116590750E+00 -0.68904826813E+00 -0.98669152397E+00  0.12564986085E+01  0.51100000000E-03 0. -1.
        -11    1    3    3    0    0 -0.19078922855E+02 -0.92376076522E+01 -0.20747260126E+02  0.29661211969E+02  0.51100000000E-03 0.  1.
        -12    1    3    3    0    0 -0.13377441282E+02  0.78834417109E+01 -0.65937438559E+01  0.16869559760E+02  0.00000000000E+00 0.  1.
</event>
<event>
 7    1  0.4875579E-009  0.4778727E+02  0.7816164E-02  0.1312668E+00
        -11   -1    0    0    0    0  0.00000000000E+00  0.00000000000E+00  0.45593999997E+02  0.45594000000E+02  0.51100000000E-03 0. -1.
         11   -1    0    0    0    0 -0.00000000000E+00 -0.00000000000E+00 -0.45593999997E+02  0.45594000000E+02  0.51100000000E-03 0.  1.
    9900012    2    1    2    0    0 -0.31823930690E+02  0.28811351625E+02 -0.63848850586E+01  0.47787270695E+02  0.19999998406E+02 0.  0.
         12    1    1    2    0    0  0.31823930690E+02 -0.28811351625E+02  0.63848850586E+01  0.43400729305E+02  0.00000000000E+00 0. -1.
         11    1    3    3    0    0 -0.11299955582E+02  0.10427467295E+02  0.66405149143E+01  0.16748656929E+02  0.51100000000E-03 0. -1.
        -11    1    3    3    0    0 -0.35547271896E+01  0.43952341010E+01 -0.36870032733E+00  0.56648131820E+01  0.51100000000E-03 0.  1.
        -12    1    3    3    0    0 -0.16969247918E+02  0.13988650229E+02 -0.12656699646E+02  0.25373800583E+02  0.00000000000E+00 0.  1.
</event>
<event>
 7    1  0.4875579E-009  0.4778727E+02  0.7816164E-02  0.1312668E+00
        -11   -1    0    0    0    0  0.00000000000E+00  0.00000000000E+00  0.45593999997E+02  0.45594000000E+02  0.51100000000E-03 0.  1.
         11   -1    0    0    0    0 -0.00000000000E+00 -0.00000000000E+00 -0.45593999997E+02  0.45594000000E+02  0.51100000000E-03 0. -1.
    9900012    2    1    2    0    0 -0.19678610859E+02 -0.21103614289E+01  0.38625402414E+02  0.47787273481E+02  0.20000011111E+02 0.  0.
         12    1    1    2    0    0  0.19678610859E+02  0.21103614289E+01 -0.38625402414E+02  0.43400726519E+02  0.00000000000E+00 0. -1.
         11    1    3    3    0    0 -0.13041722248E+02 -0.51497961194E+01  0.13647691111E+02  0.19566971973E+02  0.51100000000E-03 0. -1.
        -11    1    3    3    0    0 -0.92813261972E+01  0.25618745171E+00  0.18159920734E+02  0.20395866476E+02  0.51100000000E-03 0.  1.
         12    1    3    3    0    0  0.26444375857E+01  0.27832472387E+01  0.68177905690E+01  0.78244350325E+01  0.00000000000E+00 0. -1.
</event>
<event>
 7    1  0.4875579E-009  0.4778727E+02  0.7816164E-02  0.1312668E+00
        -11   -1    0    0    0    0  0.00000000000E+00  0.00000000000E+00  0.45593999997E+02  0.45594000000E+02  0.51100000000E-03 0.  1.
         11   -1    0    0    0    0 -0.00000000000E+00 -0.00000000000E+00 -0.45593999997E+02  0.45594000000E+02  0.51100000000E-03 0. -1.
    9900012    2    1    2    0    0 -0.16819592685E+02  0.37927298421E+02  0.12737529336E+02  0.47787270546E+02  0.19999997726E+02 0.  0.
         12    1    1    2    0    0  0.16819592685E+02 -0.37927298421E+02 -0.12737529336E+02  0.43400729454E+02  0.00000000000E+00 0. -1.
         11    1    3    3    0    0 -0.33861746562E+01  0.53817862190E+01 -0.33810039738E+01  0.72014574804E+01  0.51100000000E-03 0. -1.
        -11    1    3    3    0    0 -0.52748037180E+01  0.42582378113E+01 -0.46687501272E+00  0.67951538658E+01  0.51100000000E-03 0.  1.
        -12    1    3    3    0    0 -0.81586143110E+01  0.28287274390E+02  0.16585408323E+02  0.33790659199E+02  0.00000000000E+00 0.  1.
</event>
<event>
 7    1  0.4875579E-009  0.4778727E+02  0.7816164E-02  0.1312668E+00
        -11   -1    0    0    0    0  0.00000000000E+00  0.00000000000E+00  0.45593999997E+02  0.45594000000E+02  0.51100000000E-03 0.  1.
         11   -1    0    0    0    0 -0.00000000000E+00 -0.00000000000E+00 -0.45593999997E+02  0.45594000000E+02  0.51100000000E-03 0. -1.
    9900012    2    1    2    0    0 -0.12318828086E+01 -0.38864620729E+02  0.19278144554E+02  0.47787272619E+02  0.20000007181E+02 0.  0.
         12    1    1    2    0    0  0.12318828086E+01  0.38864620729E+02 -0.19278144554E+02  0.43400727381E+02  0.00000000000E+00 0. -1.
         11    1    3    3    0    0  0.29177300556E+01 -0.13024004365E+02  0.24386838584E+01  0.13567793395E+02  0.51100000000E-03 0. -1.
        -11    1    3    3    0    0 -0.41637930520E+01 -0.27550539378E+02  0.16742773021E+02  0.32506766085E+02  0.51100000000E-03 0.  1.
         12    1    3    3    0    0  0.14180187826E-01  0.17099230140E+01  0.96687674501E-01  0.17127131394E+01  0.00000000000E+00 0. -1.
</event>
<event>
 7    1  0.4875579E-009  0.4778727E+02  0.7816164E-02  0.1312668E+00
        -11   -1    0    0    0    0  0.00000000000E+00  0.00000000000E+00  0.45593999997E+02  0.45594000000E+02  0.51100000000E-03 0.  1.
         11   -1    0    0    0    0 -0.00000000000E+00 -0.00000000000E+00 -0.45593999997E+02  0.45594000000E+02  0.51100000000E-03 0. -1.
    9900012    2    1    2    0    0 -0.80313675538E+01 -0.39697835829E+01  0.42465999979E+02  0.47787271887E+02  0.20000003843E+02 0.  0.
         12    1    1    2    0    0  0.80313675538E+01  0.39697835829E+01 -0.42465999979E+02  0.43400728113E+02  0.00000000000E+00 0. -1.
         11    1    3    3    0    0 -0.27891912199E+01 -0.78231501201E+01  0.17249311599E+02  0.19144712491E+02  0.51100000000E-03 0. -1.
        -11    1    3    3    0    0 -0.18012901683E+00  0.73020595418E+01  0.15833769681E+02  0.17437338747E+02  0.51100000000E-03 0.  1.
        -12    1    3    3    0    0 -0.50620473170E+01 -0.34486930046E+01  0.93829186987E+01  0.11205220649E+02  0.00000000000E+00 0.  1.
</event>
<event>
 7    1  0.4875579E-009  0.4778727E+02  0.7816164E-02  0.1312668E+00
        -11   -1    0    0    0    0  0.00000000000E+00  0.00000000000E+00  0.45593999997E+02  0.45594000000E+02  0.51100000000E-03 0. -1.
         11   -1    0    0    0    0 -0.00000000000E+00 -0.00000000000E+00 -0.45593999997E+02  0.45594000000E+02  0.51100000000E-03 0.  1.
    9900012    2    1    2    0    0  0.18391725885E+01 -0.42350358679E+02 -0.93106536340E+01  0.47787266053E+02  0.19999977241E+02 0.  0.
         12    1    1    2    0    0 -0.18391725885E+01  0.42350358679E+02  0.93106536340E+01  0.43400733947E+02  0.00000000000E+00 0. -1.
         11    1    3    3    0    0 -0.60086821823E+01 -0.92006839991E+01 -0.46367699309E+01  0.11927132232E+02  0.51100000000E-03 0. -1.
        -11    1    3    3    0    0  0.40104311656E+01 -0.27004745808E+02 -0.71191655626E+01  0.28213868449E+02  0.51100000000E-03 0.  1.
        -12    1    3    3    0    0  0.38374236052E+01 -0.61449288716E+01  0.24452818595E+01  0.76462653717E+01  0.00000000000E+00 0.  1.
</event>
<event>
 7    1  0.4875579E-009  0.4778724E+02  0.7816164E-02  0.1312668E+00
        -11   -1    0    0    0    0  0.00000000000E+00  0.00000000000E+00  0.45593999997E+02  0.45594000000E+02  0.51100000000E-03 0.  1.
         11   -1    0    0    0    0 -0.00000000000E+00 -0.00000000000E+00 -0.45593999997E+02  0.45594000000E+02  0.51100000000E-03 0. -1.
    9900012    2    1    2    0    0  0.17012917931E+02 -0.33863406880E+01  0.39783403161E+02  0.47787241403E+02  0.19999864852E+02 0.  0.
         12    1    1    2    0    0 -0.17012917931E+02  0.33863406880E+01 -0.39783403161E+02  0.43400758597E+02  0.00000000000E+00 0. -1.
         11    1    3    3    0    0  0.59605483507E+01 -0.62622184270E+00  0.74282095315E+00  0.60392113448E+01  0.51100000000E-03 0. -1.
        -11    1    3    3    0    0 -0.36118641340E+00  0.14018528706E+01  0.86586323378E+00  0.16868214182E+01  0.51100000000E-03 0.  1.
        -12    1    3    3    0    0  0.11413555993E+02 -0.41619717160E+01  0.38174718974E+02  0.40061208640E+02  0.00000000000E+00 0.  1.
</event>
<event>
 7    1  0.4875579E-009  0.4778728E+02  0.7816164E-02  0.1312668E+00
        -11   -1    0    0    0    0  0.00000000000E+00  0.00000000000E+00  0.45593999997E+02  0.45594000000E+02  0.51100000000E-03 0.  1.
         11   -1    0    0    0    0 -0.00000000000E+00 -0.00000000000E+00 -0.45593999997E+02  0.45594000000E+02  0.51100000000E-03 0. -1.
    9900012    2    1    2    0    0 -0.15398641524E+02 -0.18998172528E+02  0.35854899784E+02  0.47787279284E+02  0.20000037567E+02 0.  0.
         12    1    1    2    0    0  0.15398641524E+02  0.18998172528E+02 -0.35854899784E+02  0.43400720716E+02  0.00000000000E+00 0. -1.
         11    1    3    3    0    0 -0.38199968614E+01 -0.12447465381E+02  0.12669237011E+02  0.18167039856E+02  0.51100000000E-03 0. -1.
        -11    1    3    3    0    0 -0.22358485019E+01 -0.58674823065E+01  0.22251942538E+01  0.66616707265E+01  0.51100000000E-03 0.  1.
        -12    1    3    3    0    0 -0.93427961602E+01 -0.68322484053E+00  0.20960468520E+02  0.22958568702E+02  0.00000000000E+00 0.  1.
</event>
<event>
 7    1  0.4875579E-009  0.4778727E+02  0.7816164E-02  0.1312668E+00
        -11   -1    0    0    0    0  0.00000000000E+00  0.00000000000E+00  0.45593999997E+02  0.45594000000E+02  0.51100000000E-03 0. -1.
         11   -1    0    0    0    0 -0.00000000000E+00 -0.00000000000E+00 -0.45593999997E+02  0.45594000000E+02  0.51100000000E-03 0.  1.
    9900012    2    1    2    0    0 -0.39632116677E+02 -0.16277516451E+02 -0.69253714877E+01  0.47787274380E+02  0.20000015207E+02 0.  0.
         12    1    1    2    0    0  0.39632116677E+02  0.16277516451E+02  0.69253714877E+01  0.43400725620E+02  0.00000000000E+00 0. -1.
         11    1    3    3    0    0 -0.18263167380E+01 -0.98494259535E+00  0.45542549418E+01  0.50046761213E+01  0.51100000000E-03 0. -1.
        -11    1    3    3    0    0 -0.11429022134E+02 -0.72276274097E+01 -0.23262331445E+01  0.13721242867E+02  0.51100000000E-03 0.  1.
         12    1    3    3    0    0 -0.26376777806E+02 -0.80649464456E+01 -0.91533932850E+01  0.29061355392E+02  0.00000000000E+00 0. -1.
</event>
<event>
 7    1  0.4875579E-009  0.4778728E+02  0.7816164E-02  0.1312668E+00
        -11   -1    0    0    0    0  0.00000000000E+00  0.00000000000E+00  0.45593999997E+02  0.45594000000E+02  0.51100000000E-03 0. -1.
         11   -1    0    0    0    0 -0.00000000000E+00 -0.00000000000E+00 -0.45593999997E+02  0.45594000000E+02  0.51100000000E-03 0.  1.
    9900012    2    1    2    0    0 -0.39834197737E+02  0.18256814585E+01  0.17132613063E+02  0.47787275899E+02  0.20000022136E+02 0.  0.
         12    1    1    2    0    0  0.39834197737E+02 -0.18256814585E+01 -0.17132613063E+02  0.43400724101E+02  0.00000000000E+00 0. -1.
         11    1    3    3    0    0 -0.17170733591E-01  0.12582288369E+01 -0.40746007947E+00  0.13226710164E+01  0.51100000000E-03 0. -1.
        -11    1    3    3    0    0 -0.59382297398E+00  0.14782057156E+01  0.50429099169E+01  0.52885403046E+01  0.51100000000E-03 0.  1.
        -12    1    3    3    0    0 -0.39223204029E+02 -0.91075309396E+00  0.12497163225E+02  0.41176064578E+02  0.00000000000E+00 0.  1.
</event>
<event>
 7    1  0.4875579E-009  0.4778727E+02  0.7816164E-02  0.1312668E+00
        -11   -1    0    0    0    0  0.00000000000E+00  0.00000000000E+00  0.45593999997E+02  0.45594000000E+02  0.51100000000E-03 0.  1.
         11   -1    0    0    0    0 -0.00000000000E+00 -0.00000000000E+00 -0.45593999997E+02  0.45594000000E+02  0.51100000000E-03 0. -1.
    9900012    2    1    2    0    0  0.10155486836E+02 -0.24760366308E+02  0.34167433298E+02  0.47787272463E+02  0.20000006468E+02 0.  0.
         12    1    1    2    0    0 -0.10155486836E+02  0.24760366308E+02 -0.34167433298E+02  0.43400727537E+02  0.00000000000E+00 0. -1.
         11    1    3    3    0    0 -0.14145553156E+01 -0.79677907883E-01  0.38105487805E+00  0.14671463427E+01  0.51100000000E-03 0. -1.
        -11    1    3    3    0    0 -0.13504686371E+01 -0.33128396345E+01  0.14031008056E+02  0.14479912268E+02  0.51100000000E-03 0.  1.
         12    1    3    3    0    0  0.12920510789E+02 -0.21367848766E+02  0.19755370364E+02  0.31840213852E+02  0.00000000000E+00 0. -1.
</event>
<event>
 7    1  0.4875579E-009  0.4778728E+02  0.7816164E-02  0.1312668E+00
        -11   -1    0    0    0    0  0.00000000000E+00  0.00000000000E+00  0.45593999997E+02  0.45594000000E+02  0.51100000000E-03 0.  1.
         11   -1    0    0    0    0 -0.00000000000E+00 -0.00000000000E+00 -0.45593999997E+02  0.45594000000E+02  0.51100000000E-03 0. -1.
    9900012    2    1    2    0    0  0.13775789911E+02  0.21586087428E+02  0.35041277942E+02  0.47787277449E+02  0.20000029202E+02 0.  0.
         12    1    1    2    0    0 -0.13775789911E+02 -0.21586087428E+02 -0.35041277942E+02  0.43400722551E+02  0.00000000000E+00 0. -1.
         11    1    3    3    0    0 -0.15633138393E+01  0.20704390415E+01  0.11737275777E+02  0.12020578643E+02  0.51100000000E-03 0. -1.
        -11    1    3    3    0    0 -0.57533482233E+00 -0.57317959379E+00  0.28885421975E+01  0.30005368341E+01  0.51100000000E-03 0.  1.
        -12    1    3    3    0    0  0.15914438573E+02  0.20088827980E+02  0.20415459968E+02  0.32766161972E+02  0.00000000000E+00 0.  1.
</event>
<event>
 7    1  0.4875579E-009  0.4778727E+02  0.7816164E-02  0.1312668E+00
        -11   -1    0    0    0    0  0.00000000000E+00  0.00000000000E+00  0.45593999997E+02  0.45594000000E+02  0.51100000000E-03 0.  1.
         11   -1    0    0    0    0 -0.00000000000E+00 -0.00000000000E+00 -0.45593999997E+02  0.45594000000E+02  0.51100000000E-03 0. -1.
    9900012    2    1    2    0    0 -0.42695960416E+02  0.70568844535E+01  0.32982786876E+01  0.47787270786E+02  0.19999998822E+02 0.  0.
         12    1    1    2    0    0  0.42695960416E+02 -0.70568844535E+01 -0.32982786876E+01  0.43400729214E+02  0.00000000000E+00 0. -1.
         11    1    3    3    0    0 -0.34782291509E+01  0.17477544414E+01  0.13097460622E+01  0.41070863908E+01  0.51100000000E-03 0. -1.
        -11    1    3    3    0    0 -0.20517526533E+02  0.73206118231E+01  0.90509837098E+01  0.23589840162E+02  0.51100000000E-03 0.  1.
         12    1    3    3    0    0 -0.18700204731E+02 -0.20114818109E+01 -0.70624510844E+01  0.20090344233E+02  0.00000000000E+00 0. -1.
</event>
<event>
 7    1  0.4875579E-009  0.4778728E+02  0.7816164E-02  0.1312668E+00
        -11   -1    0    0    0    0  0.00000000000E+00  0.00000000000E+00  0.45593999997E+02  0.45594000000E+02  0.51100000000E-03 0.  1.
         11   -1    0    0    0    0 -0.00000000000E+00 -0.00000000000E+00 -0.45593999997E+02  0.45594000000E+02  0.51100000000E-03 0. -1.
    9900012    2    1    2    0    0  0.37901015589E+01 -0.23153028307E+02  0.36512943722E+02  0.47787278245E+02  0.20000032830E+02 0.  0.
         12    1    1    2    0    0 -0.37901015589E+01  0.23153028307E+02 -0.36512943722E+02  0.43400721755E+02  0.00000000000E+00 0. -1.
         11    1    3    3    0    0  0.62086290446E+00  0.21877622450E-01 -0.16319102248E+01  0.17461616819E+01  0.51100000000E-03 0. -1.
        -11    1    3    3    0    0  0.46527880606E+01 -0.46419181109E+01  0.14827113312E+02  0.16218481122E+02  0.51100000000E-03 0.  1.
        -12    1    3    3    0    0 -0.14835494062E+01 -0.18532987818E+02  0.23317740635E+02  0.29822635441E+02  0.00000000000E+00 0.  1.
</event>
<event>
 7    1  0.4875579E-009  0.4778727E+02  0.7816164E-02  0.1312668E+00
        -11   -1    0    0    0    0  0.00000000000E+00  0.00000000000E+00  0.45593999997E+02  0.45594000000E+02  0.51100000000E-03 0. -1.
         11   -1    0    0    0    0 -0.00000000000E+00 -0.00000000000E+00 -0.45593999997E+02  0.45594000000E+02  0.51100000000E-03 0.  1.
    9900012    2    1    2    0    0 -0.26254338691E+02  0.33785767502E+02 -0.72701376010E+01  0.47787270899E+02  0.19999999335E+02 0.  0.
         12    1    1    2    0    0  0.26254338691E+02 -0.33785767502E+02  0.72701376010E+01  0.43400729101E+02  0.00000000000E+00 0. -1.
         11    1    3    3    0    0 -0.88550986883E+01  0.14322997624E+02  0.17756587243E+00  0.16840206757E+02  0.51100000000E-03 0. -1.
        -11    1    3    3    0    0 -0.17094720882E+02  0.92756211809E+01 -0.24717617737E+01  0.19605515470E+02  0.51100000000E-03 0.  1.
        -12    1    3    3    0    0 -0.30451912069E+00  0.10187148697E+02 -0.49759416997E+01  0.11341548672E+02  0.00000000000E+00 0.  1.
</event>
<event>
 7    1  0.4875579E-009  0.4778727E+02  0.7816164E-02  0.1312668E+00
        -11   -1    0    0    0    0  0.00000000000E+00  0.00000000000E+00  0.45593999997E+02  0.45594000000E+02  0.51100000000E-03 0.  1.
         11   -1    0    0    0    0 -0.00000000000E+00 -0.00000000000E+00 -0.45593999997E+02  0.45594000000E+02  0.51100000000E-03 0. -1.
    9900012    2    1    2    0    0  0.18028416923E+02  0.38913025011E+02  0.66615292611E+01  0.47787270694E+02  0.19999998400E+02 0.  0.
         12    1    1    2    0    0 -0.18028416923E+02 -0.38913025011E+02 -0.66615292611E+01  0.43400729306E+02  0.00000000000E+00 0. -1.
         11    1    3    3    0    0  0.10267848223E+02  0.21526670094E+02  0.15888346585E+01  0.23902941833E+02  0.51100000000E-03 0.  1.
        -11    1    3    3    0    0  0.55190592455E+01  0.10269075784E+02 -0.38270580759E+01  0.12270301797E+02  0.51100000000E-03 0. -1.
        -12    1    3    3    0    0  0.22415094552E+01  0.71172791332E+01  0.88997526784E+01  0.11614027064E+02  0.00000000000E+00 0.  1.
</event>
<event>
 7    1  0.4875579E-009  0.4778732E+02  0.7816164E-02  0.1312668E+00
        -11   -1    0    0    0    0  0.00000000000E+00  0.00000000000E+00  0.45593999997E+02  0.45594000000E+02  0.51100000000E-03 0.  1.
         11   -1    0    0    0    0 -0.00000000000E+00 -0.00000000000E+00 -0.45593999997E+02  0.45594000000E+02  0.51100000000E-03 0. -1.
    9900012    2    1    2    0    0  0.11625903740E+02 -0.29244483656E+02  0.29886748412E+02  0.47787318061E+02  0.20000214368E+02 0.  0.
         12    1    1    2    0    0 -0.11625903740E+02  0.29244483656E+02 -0.29886748412E+02  0.43400681939E+02  0.00000000000E+00 0. -1.
         11    1    3    3    0    0  0.36295374060E+00 -0.17611612495E+02  0.22232996427E+02  0.28365591135E+02  0.51100000000E-03 0. -1.
        -11    1    3    3    0    0  0.30359409230E+01 -0.37386420950E+00  0.39459231073E+01  0.49926967828E+01  0.51100000000E-03 0.  1.
         12    1    3    3    0    0  0.82270090762E+01 -0.11259006952E+02  0.37078288781E+01  0.14429030143E+02  0.00000000000E+00 0. -1.
</event>
<event>
 7    1  0.4875579E-009  0.4778727E+02  0.7816164E-02  0.1312668E+00
        -11   -1    0    0    0    0  0.00000000000E+00  0.00000000000E+00  0.45593999997E+02  0.45594000000E+02  0.51100000000E-03 0. -1.
         11   -1    0    0    0    0 -0.00000000000E+00 -0.00000000000E+00 -0.45593999997E+02  0.45594000000E+02  0.51100000000E-03 0.  1.
    9900012    2    1    2    0    0 -0.27021473435E+02 -0.24606200149E+02  0.23409362283E+02  0.47787270111E+02  0.19999995745E+02 0.  0.
         12    1    1    2    0    0  0.27021473435E+02  0.24606200149E+02 -0.23409362283E+02  0.43400729889E+02  0.00000000000E+00 0. -1.
         11    1    3    3    0    0 -0.79156959693E+01 -0.13562081796E+02  0.39366007872E+01  0.16189043559E+02  0.51100000000E-03 0. -1.
        -11    1    3    3    0    0  0.10482631070E+01  0.30576555268E+00  0.30256785632E+01  0.32166876043E+01  0.51100000000E-03 0.  1.
        -12    1    3    3    0    0 -0.20154040573E+02 -0.11349883905E+02  0.16447082932E+02  0.28381538948E+02  0.00000000000E+00 0.  1.
</event>
<event>
 7    1  0.4875579E-009  0.4778727E+02  0.7816164E-02  0.1312668E+00
        -11   -1    0    0    0    0  0.00000000000E+00  0.00000000000E+00  0.45593999997E+02  0.45594000000E+02  0.51100000000E-03 0.  1.
         11   -1    0    0    0    0 -0.00000000000E+00 -0.00000000000E+00 -0.45593999997E+02  0.45594000000E+02  0.51100000000E-03 0. -1.
    9900012    2    1    2    0    0  0.13142904606E+02  0.34607469684E+02  0.22654144545E+02  0.47787272305E+02  0.20000005747E+02 0.  0.
         12    1    1    2    0    0 -0.13142904606E+02 -0.34607469684E+02 -0.22654144545E+02  0.43400727695E+02  0.00000000000E+00 0. -1.
         11    1    3    3    0    0 -0.51733053968E-01  0.81112412639E+01  0.15545676512E+01  0.82590309354E+01  0.51100000000E-03 0. -1.
        -11    1    3    3    0    0  0.11416175446E+02  0.27927965022E+02  0.16488117755E+02  0.34382529277E+02  0.51100000000E-03 0.  1.
         12    1    3    3    0    0  0.17784622140E+01 -0.14317366027E+01  0.46114591395E+01  0.51457120928E+01  0.00000000000E+00 0. -1.
</event>
<event>
 7    1  0.4875579E-009  0.4778727E+02  0.7816164E-02  0.1312668E+00
        -11   -1    0    0    0    0  0.00000000000E+00  0.00000000000E+00  0.45593999997E+02  0.45594000000E+02  0.51100000000E-03 0. -1.
         11   -1    0    0    0    0 -0.00000000000E+00 -0.00000000000E+00 -0.45593999997E+02  0.45594000000E+02  0.51100000000E-03 0.  1.
    9900012    2    1    2    0    0 -0.63556604254E+01  0.14757182761E+02 -0.40316924796E+02  0.47787270888E+02  0.19999999285E+02 0.  0.
         12    1    1    2    0    0  0.63556604254E+01 -0.14757182761E+02  0.40316924796E+02  0.43400729112E+02  0.00000000000E+00 0. -1.
         11    1    3    3    0    0  0.30120043009E+00  0.30350923054E+01 -0.15194578239E+01  0.34075298005E+01  0.51100000000E-03 0. -1.
        -11    1    3    3    0    0 -0.49069189216E+01  0.14353674892E+02 -0.18908367551E+02  0.24241126209E+02  0.51100000000E-03 0.  1.
         12    1    3    3    0    0 -0.17499419340E+01 -0.26315844361E+01 -0.19889099421E+02  0.20138614878E+02  0.00000000000E+00 0. -1.
</event>
<event>
 7    1  0.4875579E-009  0.4778728E+02  0.7816164E-02  0.1312668E+00
        -11   -1    0    0    0    0  0.00000000000E+00  0.00000000000E+00  0.45593999997E+02  0.45594000000E+02  0.51100000000E-03 0.  1.
         11   -1    0    0    0    0 -0.00000000000E+00 -0.00000000000E+00 -0.45593999997E+02  0.45594000000E+02  0.51100000000E-03 0. -1.
    9900012    2    1    2    0    0  0.34138860949E+02 -0.26371362992E+02  0.47657148567E+01  0.47787278220E+02  0.20000032717E+02 0.  0.
         12    1    1    2    0    0 -0.34138860949E+02  0.26371362992E+02 -0.47657148567E+01  0.43400721780E+02  0.00000000000E+00 0. -1.
         11    1    3    3    0    0  0.90529183619E+01 -0.56082826716E+01  0.48183740651E+01  0.11688665205E+02  0.51100000000E-03 0. -1.
        -11    1    3    3    0    0  0.19507631132E+02 -0.21207218445E+02  0.41339792985E+01  0.29109853515E+02  0.51100000000E-03 0.  1.
         12    1    3    3    0    0  0.55783114546E+01  0.44413812457E+00 -0.41866385069E+01  0.69887594997E+01  0.00000000000E+00 0. -1.
</event>
<event>
 7    1  0.4875579E-009  0.4778726E+02  0.7816164E-02  0.1312668E+00
        -11   -1    0    0    0    0  0.00000000000E+00  0.00000000000E+00  0.45593999997E+02  0.45594000000E+02  0.51100000000E-03 0. -1.
         11   -1    0    0    0    0 -0.00000000000E+00 -0.00000000000E+00 -0.45593999997E+02  0.45594000000E+02  0.51100000000E-03 0.  1.
    9900012    2    1    2    0    0  0.15979853823E+02  0.20020594929E+02 -0.35034904768E+02  0.47787256900E+02  0.19999935510E+02 0.  0.
         12    1    1    2    0    0 -0.15979853823E+02 -0.20020594929E+02  0.35034904768E+02  0.43400743100E+02  0.00000000000E+00 0. -1.
         11    1    3    3    0    0  0.87262237287E+01  0.21610251440E+01 -0.63796980144E+01  0.11023500227E+02  0.51100000000E-03 0. -1.
        -11    1    3    3    0    0  0.20984911417E+01  0.10035772371E+02 -0.51784162512E+01  0.11486356571E+02  0.51100000000E-03 0.  1.
        -12    1    3    3    0    0  0.51551389529E+01  0.78237974136E+01 -0.23476790503E+02  0.25277400102E+02  0.00000000000E+00 0.  1.
</event>
<event>
 7    1  0.4875579E-009  0.4778727E+02  0.7816164E-02  0.1312668E+00
        -11   -1    0    0    0    0  0.00000000000E+00  0.00000000000E+00  0.45593999997E+02  0.45594000000E+02  0.51100000000E-03 0. -1.
         11   -1    0    0    0    0 -0.00000000000E+00 -0.00000000000E+00 -0.45593999997E+02  0.45594000000E+02  0.51100000000E-03 0.  1.
    9900012    2    1    2    0    0 -0.42716300500E+02  0.76448648368E+01  0.70502065226E+00  0.47787270272E+02  0.19999996480E+02 0.  0.
         12    1    1    2    0    0  0.42716300500E+02 -0.76448648368E+01 -0.70502065226E+00  0.43400729728E+02  0.00000000000E+00 0. -1.
         11    1    3    3    0    0 -0.26033031629E+02  0.11928585609E+02  0.24628701558E+01  0.28741531276E+02  0.51100000000E-03 0. -1.
        -11    1    3    3    0    0 -0.34753976681E+01  0.13895247918E+01 -0.27382595154E+01  0.46375891941E+01  0.51100000000E-03 0.  1.
         12    1    3    3    0    0 -0.13207871203E+02 -0.56732455639E+01  0.98041001191E+00  0.14408149803E+02  0.00000000000E+00 0. -1.
</event>
<event>
 7    1  0.4875579E-009  0.4778727E+02  0.7816164E-02  0.1312668E+00
        -11   -1    0    0    0    0  0.00000000000E+00  0.00000000000E+00  0.45593999997E+02  0.45594000000E+02  0.51100000000E-03 0.  1.
         11   -1    0    0    0    0 -0.00000000000E+00 -0.00000000000E+00 -0.45593999997E+02  0.45594000000E+02  0.51100000000E-03 0. -1.
    9900012    2    1    2    0    0  0.31824265054E+02 -0.51334083060E+01  0.29060064548E+02  0.47787273294E+02  0.20000010257E+02 0.  0.
         12    1    1    2    0    0 -0.31824265054E+02  0.51334083060E+01 -0.29060064548E+02  0.43400726706E+02  0.00000000000E+00 0. -1.
         11    1    3    3    0    0  0.26245397166E+02  0.19256549968E+01  0.17143387521E+02  0.31407399694E+02  0.51100000000E-03 0. -1.
        -11    1    3    3    0    0  0.34577448965E+01 -0.28508771597E+01  0.11494483322E+01  0.46265248382E+01  0.51100000000E-03 0.  1.
         12    1    3    3    0    0  0.21211229919E+01 -0.42081861431E+01  0.10767228694E+02  0.11753348762E+02  0.00000000000E+00 0. -1.
</event>
<event>
 7    1  0.4875579E-009  0.4778727E+02  0.7816164E-02  0.1312668E+00
        -11   -1    0    0    0    0  0.00000000000E+00  0.00000000000E+00  0.45593999997E+02  0.45594000000E+02  0.51100000000E-03 0.  1.
         11   -1    0    0    0    0 -0.00000000000E+00 -0.00000000000E+00 -0.45593999997E+02  0.45594000000E+02  0.51100000000E-03 0. -1.
    9900012    2    1    2    0    0 -0.79967657472E+01  0.15571137146E+02  0.39714160565E+02  0.47787272773E+02  0.20000007881E+02 0.  0.
         12    1    1    2    0    0  0.79967657472E+01 -0.15571137146E+02 -0.39714160565E+02  0.43400727227E+02  0.00000000000E+00 0. -1.
         11    1    3    3    0    0 -0.95388239357E+01  0.78352955769E+01  0.15035679860E+02  0.19453860490E+02  0.51100000000E-03 0. -1.
        -11    1    3    3    0    0 -0.23005092309E+01  0.70082654987E+01  0.22859793309E+02  0.24020372154E+02  0.51100000000E-03 0.  1.
         12    1    3    3    0    0  0.38425674193E+01  0.72757607080E+00  0.18186873960E+01  0.43130401291E+01  0.00000000000E+00 0. -1.
</event>
<event>
 7    1  0.4875579E-009  0.4778728E+02  0.7816164E-02  0.1312668E+00
        -11   -1    0    0    0    0  0.00000000000E+00  0.00000000000E+00  0.45593999997E+02  0.45594000000E+02  0.51100000000E-03 0. -1.
         11   -1    0    0    0    0 -0.00000000000E+00 -0.00000000000E+00 -0.45593999997E+02  0.45594000000E+02  0.51100000000E-03 0.  1.
    9900012    2    1    2    0    0  0.39840500061E+02 -0.70494996813E+01 -0.15705468573E+02  0.47787278416E+02  0.20000033612E+02 0.  0.
         12    1    1    2    0    0 -0.39840500061E+02  0.70494996813E+01  0.15705468573E+02  0.43400721584E+02  0.00000000000E+00 0. -1.
         11    1    3    3    0    0  0.10489143333E+02 -0.13267551094E+01  0.30486243293E+01  0.11003477521E+02  0.51100000000E-03 0. -1.
        -11    1    3    3    0    0  0.21253733702E+02 -0.53302439019E+01 -0.80229641187E+01  0.23334537704E+02  0.51100000000E-03 0.  1.
         12    1    3    3    0    0  0.80976230257E+01 -0.39250067001E+00 -0.10731128783E+02  0.13449263192E+02  0.00000000000E+00 0. -1.
</event>
<event>
 7    1  0.4875579E-009  0.4778727E+02  0.7816164E-02  0.1312668E+00
        -11   -1    0    0    0    0  0.00000000000E+00  0.00000000000E+00  0.45593999997E+02  0.45594000000E+02  0.51100000000E-03 0. -1.
         11   -1    0    0    0    0 -0.00000000000E+00 -0.00000000000E+00 -0.45593999997E+02  0.45594000000E+02  0.51100000000E-03 0.  1.
    9900012    2    1    2    0    0 -0.79313057368E+00  0.10182506920E+02 -0.42181878033E+02  0.47787270309E+02  0.19999996648E+02 0.  0.
         12    1    1    2    0    0  0.79313057368E+00 -0.10182506920E+02  0.42181878033E+02  0.43400729691E+02  0.00000000000E+00 0. -1.
         11    1    3    3    0    0 -0.73660999200E+00 -0.10773091876E+01  0.10982248933E+01  0.17056633735E+01  0.51100000000E-03 0. -1.
        -11    1    3    3    0    0  0.30222680216E+01 -0.98594105290E+00 -0.78883800238E+01  0.85048646912E+01  0.51100000000E-03 0.  1.
         12    1    3    3    0    0 -0.30787886032E+01  0.12245757161E+02 -0.35391722903E+02  0.37576742245E+02  0.00000000000E+00 0. -1.
</event>
<event>
 7    1  0.4875579E-009  0.4778727E+02  0.7816164E-02  0.1312668E+00
        -11   -1    0    0    0    0  0.00000000000E+00  0.00000000000E+00  0.45593999997E+02  0.45594000000E+02  0.51100000000E-03 0.  1.
         11   -1    0    0    0    0 -0.00000000000E+00 -0.00000000000E+00 -0.45593999997E+02  0.45594000000E+02  0.51100000000E-03 0. -1.
    9900012    2    1    2    0    0 -0.28503877231E+02 -0.71507664703E+01  0.31937734437E+02  0.47787270060E+02  0.19999995512E+02 0.  0.
         12    1    1    2    0    0  0.28503877231E+02  0.71507664703E+01 -0.31937734437E+02  0.43400729940E+02  0.00000000000E+00 0. -1.
         11    1    3    3    0    0 -0.22834469487E+01 -0.36721902908E+01  0.57828875313E+01  0.72208655963E+01  0.51100000000E-03 0. -1.
        -11    1    3    3    0    0 -0.12778724229E+02  0.36098015055E+01  0.20350164992E+02  0.24299293720E+02  0.51100000000E-03 0.  1.
        -12    1    3    3    0    0 -0.13441706053E+02 -0.70883776850E+01  0.58046819145E+01  0.16267110744E+02  0.00000000000E+00 0.  1.
</event>
<event>
 7    1  0.4875579E-009  0.4778727E+02  0.7816164E-02  0.1312668E+00
        -11   -1    0    0    0    0  0.00000000000E+00  0.00000000000E+00  0.45593999997E+02  0.45594000000E+02  0.51100000000E-03 0.  1.
         11   -1    0    0    0    0 -0.00000000000E+00 -0.00000000000E+00 -0.45593999997E+02  0.45594000000E+02  0.51100000000E-03 0. -1.
    9900012    2    1    2    0    0 -0.10961606741E+02 -0.17594000674E+02  0.38130269991E+02  0.47787272222E+02  0.20000005368E+02 0.  0.
         12    1    1    2    0    0  0.10961606741E+02  0.17594000674E+02 -0.38130269991E+02  0.43400727778E+02  0.00000000000E+00 0. -1.
         11    1    3    3    0    0 -0.44906713619E+01 -0.45340229229E+01  0.39925250200E+01  0.75275327593E+01  0.51100000000E-03 0. -1.
        -11    1    3    3    0    0 -0.84038551304E+01 -0.91705989406E+00  0.18712666024E+02  0.20533622425E+02  0.51100000000E-03 0.  1.
        -12    1    3    3    0    0  0.19329197512E+01 -0.12142917857E+02  0.15425078947E+02  0.19726117037E+02  0.00000000000E+00 0.  1.
</event>
<event>
 7    1  0.4875579E-009  0.4778727E+02  0.7816164E-02  0.1312668E+00
        -11   -1    0    0    0    0  0.00000000000E+00  0.00000000000E+00  0.45593999997E+02  0.45594000000E+02  0.51100000000E-03 0. -1.
         11   -1    0    0    0    0 -0.00000000000E+00 -0.00000000000E+00 -0.45593999997E+02  0.45594000000E+02  0.51100000000E-03 0.  1.
    9900012    2    1    2    0    0  0.87791983023E+01  0.28160589950E+02 -0.31835991276E+02  0.47787268558E+02  0.19999988664E+02 0.  0.
         12    1    1    2    0    0 -0.87791983023E+01 -0.28160589950E+02  0.31835991276E+02  0.43400731442E+02  0.00000000000E+00 0. -1.
         11    1    3    3    0    0  0.30345577134E+01  0.52358395091E+01 -0.20146042009E+02  0.21035340853E+02  0.51100000000E-03 0.  1.
        -11    1    3    3    0    0 -0.65364467772E-01  0.86338252951E+01 -0.43499063386E+01  0.96679313793E+01  0.51100000000E-03 0. -1.
        -12    1    3    3    0    0  0.58100050567E+01  0.14290925146E+02 -0.73400429276E+01  0.17083996326E+02  0.00000000000E+00 0.  1.
</event>
<event>
 7    1  0.4875579E-009  0.4778727E+02  0.7816164E-02  0.1312668E+00
        -11   -1    0    0    0    0  0.00000000000E+00  0.00000000000E+00  0.45593999997E+02  0.45594000000E+02  0.51100000000E-03 0.  1.
         11   -1    0    0    0    0 -0.00000000000E+00 -0.00000000000E+00 -0.45593999997E+02  0.45594000000E+02  0.51100000000E-03 0. -1.
    9900012    2    1    2    0    0 -0.10787603416E+02  0.40644226656E+02 -0.10737673530E+02  0.47787272117E+02  0.20000004891E+02 0.  0.
         12    1    1    2    0    0  0.10787603416E+02 -0.40644226656E+02  0.10737673530E+02  0.43400727883E+02  0.00000000000E+00 0. -1.
         11    1    3    3    0    0 -0.29509404753E+01 -0.63681442190E+00 -0.71093628618E+00  0.31014533626E+01  0.51100000000E-03 0. -1.
        -11    1    3    3    0    0  0.22813824056E+01  0.61691174811E+01  0.67045887416E+00  0.66115226340E+01  0.51100000000E-03 0.  1.
         12    1    3    3    0    0 -0.10118045346E+02  0.35111923597E+02 -0.10697196118E+02  0.38074296121E+02  0.00000000000E+00 0. -1.
</event>
<event>
 7    1  0.4875579E-009  0.4778727E+02  0.7816164E-02  0.1312668E+00
        -11   -1    0    0    0    0  0.00000000000E+00  0.00000000000E+00  0.45593999997E+02  0.45594000000E+02  0.51100000000E-03 0.  1.
         11   -1    0    0    0    0 -0.00000000000E+00 -0.00000000000E+00 -0.45593999997E+02  0.45594000000E+02  0.51100000000E-03 0. -1.
    9900012    2    1    2    0    0  0.15234104866E+02  0.18125894555E+02  0.36373028079E+02  0.47787272171E+02  0.20000005135E+02 0.  0.
         12    1    1    2    0    0 -0.15234104866E+02 -0.18125894555E+02 -0.36373028079E+02  0.43400727829E+02  0.00000000000E+00 0. -1.
         11    1    3    3    0    0  0.39742923827E+01  0.12685916474E+01  0.88925071945E+01  0.98224746971E+01  0.51100000000E-03 0. -1.
        -11    1    3    3    0    0  0.15645854366E+02  0.13546992923E+02  0.21455789141E+02  0.29810479098E+02  0.51100000000E-03 0.  1.
         12    1    3    3    0    0 -0.43860418829E+01  0.33103099849E+01  0.60247317433E+01  0.81543183758E+01  0.00000000000E+00 0. -1.
</event>
<event>
 7    1  0.4875579E-009  0.4778727E+02  0.7816164E-02  0.1312668E+00
        -11   -1    0    0    0    0  0.00000000000E+00  0.00000000000E+00  0.45593999997E+02  0.45594000000E+02  0.51100000000E-03 0. -1.
         11   -1    0    0    0    0 -0.00000000000E+00 -0.00000000000E+00 -0.45593999997E+02  0.45594000000E+02  0.51100000000E-03 0.  1.
    9900012    2    1    2    0    0  0.34312619343E+02  0.16907632092E+02 -0.20503651665E+02  0.47787267279E+02  0.19999982831E+02 0.  0.
         12    1    1    2    0    0 -0.34312619343E+02 -0.16907632092E+02  0.20503651665E+02  0.43400732721E+02  0.00000000000E+00 0. -1.
         11    1    3    3    0    0  0.11397501813E+01  0.46646742172E+01 -0.53381977807E+01  0.71801512405E+01  0.51100000000E-03 0. -1.
        -11    1    3    3    0    0  0.12204066215E+02  0.11271302902E+02 -0.55194271730E+01  0.17505587048E+02  0.51100000000E-03 0.  1.
         12    1    3    3    0    0  0.20968802947E+02  0.97165497259E+00 -0.96460267111E+01  0.23101528991E+02  0.00000000000E+00 0. -1.
</event>
<event>
 7    1  0.4875579E-009  0.4778727E+02  0.7816164E-02  0.1312668E+00
        -11   -1    0    0    0    0  0.00000000000E+00  0.00000000000E+00  0.45593999997E+02  0.45594000000E+02  0.51100000000E-03 0. -1.
         11   -1    0    0    0    0 -0.00000000000E+00 -0.00000000000E+00 -0.45593999997E+02  0.45594000000E+02  0.51100000000E-03 0.  1.
    9900012    2    1    2    0    0 -0.93096807086E-01 -0.29745612287E+02 -0.31604009246E+02  0.47787268235E+02  0.19999987189E+02 0.  0.
         12    1    1    2    0    0  0.93096807086E-01  0.29745612287E+02  0.31604009246E+02  0.43400731765E+02  0.00000000000E+00 0. -1.
         11    1    3    3    0    0  0.25079493497E+01 -0.13401396355E+01 -0.44022249027E+01  0.52407412203E+01  0.51100000000E-03 0. -1.
        -11    1    3    3    0    0  0.11607312598E+01 -0.16480965221E+02 -0.53431488053E+01  0.17364295295E+02  0.51100000000E-03 0.  1.
         12    1    3    3    0    0 -0.37617774166E+01 -0.11924507431E+02 -0.21858635538E+02  0.25182231720E+02  0.00000000000E+00 0. -1.
</event>
<event>
 7    1  0.4875579E-009  0.4778727E+02  0.7816164E-02  0.1312668E+00
        -11   -1    0    0    0    0  0.00000000000E+00  0.00000000000E+00  0.45593999997E+02  0.45594000000E+02  0.51100000000E-03 0.  1.
         11   -1    0    0    0    0 -0.00000000000E+00 -0.00000000000E+00 -0.45593999997E+02  0.45594000000E+02  0.51100000000E-03 0. -1.
    9900012    2    1    2    0    0  0.30437387535E+02  0.25831114654E+02  0.17027688408E+02  0.47787271703E+02  0.20000003003E+02 0.  0.
         12    1    1    2    0    0 -0.30437387535E+02 -0.25831114654E+02 -0.17027688408E+02  0.43400728297E+02  0.00000000000E+00 0. -1.
         11    1    3    3    0    0  0.14452392663E+02  0.13226641477E+02  0.97697345198E+01  0.21892085586E+02  0.51100000000E-03 0. -1.
        -11    1    3    3    0    0  0.18088674820E+02  0.12125437144E+02  0.42405383180E+01  0.22185773553E+02  0.51100000000E-03 0.  1.
         12    1    3    3    0    0 -0.21036799480E+01  0.47903603236E+00  0.30174155704E+01  0.37094125638E+01  0.00000000000E+00 0. -1.
</event>
<event>
 7    1  0.4875579E-009  0.4778728E+02  0.7816164E-02  0.1312668E+00
        -11   -1    0    0    0    0  0.00000000000E+00  0.00000000000E+00  0.45593999997E+02  0.45594000000E+02  0.51100000000E-03 0.  1.
         11   -1    0    0    0    0 -0.00000000000E+00 -0.00000000000E+00 -0.45593999997E+02  0.45594000000E+02  0.51100000000E-03 0. -1.
    9900012    2    1    2    0    0  0.19382815757E+02  0.15965226457E+02  0.35398316526E+02  0.47787276327E+02  0.20000024083E+02 0.  0.
         12    1    1    2    0    0 -0.19382815757E+02 -0.15965226457E+02 -0.35398316526E+02  0.43400723673E+02  0.00000000000E+00 0. -1.
         11    1    3    3    0    0  0.12546225818E+02  0.13643226401E+02  0.18878828155E+02  0.26456673292E+02  0.51100000000E-03 0. -1.
        -11    1    3    3    0    0  0.72340831803E+01  0.31382790624E+01  0.41181265753E+01  0.88960509039E+01  0.51100000000E-03 0.  1.
         12    1    3    3    0    0 -0.39749324142E+00 -0.81627900687E+00  0.12401361796E+02  0.12434552130E+02  0.00000000000E+00 0. -1.
</event>
<event>
 7    1  0.4875579E-009  0.4778727E+02  0.7816164E-02  0.1312668E+00
        -11   -1    0    0    0    0  0.00000000000E+00  0.00000000000E+00  0.45593999997E+02  0.45594000000E+02  0.51100000000E-03 0. -1.
         11   -1    0    0    0    0 -0.00000000000E+00 -0.00000000000E+00 -0.45593999997E+02  0.45594000000E+02  0.51100000000E-03 0.  1.
    9900012    2    1    2    0    0  0.32810451713E+01  0.43107008823E+02  0.38267358086E+01  0.47787269890E+02  0.19999994738E+02 0.  0.
         12    1    1    2    0    0 -0.32810451713E+01 -0.43107008823E+02 -0.38267358086E+01  0.43400730110E+02  0.00000000000E+00 0. -1.
         11    1    3    3    0    0 -0.12259532977E+01 -0.63963743839E+00 -0.44245846946E-02  0.13827933247E+01  0.51100000000E-03 0. -1.
        -11    1    3    3    0    0  0.46758317587E+01  0.34702635382E+01  0.17235948540E+01  0.60726362597E+01  0.51100000000E-03 0.  1.
        -12    1    3    3    0    0 -0.16883328978E+00  0.40276382723E+02  0.21075655393E+01  0.40331840306E+02  0.00000000000E+00 0.  1.
</event>
<event>
 7    1  0.4875579E-009  0.4778728E+02  0.7816164E-02  0.1312668E+00
        -11   -1    0    0    0    0  0.00000000000E+00  0.00000000000E+00  0.45593999997E+02  0.45594000000E+02  0.51100000000E-03 0.  1.
         11   -1    0    0    0    0 -0.00000000000E+00 -0.00000000000E+00 -0.45593999997E+02  0.45594000000E+02  0.51100000000E-03 0. -1.
    9900012    2    1    2    0    0 -0.96082471844E+01  0.24945181758E+02  0.34191251525E+02  0.47787283558E+02  0.20000057053E+02 0.  0.
         12    1    1    2    0    0  0.96082471844E+01 -0.24945181758E+02 -0.34191251525E+02  0.43400716442E+02  0.00000000000E+00 0. -1.
         11    1    3    3    0    0 -0.31440718716E+01  0.88644182574E+01  0.22728638535E+02  0.24597847648E+02  0.51100000000E-03 0. -1.
        -11    1    3    3    0    0 -0.72696905350E+00  0.12250473627E+02  0.10639919637E+02  0.16242243633E+02  0.51100000000E-03 0.  1.
        -12    1    3    3    0    0 -0.57372062593E+01  0.38302898733E+01  0.82269335191E+00  0.69471922765E+01  0.00000000000E+00 0.  1.
</event>
<event>
 7    1  0.4875579E-009  0.4778727E+02  0.7816164E-02  0.1312668E+00
        -11   -1    0    0    0    0  0.00000000000E+00  0.00000000000E+00  0.45593999997E+02  0.45594000000E+02  0.51100000000E-03 0.  1.
         11   -1    0    0    0    0 -0.00000000000E+00 -0.00000000000E+00 -0.45593999997E+02  0.45594000000E+02  0.51100000000E-03 0. -1.
    9900012    2    1    2    0    0  0.15130434865E+02 -0.19475512987E+01  0.40631273643E+02  0.47787269440E+02  0.19999992685E+02 0.  0.
         12    1    1    2    0    0 -0.15130434865E+02  0.19475512987E+01 -0.40631273643E+02  0.43400730560E+02  0.00000000000E+00 0. -1.
         11    1    3    3    0    0  0.10277691239E+02 -0.54977448812E+01  0.34042807608E+02  0.35982897133E+02  0.51100000000E-03 0. -1.
        -11    1    3    3    0    0  0.50801280945E+01  0.49318122561E-01  0.65584561555E+01  0.82959918719E+01  0.51100000000E-03 0.  1.
         12    1    3    3    0    0 -0.22738446811E+00  0.35008754600E+01  0.30009879326E-01  0.35083804348E+01  0.00000000000E+00 0. -1.
</event>
<event>
 7    1  0.4875579E-009  0.4778727E+02  0.7816164E-02  0.1312668E+00
        -11   -1    0    0    0    0  0.00000000000E+00  0.00000000000E+00  0.45593999997E+02  0.45594000000E+02  0.51100000000E-03 0.  1.
         11   -1    0    0    0    0 -0.00000000000E+00 -0.00000000000E+00 -0.45593999997E+02  0.45594000000E+02  0.51100000000E-03 0. -1.
    9900012    2    1    2    0    0 -0.37614442230E+02  0.21642266508E+02 -0.62396728493E+00  0.47787270754E+02  0.19999998678E+02 0.  0.
         12    1    1    2    0    0  0.37614442230E+02 -0.21642266508E+02  0.62396728493E+00  0.43400729246E+02  0.00000000000E+00 0. -1.
         11    1    3    3    0    0 -0.16285111918E+01  0.30608446228E+01 -0.45792641274E+01  0.57437338654E+01  0.51100000000E-03 0. -1.
        -11    1    3    3    0    0 -0.11558846232E+02  0.38715480142E+01 -0.32841243666E+01  0.12624630028E+02  0.51100000000E-03 0.  1.
        -12    1    3    3    0    0 -0.24427084807E+02  0.14709873871E+02  0.72394212091E+01  0.29418906861E+02  0.00000000000E+00 0.  1.
</event>
<event>
 7    1  0.4875579E-009  0.4778727E+02  0.7816164E-02  0.1312668E+00
        -11   -1    0    0    0    0  0.00000000000E+00  0.00000000000E+00  0.45593999997E+02  0.45594000000E+02  0.51100000000E-03 0.  1.
         11   -1    0    0    0    0 -0.00000000000E+00 -0.00000000000E+00 -0.45593999997E+02  0.45594000000E+02  0.51100000000E-03 0. -1.
    9900012    2    1    2    0    0  0.20490799889E+02  0.65409573192E+01  0.37695704243E+02  0.47787272805E+02  0.20000008025E+02 0.  0.
         12    1    1    2    0    0 -0.20490799889E+02 -0.65409573192E+01 -0.37695704243E+02  0.43400727195E+02  0.00000000000E+00 0. -1.
         11    1    3    3    0    0 -0.29133041649E+01  0.18859614023E+01  0.26779567371E+01  0.43835652288E+01  0.51100000000E-03 0. -1.
        -11    1    3    3    0    0  0.30023383229E+00  0.51248466420E-01  0.60868141541E+01  0.60944297163E+01  0.51100000000E-03 0.  1.
        -12    1    3    3    0    0  0.23103870221E+02  0.46037474505E+01  0.28930933352E+02  0.37309277859E+02  0.00000000000E+00 0.  1.
</event>
<event>
 7    1  0.4875579E-009  0.4778728E+02  0.7816164E-02  0.1312668E+00
        -11   -1    0    0    0    0  0.00000000000E+00  0.00000000000E+00  0.45593999997E+02  0.45594000000E+02  0.51100000000E-03 0. -1.
         11   -1    0    0    0    0 -0.00000000000E+00 -0.00000000000E+00 -0.45593999997E+02  0.45594000000E+02  0.51100000000E-03 0.  1.
    9900012    2    1    2    0    0 -0.42234067794E+02  0.95203591946E+01  0.30445203279E+01  0.47787276208E+02  0.20000023544E+02 0.  0.
         12    1    1    2    0    0  0.42234067794E+02 -0.95203591946E+01 -0.30445203279E+01  0.43400723792E+02  0.00000000000E+00 0. -1.
         11    1    3    3    0    0 -0.35024228128E+01  0.15909355556E+01  0.40712000708E+01  0.56011348653E+01  0.51100000000E-03 0. -1.
        -11    1    3    3    0    0 -0.19041475533E+02  0.10749132444E+01  0.63026476006E+01  0.20086229014E+02  0.51100000000E-03 0.  1.
         12    1    3    3    0    0 -0.19690169448E+02  0.68545103945E+01 -0.73293273435E+01  0.22099912329E+02  0.00000000000E+00 0. -1.
</event>
<event>
 7    1  0.4875579E-009  0.4778727E+02  0.7816164E-02  0.1312668E+00
        -11   -1    0    0    0    0  0.00000000000E+00  0.00000000000E+00  0.45593999997E+02  0.45594000000E+02  0.51100000000E-03 0.  1.
         11   -1    0    0    0    0 -0.00000000000E+00 -0.00000000000E+00 -0.45593999997E+02  0.45594000000E+02  0.51100000000E-03 0. -1.
    9900012    2    1    2    0    0 -0.19901616661E+02  0.38477777288E+02  0.26475674770E+01  0.47787270694E+02  0.19999998403E+02 0.  0.
         12    1    1    2    0    0  0.19901616661E+02 -0.38477777288E+02 -0.26475674770E+01  0.43400729306E+02  0.00000000000E+00 0. -1.
         11    1    3    3    0    0 -0.20829570368E+01  0.12466086125E+02 -0.57157726253E+00  0.12651826513E+02  0.51100000000E-03 0. -1.
        -11    1    3    3    0    0 -0.99605487043E+01  0.23858066460E+02  0.59728972267E+01  0.26534795406E+02  0.51100000000E-03 0.  1.
        -12    1    3    3    0    0 -0.78581109194E+01  0.21536247031E+01 -0.27537524872E+01  0.86006487746E+01  0.00000000000E+00 0.  1.
</event>
<event>
 7    1  0.4875579E-009  0.4778727E+02  0.7816164E-02  0.1312668E+00
        -11   -1    0    0    0    0  0.00000000000E+00  0.00000000000E+00  0.45593999997E+02  0.45594000000E+02  0.51100000000E-03 0. -1.
         11   -1    0    0    0    0 -0.00000000000E+00 -0.00000000000E+00 -0.45593999997E+02  0.45594000000E+02  0.51100000000E-03 0.  1.
    9900012    2    1    2    0    0 -0.15764321278E+02 -0.38715845330E+02  0.11670184473E+02  0.47787266013E+02  0.19999977059E+02 0.  0.
         12    1    1    2    0    0  0.15764321278E+02  0.38715845330E+02 -0.11670184473E+02  0.43400733987E+02  0.00000000000E+00 0. -1.
         11    1    3    3    0    0 -0.32490443498E+01 -0.36819618008E+01  0.87852505134E+01  0.10064480053E+02  0.51100000000E-03 0. -1.
        -11    1    3    3    0    0 -0.62274432036E+01 -0.12849794628E+02  0.33221360915E+01  0.14660656851E+02  0.51100000000E-03 0.  1.
        -12    1    3    3    0    0 -0.62878337245E+01 -0.22184088902E+02 -0.43720213225E+00  0.23062129109E+02  0.00000000000E+00 0.  1.
</event>
<event>
 7    1  0.4875579E-009  0.4778734E+02  0.7816164E-02  0.1312667E+00
        -11   -1    0    0    0    0  0.00000000000E+00  0.00000000000E+00  0.45593999997E+02  0.45594000000E+02  0.51100000000E-03 0. -1.
         11   -1    0    0    0    0 -0.00000000000E+00 -0.00000000000E+00 -0.45593999997E+02  0.45594000000E+02  0.51100000000E-03 0.  1.
    9900012    2    1    2    0    0  0.28063621045E+02  0.23109872022E+02 -0.23706213816E+02  0.47787336589E+02  0.20000298842E+02 0.  0.
         12    1    1    2    0    0 -0.28063621045E+02 -0.23109872022E+02  0.23706213816E+02  0.43400663411E+02  0.00000000000E+00 0. -1.
         11    1    3    3    0    0  0.27599722490E+01  0.77425024535E+01 -0.50673993339E+01  0.96562066738E+01  0.51100000000E-03 0. -1.
        -11    1    3    3    0    0  0.17004535200E+02  0.16448827188E+02 -0.18019047617E+02  0.29738934254E+02  0.51100000000E-03 0.  1.
         12    1    3    3    0    0  0.82991135956E+01 -0.10814576199E+01 -0.61976686473E+00  0.83921956616E+01  0.00000000000E+00 0. -1.
</event>
<event>
 7    1  0.4875579E-009  0.4778727E+02  0.7816164E-02  0.1312668E+00
        -11   -1    0    0    0    0  0.00000000000E+00  0.00000000000E+00  0.45593999997E+02  0.45594000000E+02  0.51100000000E-03 0. -1.
         11   -1    0    0    0    0 -0.00000000000E+00 -0.00000000000E+00 -0.45593999997E+02  0.45594000000E+02  0.51100000000E-03 0.  1.
    9900012    2    1    2    0    0 -0.15173199009E+02  0.37805726489E+02 -0.14970784574E+02  0.47787270579E+02  0.19999997879E+02 0.  0.
         12    1    1    2    0    0  0.15173199009E+02 -0.37805726489E+02  0.14970784574E+02  0.43400729421E+02  0.00000000000E+00 0. -1.
         11    1    3    3    0    0 -0.64243405963E+01  0.16309083166E+02  0.33330506919E+01  0.17842857759E+02  0.51100000000E-03 0. -1.
        -11    1    3    3    0    0 -0.13585576652E+01  0.18027730586E+01 -0.37098843636E+01  0.43426848703E+01  0.51100000000E-03 0.  1.
         12    1    3    3    0    0 -0.73903007474E+01  0.19693870264E+02 -0.14593950902E+02  0.25601727950E+02  0.00000000000E+00 0. -1.
</event>
<event>
 7    1  0.4875579E-009  0.4778727E+02  0.7816164E-02  0.1312668E+00
        -11   -1    0    0    0    0  0.00000000000E+00  0.00000000000E+00  0.45593999997E+02  0.45594000000E+02  0.51100000000E-03 0. -1.
         11   -1    0    0    0    0 -0.00000000000E+00 -0.00000000000E+00 -0.45593999997E+02  0.45594000000E+02  0.51100000000E-03 0.  1.
    9900012    2    1    2    0    0  0.30143982772E+02  0.37585242445E+01 -0.30997378496E+02  0.47787266417E+02  0.19999978903E+02 0.  0.
         12    1    1    2    0    0 -0.30143982772E+02 -0.37585242445E+01  0.30997378496E+02  0.43400733583E+02  0.00000000000E+00 0. -1.
         11    1    3    3    0    0  0.12073356508E+02  0.47572703287E+01 -0.66851137504E+01  0.14597544467E+02  0.51100000000E-03 0. -1.
        -11    1    3    3    0    0  0.24178529864E+01  0.49972642370E-01  0.15991580253E+01  0.28992786999E+01  0.51100000000E-03 0.  1.
        -12    1    3    3    0    0  0.15652773278E+02 -0.10487187265E+01 -0.25911422771E+02  0.30290443250E+02  0.00000000000E+00 0.  1.
</event>
<event>
 7    1  0.4875579E-009  0.4778727E+02  0.7816164E-02  0.1312668E+00
        -11   -1    0    0    0    0  0.00000000000E+00  0.00000000000E+00  0.45593999997E+02  0.45594000000E+02  0.51100000000E-03 0.  1.
         11   -1    0    0    0    0 -0.00000000000E+00 -0.00000000000E+00 -0.45593999997E+02  0.45594000000E+02  0.51100000000E-03 0. -1.
    9900012    2    1    2    0    0  0.19904664029E+02  0.28314609185E+02  0.26186074014E+02  0.47787271715E+02  0.20000003057E+02 0.  0.
         12    1    1    2    0    0 -0.19904664029E+02 -0.28314609185E+02 -0.26186074014E+02  0.43400728285E+02  0.00000000000E+00 0. -1.
         11    1    3    3    0    0 -0.11270679379E+01  0.76885469222E+01  0.11748632062E+01  0.78590291847E+01  0.51100000000E-03 0. -1.
        -11    1    3    3    0    0 -0.49122944929E+00 -0.22593240217E+00 -0.37130868257E+00  0.65591327252E+00  0.51100000000E-03 0.  1.
        -12    1    3    3    0    0  0.21522961416E+02  0.20851994665E+02  0.25382519490E+02  0.39272329258E+02  0.00000000000E+00 0.  1.
</event>
<event>
 7    1  0.4875579E-009  0.4778727E+02  0.7816164E-02  0.1312668E+00
        -11   -1    0    0    0    0  0.00000000000E+00  0.00000000000E+00  0.45593999997E+02  0.45594000000E+02  0.51100000000E-03 0.  1.
         11   -1    0    0    0    0 -0.00000000000E+00 -0.00000000000E+00 -0.45593999997E+02  0.45594000000E+02  0.51100000000E-03 0. -1.
    9900012    2    1    2    0    0 -0.19897532256E+02 -0.30595921970E+02  0.23486189060E+02  0.47787270656E+02  0.19999998227E+02 0.  0.
         12    1    1    2    0    0  0.19897532256E+02  0.30595921970E+02 -0.23486189060E+02  0.43400729344E+02  0.00000000000E+00 0. -1.
         11    1    3    3    0    0  0.32610292095E+01 -0.37270345750E+01  0.29169408628E+01  0.57474901032E+01  0.51100000000E-03 0. -1.
        -11    1    3    3    0    0 -0.60049312573E+01 -0.80122876374E+01  0.13254942609E+01  0.10100142964E+02  0.51100000000E-03 0.  1.
        -12    1    3    3    0    0 -0.17153630208E+02 -0.18856599757E+02  0.19243753936E+02  0.31939637589E+02  0.00000000000E+00 0.  1.
</event>
<event>
 7    1  0.4875579E-009  0.4778726E+02  0.7816164E-02  0.1312668E+00
        -11   -1    0    0    0    0  0.00000000000E+00  0.00000000000E+00  0.45593999997E+02  0.45594000000E+02  0.51100000000E-03 0.  1.
         11   -1    0    0    0    0 -0.00000000000E+00 -0.00000000000E+00 -0.45593999997E+02  0.45594000000E+02  0.51100000000E-03 0. -1.
    9900012    2    1    2    0    0  0.10350610791E+02  0.24315021226E+02  0.34427729786E+02  0.47787262919E+02  0.19999962953E+02 0.  0.
         12    1    1    2    0    0 -0.10350610791E+02 -0.24315021226E+02 -0.34427729786E+02  0.43400737081E+02  0.00000000000E+00 0. -1.
         11    1    3    3    0    0  0.65561166016E+01  0.15797257637E+02  0.17079867768E+02  0.24171427285E+02  0.51100000000E-03 0. -1.
        -11    1    3    3    0    0 -0.23780727843E+01  0.76275300443E+01  0.41151030873E+01  0.89871307114E+01  0.51100000000E-03 0.  1.
        -12    1    3    3    0    0  0.61725669739E+01  0.89023354440E+00  0.13232758930E+02  0.14628704923E+02  0.00000000000E+00 0.  1.
</event>
<event>
 7    1  0.4875579E-009  0.4778726E+02  0.7816164E-02  0.1312668E+00
        -11   -1    0    0    0    0  0.00000000000E+00  0.00000000000E+00  0.45593999997E+02  0.45594000000E+02  0.51100000000E-03 0.  1.
         11   -1    0    0    0    0 -0.00000000000E+00 -0.00000000000E+00 -0.45593999997E+02  0.45594000000E+02  0.51100000000E-03 0. -1.
    9900012    2    1    2    0    0 -0.33049090173E+02  0.27998593834E+02  0.27313553360E+01  0.47787263602E+02  0.19999966067E+02 0.  0.
         12    1    1    2    0    0  0.33049090173E+02 -0.27998593834E+02 -0.27313553360E+01  0.43400736398E+02  0.00000000000E+00 0. -1.
         11    1    3    3    0    0 -0.13043320740E+02  0.79915919186E+01 -0.94883837764E+00  0.15326253679E+02  0.51100000000E-03 0. -1.
        -11    1    3    3    0    0 -0.19079530416E+02  0.88098861003E+01  0.25237103692E+01  0.21166286596E+02  0.51100000000E-03 0.  1.
         12    1    3    3    0    0 -0.92623901707E+00  0.11197115815E+02  0.11564833444E+01  0.11294723326E+02  0.00000000000E+00 0. -1.
</event>
<event>
 7    1  0.4875579E-009  0.4778727E+02  0.7816164E-02  0.1312668E+00
        -11   -1    0    0    0    0  0.00000000000E+00  0.00000000000E+00  0.45593999997E+02  0.45594000000E+02  0.51100000000E-03 0.  1.
         11   -1    0    0    0    0 -0.00000000000E+00 -0.00000000000E+00 -0.45593999997E+02  0.45594000000E+02  0.51100000000E-03 0. -1.
    9900012    2    1    2    0    0 -0.38736161148E+02 -0.17399350536E+02 -0.89663514562E+01  0.47787273762E+02  0.20000012389E+02 0.  0.
         12    1    1    2    0    0  0.38736161148E+02  0.17399350536E+02  0.89663514562E+01  0.43400726238E+02  0.00000000000E+00 0. -1.
         11    1    3    3    0    0 -0.37365818503E+01  0.12770138816E+01 -0.37115337130E+01  0.54192518987E+01  0.51100000000E-03 0. -1.
        -11    1    3    3    0    0 -0.54925110118E+01 -0.80725623621E+01 -0.50944704461E+01  0.11013063592E+02  0.51100000000E-03 0.  1.
        -12    1    3    3    0    0 -0.29507068286E+02 -0.10603802056E+02 -0.16034729705E+00  0.31354958270E+02  0.00000000000E+00 0.  1.
</event>
<event>
 7    1  0.4875579E-009  0.4778727E+02  0.7816164E-02  0.1312668E+00
        -11   -1    0    0    0    0  0.00000000000E+00  0.00000000000E+00  0.45593999997E+02  0.45594000000E+02  0.51100000000E-03 0.  1.
         11   -1    0    0    0    0 -0.00000000000E+00 -0.00000000000E+00 -0.45593999997E+02  0.45594000000E+02  0.51100000000E-03 0. -1.
    9900012    2    1    2    0    0 -0.41171914884E+02  0.27601657209E+01 -0.13449109570E+02  0.47787266847E+02  0.19999980860E+02 0.  0.
         12    1    1    2    0    0  0.41171914884E+02 -0.27601657209E+01  0.13449109570E+02  0.43400733153E+02  0.00000000000E+00 0. -1.
         11    1    3    3    0    0 -0.56981410658E+01 -0.63154744745E+00 -0.73243642649E+01  0.93012889392E+01  0.51100000000E-03 0. -1.
        -11    1    3    3    0    0 -0.17247627273E+01 -0.26938279811E+01 -0.23838250220E+01  0.39892527689E+01  0.51100000000E-03 0.  1.
        -12    1    3    3    0    0 -0.33749011091E+02  0.60855411495E+01 -0.37409202826E+01  0.34496725138E+02  0.00000000000E+00 0.  1.
</event>
<event>
 7    1  0.4875579E-009  0.4778726E+02  0.7816164E-02  0.1312668E+00
        -11   -1    0    0    0    0  0.00000000000E+00  0.00000000000E+00  0.45593999997E+02  0.45594000000E+02  0.51100000000E-03 0.  1.
         11   -1    0    0    0    0 -0.00000000000E+00 -0.00000000000E+00 -0.45593999997E+02  0.45594000000E+02  0.51100000000E-03 0. -1.
    9900012    2    1    2    0    0 -0.31642874363E+02  0.29692461687E+02 -0.84280840203E+00  0.47787261469E+02  0.19999956343E+02 0.  0.
         12    1    1    2    0    0  0.31642874363E+02 -0.29692461687E+02  0.84280840203E+00  0.43400738531E+02  0.00000000000E+00 0. -1.
         11    1    3    3    0    0 -0.11468662481E+02  0.11947389816E+02 -0.76330471035E+01  0.18235507968E+02  0.51100000000E-03 0. -1.
        -11    1    3    3    0    0 -0.19369739057E+02  0.13710707510E+02  0.29317615098E+01  0.23911618878E+02  0.51100000000E-03 0.  1.
         12    1    3    3    0    0 -0.80447282531E+00  0.40343643611E+01  0.38584771916E+01  0.56401346228E+01  0.00000000000E+00 0. -1.
</event>
<event>
 7    1  0.4875579E-009  0.4778727E+02  0.7816164E-02  0.1312668E+00
        -11   -1    0    0    0    0  0.00000000000E+00  0.00000000000E+00  0.45593999997E+02  0.45594000000E+02  0.51100000000E-03 0.  1.
         11   -1    0    0    0    0 -0.00000000000E+00 -0.00000000000E+00 -0.45593999997E+02  0.45594000000E+02  0.51100000000E-03 0. -1.
    9900012    2    1    2    0    0 -0.28147718429E+02  0.31056385342E+02  0.11261881412E+02  0.47787273091E+02  0.20000009331E+02 0.  0.
         12    1    1    2    0    0  0.28147718429E+02 -0.31056385342E+02 -0.11261881412E+02  0.43400726909E+02  0.00000000000E+00 0. -1.
         11    1    3    3    0    0 -0.29436281275E+01  0.10313627870E+02  0.41003203365E+01  0.11482529927E+02  0.51100000000E-03 0. -1.
        -11    1    3    3    0    0 -0.12684946843E+02  0.18925050338E+02  0.62332904384E+01  0.23620315761E+02  0.51100000000E-03 0.  1.
        -12    1    3    3    0    0 -0.12519143459E+02  0.18177071335E+01  0.92827063726E+00  0.12684427403E+02  0.00000000000E+00 0.  1.
</event>
<event>
 7    1  0.4875579E-009  0.4778727E+02  0.7816164E-02  0.1312668E+00
        -11   -1    0    0    0    0  0.00000000000E+00  0.00000000000E+00  0.45593999997E+02  0.45594000000E+02  0.51100000000E-03 0. -1.
         11   -1    0    0    0    0 -0.00000000000E+00 -0.00000000000E+00 -0.45593999997E+02  0.45594000000E+02  0.51100000000E-03 0.  1.
    9900012    2    1    2    0    0 -0.24798405655E+02  0.34754800489E+02  0.77952549953E+01  0.47787273272E+02  0.20000010156E+02 0.  0.
         12    1    1    2    0    0  0.24798405655E+02 -0.34754800489E+02 -0.77952549953E+01  0.43400726728E+02  0.00000000000E+00 0. -1.
         11    1    3    3    0    0 -0.22355397290E+02  0.18001177486E+02  0.26160737502E+01  0.28820999653E+02  0.51100000000E-03 0. -1.
        -11    1    3    3    0    0 -0.19002217770E+01  0.18045209803E+01 -0.96789301645E+00  0.27935561428E+01  0.51100000000E-03 0.  1.
        -12    1    3    3    0    0 -0.54278658815E+00  0.14949102023E+02  0.61470742615E+01  0.16172717476E+02  0.00000000000E+00 0.  1.
</event>
<event>
 7    1  0.4875579E-009  0.4778727E+02  0.7816164E-02  0.1312668E+00
        -11   -1    0    0    0    0  0.00000000000E+00  0.00000000000E+00  0.45593999997E+02  0.45594000000E+02  0.51100000000E-03 0.  1.
         11   -1    0    0    0    0 -0.00000000000E+00 -0.00000000000E+00 -0.45593999997E+02  0.45594000000E+02  0.51100000000E-03 0. -1.
    9900012    2    1    2    0    0  0.32259140509E+02  0.10854115248E+02  0.26928784594E+02  0.47787269546E+02  0.19999993168E+02 0.  0.
         12    1    1    2    0    0 -0.32259140509E+02 -0.10854115248E+02 -0.26928784594E+02  0.43400730454E+02  0.00000000000E+00 0. -1.
         11    1    3    3    0    0  0.14999245078E+02  0.83097090614E+01  0.35192502527E+01  0.17504677666E+02  0.51100000000E-03 0. -1.
        -11    1    3    3    0    0  0.93309611531E+01  0.53754514717E+01  0.12409796540E+02  0.16430622781E+02  0.51100000000E-03 0.  1.
        -12    1    3    3    0    0  0.79289342783E+01 -0.28310452848E+01  0.10999737802E+02  0.13851969098E+02  0.00000000000E+00 0.  1.
</event>
<event>
 7    1  0.4875579E-009  0.4778729E+02  0.7816164E-02  0.1312668E+00
        -11   -1    0    0    0    0  0.00000000000E+00  0.00000000000E+00  0.45593999997E+02  0.45594000000E+02  0.51100000000E-03 0.  1.
         11   -1    0    0    0    0 -0.00000000000E+00 -0.00000000000E+00 -0.45593999997E+02  0.45594000000E+02  0.51100000000E-03 0. -1.
    9900012    2    1    2    0    0  0.97684497269E+01  0.14560714999E+01  0.42262031184E+02  0.47787285328E+02  0.20000065124E+02 0.  0.
         12    1    1    2    0    0 -0.97684497269E+01 -0.14560714999E+01 -0.42262031184E+02  0.43400714672E+02  0.00000000000E+00 0. -1.
         11    1    3    3    0    0  0.80290807939E+01  0.15603246669E+01  0.84985844541E+01  0.11795197728E+02  0.51100000000E-03 0. -1.
        -11    1    3    3    0    0  0.13081819487E+01  0.17307835749E+00  0.34805627684E+02  0.34830633282E+02  0.51100000000E-03 0.  1.
        -12    1    3    3    0    0  0.43118698433E+00 -0.27733152452E+00 -0.10421809542E+01  0.11614543173E+01  0.00000000000E+00 0.  1.
</event>
<event>
 7    1  0.4875579E-009  0.4778727E+02  0.7816164E-02  0.1312668E+00
        -11   -1    0    0    0    0  0.00000000000E+00  0.00000000000E+00  0.45593999997E+02  0.45594000000E+02  0.51100000000E-03 0.  1.
         11   -1    0    0    0    0 -0.00000000000E+00 -0.00000000000E+00 -0.45593999997E+02  0.45594000000E+02  0.51100000000E-03 0. -1.
    9900012    2    1    2    0    0 -0.79229510192E+01 -0.32447079655E+02  0.27713482174E+02  0.47787271605E+02  0.20000002557E+02 0.  0.
         12    1    1    2    0    0  0.79229510192E+01  0.32447079655E+02 -0.27713482174E+02  0.43400728395E+02  0.00000000000E+00 0. -1.
         11    1    3    3    0    0 -0.33642729954E+01 -0.25396786057E+01  0.98159114471E+01  0.10682715853E+02  0.51100000000E-03 0.  1.
        -11    1    3    3    0    0  0.35610483332E+01 -0.11668432363E+02  0.94253821018E+01  0.15416588698E+02  0.51100000000E-03 0. -1.
         12    1    3    3    0    0 -0.81197263570E+01 -0.18238968686E+02  0.84721886254E+01  0.21687967054E+02  0.00000000000E+00 0. -1.
</event>
<event>
 7    1  0.4875579E-009  0.4778727E+02  0.7816164E-02  0.1312668E+00
        -11   -1    0    0    0    0  0.00000000000E+00  0.00000000000E+00  0.45593999997E+02  0.45594000000E+02  0.51100000000E-03 0. -1.
         11   -1    0    0    0    0 -0.00000000000E+00 -0.00000000000E+00 -0.45593999997E+02  0.45594000000E+02  0.51100000000E-03 0.  1.
    9900012    2    1    2    0    0  0.25563525770E+02 -0.83300756555E+01 -0.34069622394E+02  0.47787272123E+02  0.20000004916E+02 0.  0.
         12    1    1    2    0    0 -0.25563525770E+02  0.83300756555E+01  0.34069622394E+02  0.43400727877E+02  0.00000000000E+00 0. -1.
         11    1    3    3    0    0  0.92193289785E+00  0.28698628004E+01 -0.17119807186E+01  0.34665474182E+01  0.51100000000E-03 0. -1.
        -11    1    3    3    0    0  0.42377428095E+01 -0.87641352808E+01 -0.10716685244E+02  0.14478117081E+02  0.51100000000E-03 0.  1.
        -12    1    3    3    0    0  0.20403850063E+02 -0.24358031751E+01 -0.21640956431E+02  0.29842607623E+02  0.00000000000E+00 0.  1.
</event>
<event>
 7    1  0.4875579E-009  0.4778727E+02  0.7816164E-02  0.1312668E+00
        -11   -1    0    0    0    0  0.00000000000E+00  0.00000000000E+00  0.45593999997E+02  0.45594000000E+02  0.51100000000E-03 0. -1.
         11   -1    0    0    0    0 -0.00000000000E+00 -0.00000000000E+00 -0.45593999997E+02  0.45594000000E+02  0.51100000000E-03 0.  1.
    9900012    2    1    2    0    0 -0.39794440748E+02  0.31101024022E+01  0.17039750277E+02  0.47787270273E+02  0.19999996482E+02 0.  0.
         12    1    1    2    0    0  0.39794440748E+02 -0.31101024022E+01 -0.17039750277E+02  0.43400729727E+02  0.00000000000E+00 0. -1.
         11    1    3    3    0    0 -0.12388250850E+02  0.47874799444E+00  0.11973217535E+02  0.17235309605E+02  0.51100000000E-03 0. -1.
        -11    1    3    3    0    0 -0.10186069132E+02  0.53258269224E+01  0.62472260322E+01  0.13082364853E+02  0.51100000000E-03 0.  1.
        -12    1    3    3    0    0 -0.17220120765E+02 -0.26944725147E+01 -0.11806932910E+01  0.17469595815E+02  0.00000000000E+00 0.  1.
</event>
<event>
 7    1  0.4875579E-009  0.4778727E+02  0.7816164E-02  0.1312668E+00
        -11   -1    0    0    0    0  0.00000000000E+00  0.00000000000E+00  0.45593999997E+02  0.45594000000E+02  0.51100000000E-03 0. -1.
         11   -1    0    0    0    0 -0.00000000000E+00 -0.00000000000E+00 -0.45593999997E+02  0.45594000000E+02  0.51100000000E-03 0.  1.
    9900012    2    1    2    0    0  0.25256160186E+02 -0.28550100913E+02 -0.20751897802E+02  0.47787272450E+02  0.20000006409E+02 0.  0.
         12    1    1    2    0    0 -0.25256160186E+02  0.28550100913E+02  0.20751897802E+02  0.43400727550E+02  0.00000000000E+00 0. -1.
         11    1    3    3    0    0  0.35081529492E+00 -0.51295980511E+01  0.13650827634E+01  0.53197085210E+01  0.51100000000E-03 0. -1.
        -11    1    3    3    0    0  0.12322260602E+02 -0.19478468780E+02 -0.13407741588E+02  0.26664890532E+02  0.51100000000E-03 0.  1.
        -12    1    3    3    0    0  0.12583084289E+02 -0.39420340825E+01 -0.87092389771E+01  0.15802673397E+02  0.00000000000E+00 0.  1.
</event>
<event>
 7    1  0.4875579E-009  0.4778727E+02  0.7816164E-02  0.1312668E+00
        -11   -1    0    0    0    0  0.00000000000E+00  0.00000000000E+00  0.45593999997E+02  0.45594000000E+02  0.51100000000E-03 0. -1.
         11   -1    0    0    0    0 -0.00000000000E+00 -0.00000000000E+00 -0.45593999997E+02  0.45594000000E+02  0.51100000000E-03 0.  1.
    9900012    2    1    2    0    0  0.40486901871E+02  0.92444698884E+01 -0.12608481246E+02  0.47787271366E+02  0.20000001466E+02 0.  0.
         12    1    1    2    0    0 -0.40486901871E+02 -0.92444698884E+01  0.12608481246E+02  0.43400728634E+02  0.00000000000E+00 0. -1.
         11    1    3    3    0    0  0.23427240000E+02 -0.95893494238E+00 -0.11923865778E+02  0.26304632778E+02  0.51100000000E-03 0. -1.
        -11    1    3    3    0    0  0.57856448737E+01  0.35348912946E+00 -0.26681250188E+01  0.63810291135E+01  0.51100000000E-03 0.  1.
        -12    1    3    3    0    0  0.11274016998E+02  0.98499157013E+01  0.19835095504E+01  0.15101609474E+02  0.00000000000E+00 0.  1.
</event>
<event>
 7    1  0.4875579E-009  0.4778727E+02  0.7816164E-02  0.1312668E+00
        -11   -1    0    0    0    0  0.00000000000E+00  0.00000000000E+00  0.45593999997E+02  0.45594000000E+02  0.51100000000E-03 0.  1.
         11   -1    0    0    0    0 -0.00000000000E+00 -0.00000000000E+00 -0.45593999997E+02  0.45594000000E+02  0.51100000000E-03 0. -1.
    9900012    2    1    2    0    0  0.34482245262E+02  0.24643961817E+02  0.93420115426E+01  0.47787271066E+02  0.20000000099E+02 0.  0.
         12    1    1    2    0    0 -0.34482245262E+02 -0.24643961817E+02 -0.93420115426E+01  0.43400728934E+02  0.00000000000E+00 0. -1.
         11    1    3    3    0    0  0.50420493298E+01  0.68398974296E+00  0.60186778703E+01  0.78812807956E+01  0.51100000000E-03 0. -1.
        -11    1    3    3    0    0 -0.63399318855E+00  0.25300637403E+01  0.13203278571E+01  0.29234287754E+01  0.51100000000E-03 0.  1.
        -12    1    3    3    0    0  0.30074189120E+02  0.21429908334E+02  0.20030058152E+01  0.36982561495E+02  0.00000000000E+00 0.  1.
</event>
<event>
 7    1  0.4875579E-009  0.4778727E+02  0.7816164E-02  0.1312668E+00
        -11   -1    0    0    0    0  0.00000000000E+00  0.00000000000E+00  0.45593999997E+02  0.45594000000E+02  0.51100000000E-03 0. -1.
         11   -1    0    0    0    0 -0.00000000000E+00 -0.00000000000E+00 -0.45593999997E+02  0.45594000000E+02  0.51100000000E-03 0.  1.
    9900012    2    1    2    0    0  0.25414670069E+00 -0.43358905185E+02 -0.18879368036E+01  0.47787267808E+02  0.19999985245E+02 0.  0.
         12    1    1    2    0    0 -0.25414670069E+00  0.43358905185E+02  0.18879368036E+01  0.43400732192E+02  0.00000000000E+00 0. -1.
         11    1    3    3    0    0 -0.14163665417E+01  0.72711543714E+00 -0.16756072258E+01  0.23113742397E+01  0.51100000000E-03 0.  1.
        -11    1    3    3    0    0 -0.19899230206E+01 -0.31891191439E+01  0.21808092285E+01  0.43458260083E+01  0.51100000000E-03 0. -1.
        -12    1    3    3    0    0  0.36604362630E+01 -0.40896901478E+02 -0.23931388062E+01  0.41130067560E+02  0.00000000000E+00 0.  1.
</event>
<event>
 7    1  0.4875579E-009  0.4778727E+02  0.7816164E-02  0.1312668E+00
        -11   -1    0    0    0    0  0.00000000000E+00  0.00000000000E+00  0.45593999997E+02  0.45594000000E+02  0.51100000000E-03 0. -1.
         11   -1    0    0    0    0 -0.00000000000E+00 -0.00000000000E+00 -0.45593999997E+02  0.45594000000E+02  0.51100000000E-03 0.  1.
    9900012    2    1    2    0    0  0.37939136165E+02 -0.92749734697E+00 -0.21056707460E+02  0.47787271511E+02  0.20000002129E+02 0.  0.
         12    1    1    2    0    0 -0.37939136165E+02  0.92749734697E+00  0.21056707460E+02  0.43400728489E+02  0.00000000000E+00 0. -1.
         11    1    3    3    0    0  0.20364982019E+02 -0.75121044329E-01 -0.38177829292E+01  0.20719884232E+02  0.51100000000E-03 0. -1.
        -11    1    3    3    0    0  0.18248975541E+02 -0.16104916440E+01 -0.12396988355E+02  0.22120219533E+02  0.51100000000E-03 0.  1.
         12    1    3    3    0    0 -0.67482139544E+00  0.75811534139E+00 -0.48419361752E+01  0.49471677465E+01  0.00000000000E+00 0. -1.
</event>
<event>
 7    1  0.4875579E-009  0.4778727E+02  0.7816164E-02  0.1312668E+00
        -11   -1    0    0    0    0  0.00000000000E+00  0.00000000000E+00  0.45593999997E+02  0.45594000000E+02  0.51100000000E-03 0. -1.
         11   -1    0    0    0    0 -0.00000000000E+00 -0.00000000000E+00 -0.45593999997E+02  0.45594000000E+02  0.51100000000E-03 0.  1.
    9900012    2    1    2    0    0 -0.36669759081E+02  0.11282105081E+02  0.20289553509E+02  0.47787272959E+02  0.20000008728E+02 0.  0.
         12    1    1    2    0    0  0.36669759081E+02 -0.11282105081E+02 -0.20289553509E+02  0.43400727041E+02  0.00000000000E+00 0. -1.
         11    1    3    3    0    0 -0.15058490869E+02  0.49880378562E+01  0.16353814284E+02  0.22783456955E+02  0.51100000000E-03 0. -1.
        -11    1    3    3    0    0 -0.57930246366E+00  0.33102278734E+01  0.12792409900E+01  0.35957833208E+01  0.51100000000E-03 0.  1.
        -12    1    3    3    0    0 -0.21031965748E+02  0.29838393515E+01  0.26564982356E+01  0.21408032683E+02  0.00000000000E+00 0.  1.
</event>
<event>
 7    1  0.4875579E-009  0.4778727E+02  0.7816164E-02  0.1312668E+00
        -11   -1    0    0    0    0  0.00000000000E+00  0.00000000000E+00  0.45593999997E+02  0.45594000000E+02  0.51100000000E-03 0. -1.
         11   -1    0    0    0    0 -0.00000000000E+00 -0.00000000000E+00 -0.45593999997E+02  0.45594000000E+02  0.51100000000E-03 0.  1.
    9900012    2    1    2    0    0  0.40169370313E+02  0.83781902269E+01 -0.14136852563E+02  0.47787274393E+02  0.20000015269E+02 0.  0.
         12    1    1    2    0    0 -0.40169370313E+02 -0.83781902269E+01  0.14136852563E+02  0.43400725607E+02  0.00000000000E+00 0. -1.
         11    1    3    3    0    0  0.10876455744E+02 -0.47638981298E+01 -0.56796926458E+01  0.13162481671E+02  0.51100000000E-03 0. -1.
        -11    1    3    3    0    0  0.84227361911E+01 -0.58035864437E+00 -0.36065569408E+01  0.91807709006E+01  0.51100000000E-03 0.  1.
        -12    1    3    3    0    0  0.20870178378E+02  0.13722447001E+02 -0.48506029765E+01  0.25444021821E+02  0.00000000000E+00 0.  1.
</event>
<event>
 7    1  0.4875579E-009  0.4778726E+02  0.7816164E-02  0.1312668E+00
        -11   -1    0    0    0    0  0.00000000000E+00  0.00000000000E+00  0.45593999997E+02  0.45594000000E+02  0.51100000000E-03 0.  1.
         11   -1    0    0    0    0 -0.00000000000E+00 -0.00000000000E+00 -0.45593999997E+02  0.45594000000E+02  0.51100000000E-03 0. -1.
    9900012    2    1    2    0    0 -0.19132960826E+01 -0.78949495601E+01  0.42633711969E+02  0.47787258915E+02  0.19999944698E+02 0.  0.
         12    1    1    2    0    0  0.19132960826E+01  0.78949495601E+01 -0.42633711969E+02  0.43400741085E+02  0.00000000000E+00 0. -1.
         11    1    3    3    0    0 -0.21614132936E+01 -0.63327750540E+01  0.58477353210E+01  0.88866054236E+01  0.51100000000E-03 0. -1.
        -11    1    3    3    0    0 -0.23375219473E+01 -0.59472509831E+01  0.28235111695E+02  0.28949185408E+02  0.51100000000E-03 0.  1.
        -12    1    3    3    0    0  0.25856391583E+01  0.43850764770E+01  0.85508649531E+01  0.99514680833E+01  0.00000000000E+00 0.  1.
</event>
<event>
 7    1  0.4875579E-009  0.4778727E+02  0.7816164E-02  0.1312668E+00
        -11   -1    0    0    0    0  0.00000000000E+00  0.00000000000E+00  0.45593999997E+02  0.45594000000E+02  0.51100000000E-03 0. -1.
         11   -1    0    0    0    0 -0.00000000000E+00 -0.00000000000E+00 -0.45593999997E+02  0.45594000000E+02  0.51100000000E-03 0.  1.
    9900012    2    1    2    0    0 -0.38003973628E+01 -0.40892203009E+02 -0.14035947868E+02  0.47787272822E+02  0.20000008105E+02 0.  0.
         12    1    1    2    0    0  0.38003973628E+01  0.40892203009E+02  0.14035947868E+02  0.43400727178E+02  0.00000000000E+00 0. -1.
         11    1    3    3    0    0  0.34673178942E+01 -0.34987265681E+01 -0.77961357589E+00  0.49871012188E+01  0.51100000000E-03 0. -1.
        -11    1    3    3    0    0 -0.52956728835E+01 -0.28089060202E+01 -0.11425720043E+01  0.61024237288E+01  0.51100000000E-03 0.  1.
        -12    1    3    3    0    0 -0.19720423735E+01 -0.34584570420E+02 -0.12113762288E+02  0.36697747875E+02  0.00000000000E+00 0.  1.
</event>
<event>
 7    1  0.4875579E-009  0.4778725E+02  0.7816164E-02  0.1312668E+00
        -11   -1    0    0    0    0  0.00000000000E+00  0.00000000000E+00  0.45593999997E+02  0.45594000000E+02  0.51100000000E-03 0. -1.
         11   -1    0    0    0    0 -0.00000000000E+00 -0.00000000000E+00 -0.45593999997E+02  0.45594000000E+02  0.51100000000E-03 0.  1.
    9900012    2    1    2    0    0  0.13518806421E+02 -0.34751978544E+02  0.22207366828E+02  0.47787247919E+02  0.19999894562E+02 0.  0.
         12    1    1    2    0    0 -0.13518806421E+02  0.34751978544E+02 -0.22207366828E+02  0.43400752081E+02  0.00000000000E+00 0. -1.
         11    1    3    3    0    0  0.34004066660E+01  0.10715031971E+01  0.60560584670E+00  0.36163024346E+01  0.51100000000E-03 0. -1.
        -11    1    3    3    0    0  0.52250864600E+01 -0.75143067017E+01  0.88764610292E+01  0.12749819386E+02  0.51100000000E-03 0.  1.
        -12    1    3    3    0    0  0.48933132945E+01 -0.28309175039E+02  0.12725299952E+02  0.31421126098E+02  0.00000000000E+00 0.  1.
</event>
<event>
 7    1  0.4875579E-009  0.4778727E+02  0.7816164E-02  0.1312668E+00
        -11   -1    0    0    0    0  0.00000000000E+00  0.00000000000E+00  0.45593999997E+02  0.45594000000E+02  0.51100000000E-03 0.  1.
         11   -1    0    0    0    0 -0.00000000000E+00 -0.00000000000E+00 -0.45593999997E+02  0.45594000000E+02  0.51100000000E-03 0. -1.
    9900012    2    1    2    0    0  0.26633588935E+02 -0.22584997911E+01  0.34193193490E+02  0.47787270030E+02  0.19999995376E+02 0.  0.
         12    1    1    2    0    0 -0.26633588935E+02  0.22584997911E+01 -0.34193193490E+02  0.43400729970E+02  0.00000000000E+00 0. -1.
         11    1    3    3    0    0  0.97755877209E+01  0.66042707175E+00  0.21911827303E+02  0.24002634339E+02  0.51100000000E-03 0.  1.
        -11    1    3    3    0    0  0.91703779456E+01  0.16895914144E+01  0.11473947228E+02  0.14785195841E+02  0.51100000000E-03 0. -1.
         12    1    3    3    0    0  0.76876232688E+01 -0.46085182772E+01  0.80741895881E+00  0.89994398498E+01  0.00000000000E+00 0. -1.
</event>
<event>
 7    1  0.4875579E-009  0.4778727E+02  0.7816164E-02  0.1312668E+00
        -11   -1    0    0    0    0  0.00000000000E+00  0.00000000000E+00  0.45593999997E+02  0.45594000000E+02  0.51100000000E-03 0. -1.
         11   -1    0    0    0    0 -0.00000000000E+00 -0.00000000000E+00 -0.45593999997E+02  0.45594000000E+02  0.51100000000E-03 0.  1.
    9900012    2    1    2    0    0  0.20265183842E+02  0.34151558466E+02 -0.17510475047E+02  0.47787270073E+02  0.19999995571E+02 0.  0.
         12    1    1    2    0    0 -0.20265183842E+02 -0.34151558466E+02  0.17510475047E+02  0.43400729927E+02  0.00000000000E+00 0. -1.
         11    1    3    3    0    0  0.98016619059E+01  0.20738816047E+02 -0.10466030346E+02  0.25213267512E+02  0.51100000000E-03 0. -1.
        -11    1    3    3    0    0  0.10815885026E+02  0.10742255479E+02 -0.10263120166E+02  0.18376916430E+02  0.51100000000E-03 0.  1.
         12    1    3    3    0    0 -0.35236309016E+00  0.26704869407E+01  0.32186754649E+01  0.41970861316E+01  0.00000000000E+00 0. -1.
</event>
<event>
 7    1  0.4875579E-009  0.4778729E+02  0.7816164E-02  0.1312668E+00
        -11   -1    0    0    0    0  0.00000000000E+00  0.00000000000E+00  0.45593999997E+02  0.45594000000E+02  0.51100000000E-03 0.  1.
         11   -1    0    0    0    0 -0.00000000000E+00 -0.00000000000E+00 -0.45593999997E+02  0.45594000000E+02  0.51100000000E-03 0. -1.
    9900012    2    1    2    0    0 -0.52966168163E+01  0.43038365356E+02 -0.18074698725E+01  0.47787285840E+02  0.20000067461E+02 0.  0.
         12    1    1    2    0    0  0.52966168163E+01 -0.43038365356E+02  0.18074698725E+01  0.43400714160E+02  0.00000000000E+00 0. -1.
         11    1    3    3    0    0  0.32898882196E+01  0.24852728960E+02 -0.20690086185E+01  0.25154766907E+02  0.51100000000E-03 0. -1.
        -11    1    3    3    0    0 -0.22750099507E+01  0.13589674976E+02  0.34417340211E+01  0.14202129050E+02  0.51100000000E-03 0.  1.
         12    1    3    3    0    0 -0.63114950852E+01  0.45959614204E+01 -0.31801952751E+01  0.84303898828E+01  0.00000000000E+00 0. -1.
</event>
<event>
 7    1  0.4875579E-009  0.4778727E+02  0.7816164E-02  0.1312668E+00
        -11   -1    0    0    0    0  0.00000000000E+00  0.00000000000E+00  0.45593999997E+02  0.45594000000E+02  0.51100000000E-03 0.  1.
         11   -1    0    0    0    0 -0.00000000000E+00 -0.00000000000E+00 -0.45593999997E+02  0.45594000000E+02  0.51100000000E-03 0. -1.
    9900012    2    1    2    0    0 -0.33756064261E+02 -0.44877969136E+01  0.26907456004E+02  0.47787269774E+02  0.19999994208E+02 0.  0.
         12    1    1    2    0    0  0.33756064261E+02  0.44877969136E+01 -0.26907456004E+02  0.43400730226E+02  0.00000000000E+00 0. -1.
         11    1    3    3    0    0 -0.78959424864E+01 -0.17003873814E+01  0.46702916700E+01  0.93299972958E+01  0.51100000000E-03 0. -1.
        -11    1    3    3    0    0 -0.27848529640E+02 -0.38418613188E+01  0.17242301360E+02  0.32978742516E+02  0.51100000000E-03 0.  1.
         12    1    3    3    0    0  0.19884078657E+01  0.10544517865E+01  0.49948629747E+01  0.54785299622E+01  0.00000000000E+00 0. -1.
</event>
<event>
 7    1  0.4875579E-009  0.4778727E+02  0.7816164E-02  0.1312668E+00
        -11   -1    0    0    0    0  0.00000000000E+00  0.00000000000E+00  0.45593999997E+02  0.45594000000E+02  0.51100000000E-03 0.  1.
         11   -1    0    0    0    0 -0.00000000000E+00 -0.00000000000E+00 -0.45593999997E+02  0.45594000000E+02  0.51100000000E-03 0. -1.
    9900012    2    1    2    0    0  0.43042019878E+02 -0.55280253776E+01  0.66970255092E+00  0.47787273724E+02  0.20000012219E+02 0.  0.
         12    1    1    2    0    0 -0.43042019878E+02  0.55280253776E+01 -0.66970255092E+00  0.43400726276E+02  0.00000000000E+00 0. -1.
         11    1    3    3    0    0  0.98898903999E+01 -0.60593486278E+00  0.32485330514E+01  0.10427370542E+02  0.51100000000E-03 0. -1.
        -11    1    3    3    0    0  0.78776037991E+01 -0.18377498287E+01  0.64485477577E+01  0.10344937626E+02  0.51100000000E-03 0.  1.
         12    1    3    3    0    0  0.25274525679E+02 -0.30843406861E+01 -0.90273782581E+01  0.27014965556E+02  0.00000000000E+00 0. -1.
</event>
<event>
 7    1  0.4875579E-009  0.4778727E+02  0.7816164E-02  0.1312668E+00
        -11   -1    0    0    0    0  0.00000000000E+00  0.00000000000E+00  0.45593999997E+02  0.45594000000E+02  0.51100000000E-03 0.  1.
         11   -1    0    0    0    0 -0.00000000000E+00 -0.00000000000E+00 -0.45593999997E+02  0.45594000000E+02  0.51100000000E-03 0. -1.
    9900012    2    1    2    0    0 -0.80954386741E+01  0.37568741479E+01  0.42473202484E+02  0.47787272357E+02  0.20000005983E+02 0.  0.
         12    1    1    2    0    0  0.80954386741E+01 -0.37568741479E+01 -0.42473202484E+02  0.43400727643E+02  0.00000000000E+00 0. -1.
         11    1    3    3    0    0  0.49275894385E+01  0.62431756220E+00  0.10002975218E+02  0.11168277556E+02  0.51100000000E-03 0. -1.
        -11    1    3    3    0    0 -0.28049544963E+01 -0.36959254697E+01  0.87414070030E+01  0.98964554997E+01  0.51100000000E-03 0.  1.
        -12    1    3    3    0    0 -0.10218073616E+02  0.68284820554E+01  0.23728820263E+02  0.26722539301E+02  0.00000000000E+00 0.  1.
</event>
<event>
 7    1  0.4875579E-009  0.4778727E+02  0.7816164E-02  0.1312668E+00
        -11   -1    0    0    0    0  0.00000000000E+00  0.00000000000E+00  0.45593999997E+02  0.45594000000E+02  0.51100000000E-03 0.  1.
         11   -1    0    0    0    0 -0.00000000000E+00 -0.00000000000E+00 -0.45593999997E+02  0.45594000000E+02  0.51100000000E-03 0. -1.
    9900012    2    1    2    0    0  0.38260839931E+02 -0.18091622914E+02  0.96137533091E+01  0.47787274838E+02  0.20000017298E+02 0.  0.
         12    1    1    2    0    0 -0.38260839931E+02  0.18091622914E+02 -0.96137533091E+01  0.43400725162E+02  0.00000000000E+00 0. -1.
         11    1    3    3    0    0 -0.65501709068E+00 -0.11330645609E+01  0.48163191005E+00  0.13945795948E+01  0.51100000000E-03 0. -1.
        -11    1    3    3    0    0  0.33156107602E+02 -0.20073608469E+02  0.92330232747E+01  0.39843769241E+02  0.51100000000E-03 0.  1.
        -12    1    3    3    0    0  0.57597494192E+01  0.31150501158E+01 -0.10090187561E+00  0.65489260024E+01  0.00000000000E+00 0.  1.
</event>
<event>
 7    1  0.4875579E-009  0.4778728E+02  0.7816164E-02  0.1312668E+00
        -11   -1    0    0    0    0  0.00000000000E+00  0.00000000000E+00  0.45593999997E+02  0.45594000000E+02  0.51100000000E-03 0.  1.
         11   -1    0    0    0    0 -0.00000000000E+00 -0.00000000000E+00 -0.45593999997E+02  0.45594000000E+02  0.51100000000E-03 0. -1.
    9900012    2    1    2    0    0  0.58804177712E+01 -0.11202405494E+02  0.41515655353E+02  0.47787276027E+02  0.20000022717E+02 0.  0.
         12    1    1    2    0    0 -0.58804177712E+01  0.11202405494E+02 -0.41515655353E+02  0.43400723973E+02  0.00000000000E+00 0. -1.
         11    1    3    3    0    0 -0.12109673697E+01 -0.15985890594E+01  0.15130104230E+01  0.25121962011E+01  0.51100000000E-03 0. -1.
        -11    1    3    3    0    0  0.59233501697E+01  0.26463098096E+01  0.50558533903E+01  0.82250037451E+01  0.51100000000E-03 0.  1.
         12    1    3    3    0    0  0.11680349712E+01 -0.12250126244E+02  0.34946791539E+02  0.37050076081E+02  0.00000000000E+00 0. -1.
</event>
<event>
 7    1  0.4875579E-009  0.4778727E+02  0.7816164E-02  0.1312668E+00
        -11   -1    0    0    0    0  0.00000000000E+00  0.00000000000E+00  0.45593999997E+02  0.45594000000E+02  0.51100000000E-03 0.  1.
         11   -1    0    0    0    0 -0.00000000000E+00 -0.00000000000E+00 -0.45593999997E+02  0.45594000000E+02  0.51100000000E-03 0. -1.
    9900012    2    1    2    0    0 -0.18708707398E+02 -0.23834452638E+02  0.31072918814E+02  0.47787272487E+02  0.20000006576E+02 0.  0.
         12    1    1    2    0    0  0.18708707398E+02  0.23834452638E+02 -0.31072918814E+02  0.43400727513E+02  0.00000000000E+00 0. -1.
         11    1    3    3    0    0 -0.57666054480E+01 -0.25636149002E+01  0.20661159895E+01  0.66403836706E+01  0.51100000000E-03 0. -1.
        -11    1    3    3    0    0 -0.13387910172E+02 -0.20573317537E+02  0.18830045147E+02  0.30936517802E+02  0.51100000000E-03 0.  1.
        -12    1    3    3    0    0  0.44580822187E+00 -0.69752020059E+00  0.10176757678E+02  0.10210371014E+02  0.00000000000E+00 0.  1.
</event>
<event>
 7    1  0.4875579E-009  0.4778727E+02  0.7816164E-02  0.1312668E+00
        -11   -1    0    0    0    0  0.00000000000E+00  0.00000000000E+00  0.45593999997E+02  0.45594000000E+02  0.51100000000E-03 0.  1.
         11   -1    0    0    0    0 -0.00000000000E+00 -0.00000000000E+00 -0.45593999997E+02  0.45594000000E+02  0.51100000000E-03 0. -1.
    9900012    2    1    2    0    0  0.12716824408E+02  0.40217139271E+02  0.10221916890E+02  0.47787268450E+02  0.19999988171E+02 0.  0.
         12    1    1    2    0    0 -0.12716824408E+02 -0.40217139271E+02 -0.10221916890E+02  0.43400731550E+02  0.00000000000E+00 0. -1.
         11    1    3    3    0    0  0.91335300994E+01  0.21247490030E+02 -0.31354606119E+01  0.23338987085E+02  0.51100000000E-03 0. -1.
        -11    1    3    3    0    0 -0.17824077246E+01  0.55054561308E+01  0.23387313345E+01  0.62415293816E+01  0.51100000000E-03 0.  1.
         12    1    3    3    0    0  0.53657020330E+01  0.13464193110E+02  0.11018646168E+02  0.18206751983E+02  0.00000000000E+00 0. -1.
</event>
<event>
 7    1  0.4875579E-009  0.4778727E+02  0.7816164E-02  0.1312668E+00
        -11   -1    0    0    0    0  0.00000000000E+00  0.00000000000E+00  0.45593999997E+02  0.45594000000E+02  0.51100000000E-03 0. -1.
         11   -1    0    0    0    0 -0.00000000000E+00 -0.00000000000E+00 -0.45593999997E+02  0.45594000000E+02  0.51100000000E-03 0.  1.
    9900012    2    1    2    0    0  0.39194310369E+02 -0.17799904475E+02  0.55310552037E+01  0.47787272629E+02  0.20000007226E+02 0.  0.
         12    1    1    2    0    0 -0.39194310369E+02  0.17799904475E+02 -0.55310552037E+01  0.43400727371E+02  0.00000000000E+00 0. -1.
         11    1    3    3    0    0  0.25709423399E+02 -0.67721382417E+01  0.52778519861E+01  0.27105203001E+02  0.51100000000E-03 0. -1.
        -11    1    3    3    0    0  0.24446439806E+01  0.23112437743E+01 -0.36681635928E-01  0.33644431604E+01  0.51100000000E-03 0.  1.
         12    1    3    3    0    0  0.11040242990E+02 -0.13339010007E+02  0.28988485348E+00  0.17317626468E+02  0.00000000000E+00 0. -1.
</event>
<event>
 7    1  0.4875579E-009  0.4778727E+02  0.7816164E-02  0.1312668E+00
        -11   -1    0    0    0    0  0.00000000000E+00  0.00000000000E+00  0.45593999997E+02  0.45594000000E+02  0.51100000000E-03 0.  1.
         11   -1    0    0    0    0 -0.00000000000E+00 -0.00000000000E+00 -0.45593999997E+02  0.45594000000E+02  0.51100000000E-03 0. -1.
    9900012    2    1    2    0    0 -0.32543945387E+02  0.15918221042E+02  0.23898234787E+02  0.47787265347E+02  0.19999974025E+02 0.  0.
         12    1    1    2    0    0  0.32543945387E+02 -0.15918221042E+02 -0.23898234787E+02  0.43400734653E+02  0.00000000000E+00 0. -1.
         11    1    3    3    0    0 -0.10767051947E+02  0.54169071274E+01 -0.46877927372E+00  0.12062008320E+02  0.51100000000E-03 0. -1.
        -11    1    3    3    0    0 -0.10235170803E+00  0.30943379358E+01  0.41240891404E+01  0.51568900155E+01  0.51100000000E-03 0.  1.
        -12    1    3    3    0    0 -0.21674541732E+02  0.74069759784E+01  0.20242924920E+02  0.30568367011E+02  0.00000000000E+00 0.  1.
</event>
<event>
 7    1  0.4875579E-009  0.4778727E+02  0.7816164E-02  0.1312668E+00
        -11   -1    0    0    0    0  0.00000000000E+00  0.00000000000E+00  0.45593999997E+02  0.45594000000E+02  0.51100000000E-03 0.  1.
         11   -1    0    0    0    0 -0.00000000000E+00 -0.00000000000E+00 -0.45593999997E+02  0.45594000000E+02  0.51100000000E-03 0. -1.
    9900012    2    1    2    0    0  0.32573945496E+02  0.23523774634E+02  0.16407106244E+02  0.47787273814E+02  0.20000012626E+02 0.  0.
         12    1    1    2    0    0 -0.32573945496E+02 -0.23523774634E+02 -0.16407106244E+02  0.43400726186E+02  0.00000000000E+00 0. -1.
         11    1    3    3    0    0  0.21320408533E+01  0.13154840649E+01  0.66248468350E+01  0.70827037474E+01  0.51100000000E-03 0. -1.
        -11    1    3    3    0    0  0.53926106207E+01  0.10517336076E+02  0.20043071991E+01  0.11987987949E+02  0.51100000000E-03 0.  1.
         12    1    3    3    0    0  0.25049294022E+02  0.11690954493E+02  0.77779522098E+01  0.28716582118E+02  0.00000000000E+00 0. -1.
</event>
<event>
 7    1  0.4875579E-009  0.4778727E+02  0.7816164E-02  0.1312668E+00
        -11   -1    0    0    0    0  0.00000000000E+00  0.00000000000E+00  0.45593999997E+02  0.45594000000E+02  0.51100000000E-03 0. -1.
         11   -1    0    0    0    0 -0.00000000000E+00 -0.00000000000E+00 -0.45593999997E+02  0.45594000000E+02  0.51100000000E-03 0.  1.
    9900012    2    1    2    0    0 -0.38608605273E+02 -0.12664010665E+02 -0.15251945491E+02  0.47787269493E+02  0.19999992927E+02 0.  0.
         12    1    1    2    0    0  0.38608605273E+02  0.12664010665E+02  0.15251945491E+02  0.43400730507E+02  0.00000000000E+00 0. -1.
         11    1    3    3    0    0 -0.18522023608E+02  0.27784260252E+00 -0.91060065589E+01  0.20641267180E+02  0.51100000000E-03 0. -1.
        -11    1    3    3    0    0 -0.18850778892E+02 -0.65900924863E+01 -0.45537565346E+01  0.20482135696E+02  0.51100000000E-03 0.  1.
         12    1    3    3    0    0 -0.12358027728E+01 -0.63517607815E+01 -0.15921823970E+01  0.66638666181E+01  0.00000000000E+00 0. -1.
</event>
<event>
 7    1  0.4875579E-009  0.4778728E+02  0.7816164E-02  0.1312668E+00
        -11   -1    0    0    0    0  0.00000000000E+00  0.00000000000E+00  0.45593999997E+02  0.45594000000E+02  0.51100000000E-03 0.  1.
         11   -1    0    0    0    0 -0.00000000000E+00 -0.00000000000E+00 -0.45593999997E+02  0.45594000000E+02  0.51100000000E-03 0. -1.
    9900012    2    1    2    0    0  0.21705933766E+02  0.15774167898E+02  0.34112325367E+02  0.47787277938E+02  0.20000031431E+02 0.  0.
         12    1    1    2    0    0 -0.21705933766E+02 -0.15774167898E+02 -0.34112325367E+02  0.43400722062E+02  0.00000000000E+00 0. -1.
         11    1    3    3    0    0  0.19934745283E+00  0.10945761973E+01  0.35575784705E+00  0.11680754965E+01  0.51100000000E-03 0. -1.
        -11    1    3    3    0    0  0.15589779351E+02 -0.84017667266E-01  0.12023798222E+02  0.19688067531E+02  0.51100000000E-03 0.  1.
         12    1    3    3    0    0  0.59168069624E+01  0.14763609368E+02  0.21732769298E+02  0.26931134910E+02  0.00000000000E+00 0. -1.
</event>
<event>
 7    1  0.4875579E-009  0.4778723E+02  0.7816164E-02  0.1312668E+00
        -11   -1    0    0    0    0  0.00000000000E+00  0.00000000000E+00  0.45593999997E+02  0.45594000000E+02  0.51100000000E-03 0. -1.
         11   -1    0    0    0    0 -0.00000000000E+00 -0.00000000000E+00 -0.45593999997E+02  0.45594000000E+02  0.51100000000E-03 0.  1.
    9900012    2    1    2    0    0 -0.24253398876E+02 -0.34596724914E+02 -0.99230011237E+01  0.47787231768E+02  0.19999820923E+02 0.  0.
         12    1    1    2    0    0  0.24253398876E+02  0.34596724914E+02  0.99230011237E+01  0.43400768232E+02  0.00000000000E+00 0. -1.
         11    1    3    3    0    0 -0.20631004406E+01 -0.31262195151E+01  0.43356481387E+01  0.57295267630E+01  0.51100000000E-03 0. -1.
        -11    1    3    3    0    0 -0.92796830868E+01 -0.61211474929E+01 -0.37948368241E+01  0.11746563395E+02  0.51100000000E-03 0.  1.
         12    1    3    3    0    0 -0.12910615349E+02 -0.25349357906E+02 -0.10463812438E+02  0.30311141610E+02  0.00000000000E+00 0. -1.
</event>
<event>
 7    1  0.4875579E-009  0.4778727E+02  0.7816164E-02  0.1312668E+00
        -11   -1    0    0    0    0  0.00000000000E+00  0.00000000000E+00  0.45593999997E+02  0.45594000000E+02  0.51100000000E-03 0.  1.
         11   -1    0    0    0    0 -0.00000000000E+00 -0.00000000000E+00 -0.45593999997E+02  0.45594000000E+02  0.51100000000E-03 0. -1.
    9900012    2    1    2    0    0 -0.12491445486E+02  0.28272730369E+02  0.30467029643E+02  0.47787269729E+02  0.19999994001E+02 0.  0.
         12    1    1    2    0    0  0.12491445486E+02 -0.28272730369E+02 -0.30467029643E+02  0.43400730271E+02  0.00000000000E+00 0. -1.
         11    1    3    3    0    0  0.19898410089E+01  0.58385096025E+01  0.54061891870E+01  0.82021060348E+01  0.51100000000E-03 0. -1.
        -11    1    3    3    0    0 -0.32982647666E+01  0.17239740804E+02  0.18927234113E+02  0.25813318363E+02  0.51100000000E-03 0.  1.
        -12    1    3    3    0    0 -0.11183021729E+02  0.51944799624E+01  0.61336063426E+01  0.13771845331E+02  0.00000000000E+00 0.  1.
</event>
<event>
 7    1  0.4875579E-009  0.4778727E+02  0.7816164E-02  0.1312668E+00
        -11   -1    0    0    0    0  0.00000000000E+00  0.00000000000E+00  0.45593999997E+02  0.45594000000E+02  0.51100000000E-03 0. -1.
         11   -1    0    0    0    0 -0.00000000000E+00 -0.00000000000E+00 -0.45593999997E+02  0.45594000000E+02  0.51100000000E-03 0.  1.
    9900012    2    1    2    0    0  0.21327485302E+02 -0.35982781952E+02 -0.11575882010E+02  0.47787271082E+02  0.20000000171E+02 0.  0.
         12    1    1    2    0    0 -0.21327485302E+02  0.35982781952E+02  0.11575882010E+02  0.43400728918E+02  0.00000000000E+00 0. -1.
         11    1    3    3    0    0  0.86227438157E+01 -0.96058833506E+01  0.27390919404E+01  0.13195731536E+02  0.51100000000E-03 0. -1.
        -11    1    3    3    0    0  0.12362638780E+02 -0.21800660613E+02 -0.71130988455E+01  0.26051867806E+02  0.51100000000E-03 0.  1.
         12    1    3    3    0    0  0.34210270696E+00 -0.45762379883E+01 -0.72018751051E+01  0.85396717394E+01  0.00000000000E+00 0. -1.
</event>
<event>
 7    1  0.4875579E-009  0.4778727E+02  0.7816164E-02  0.1312668E+00
        -11   -1    0    0    0    0  0.00000000000E+00  0.00000000000E+00  0.45593999997E+02  0.45594000000E+02  0.51100000000E-03 0.  1.
         11   -1    0    0    0    0 -0.00000000000E+00 -0.00000000000E+00 -0.45593999997E+02  0.45594000000E+02  0.51100000000E-03 0. -1.
    9900012    2    1    2    0    0 -0.14449348137E+01  0.46115817389E+01  0.43130835861E+02  0.47787268153E+02  0.19999986817E+02 0.  0.
         12    1    1    2    0    0  0.14449348137E+01 -0.46115817389E+01 -0.43130835861E+02  0.43400731847E+02  0.00000000000E+00 0. -1.
         11    1    3    3    0    0 -0.22333527611E+01  0.69774492110E+00  0.10286240934E+02  0.10549003050E+02  0.51100000000E-03 0.  1.
        -11    1    3    3    0    0 -0.67859173177E+01 -0.15272367371E+01  0.21244026419E+02  0.22353742073E+02  0.51100000000E-03 0. -1.
        -12    1    3    3    0    0  0.75743352651E+01  0.54410735550E+01  0.11600568508E+02  0.14884523030E+02  0.00000000000E+00 0.  1.
</event>
<event>
 7    1  0.4875579E-009  0.4778726E+02  0.7816164E-02  0.1312668E+00
        -11   -1    0    0    0    0  0.00000000000E+00  0.00000000000E+00  0.45593999997E+02  0.45594000000E+02  0.51100000000E-03 0.  1.
         11   -1    0    0    0    0 -0.00000000000E+00 -0.00000000000E+00 -0.45593999997E+02  0.45594000000E+02  0.51100000000E-03 0. -1.
    9900012    2    1    2    0    0  0.70114995165E+01 -0.36797800496E+02  0.21917688564E+02  0.47787259006E+02  0.19999945112E+02 0.  0.
         12    1    1    2    0    0 -0.70114995165E+01  0.36797800496E+02 -0.21917688564E+02  0.43400740994E+02  0.00000000000E+00 0. -1.
         11    1    3    3    0    0  0.34492597338E+01 -0.74333813778E+01  0.27707354388E+01  0.86504061495E+01  0.51100000000E-03 0. -1.
        -11    1    3    3    0    0 -0.62164954313E+01 -0.70278467439E+01  0.28396553641E+01  0.98030142381E+01  0.51100000000E-03 0.  1.
        -12    1    3    3    0    0  0.97787352141E+01 -0.22336572375E+02  0.16307297761E+02  0.29333838619E+02  0.00000000000E+00 0.  1.
</event>
<event>
 7    1  0.4875579E-009  0.4778727E+02  0.7816164E-02  0.1312668E+00
        -11   -1    0    0    0    0  0.00000000000E+00  0.00000000000E+00  0.45593999997E+02  0.45594000000E+02  0.51100000000E-03 0.  1.
         11   -1    0    0    0    0 -0.00000000000E+00 -0.00000000000E+00 -0.45593999997E+02  0.45594000000E+02  0.51100000000E-03 0. -1.
    9900012    2    1    2    0    0  0.17214933242E+02  0.26230552527E+02  0.29987121425E+02  0.47787271161E+02  0.20000000531E+02 0.  0.
         12    1    1    2    0    0 -0.17214933242E+02 -0.26230552527E+02 -0.29987121425E+02  0.43400728839E+02  0.00000000000E+00 0. -1.
         11    1    3    3    0    0  0.11414628352E+01  0.44343265300E+01  0.31574955884E+00  0.45897589505E+01  0.51100000000E-03 0. -1.
        -11    1    3    3    0    0  0.88653542880E+01  0.20456985767E+02  0.15226770584E+02  0.26998839160E+02  0.51100000000E-03 0.  1.
         12    1    3    3    0    0  0.72081161192E+01  0.13392402297E+01  0.14444601282E+02  0.16198673050E+02  0.00000000000E+00 0. -1.
</event>
<event>
 7    1  0.4875579E-009  0.4778727E+02  0.7816164E-02  0.1312668E+00
        -11   -1    0    0    0    0  0.00000000000E+00  0.00000000000E+00  0.45593999997E+02  0.45594000000E+02  0.51100000000E-03 0. -1.
         11   -1    0    0    0    0 -0.00000000000E+00 -0.00000000000E+00 -0.45593999997E+02  0.45594000000E+02  0.51100000000E-03 0.  1.
    9900012    2    1    2    0    0 -0.16742159494E+02  0.10941525318E+02 -0.38517613959E+02  0.47787268832E+02  0.19999989913E+02 0.  0.
         12    1    1    2    0    0  0.16742159494E+02 -0.10941525318E+02  0.38517613959E+02  0.43400731168E+02  0.00000000000E+00 0. -1.
         11    1    3    3    0    0 -0.74700817665E-01  0.21495638386E+01 -0.35926469912E+01  0.41872804507E+01  0.51100000000E-03 0. -1.
        -11    1    3    3    0    0  0.32528392431E+01 -0.14494959884E+01 -0.33660481998E+01  0.49002329032E+01  0.51100000000E-03 0.  1.
        -12    1    3    3    0    0 -0.19920297919E+02  0.10241457468E+02 -0.31558918768E+02  0.38699755478E+02  0.00000000000E+00 0.  1.
</event>
<event>
 7    1  0.4875579E-009  0.4778727E+02  0.7816164E-02  0.1312668E+00
        -11   -1    0    0    0    0  0.00000000000E+00  0.00000000000E+00  0.45593999997E+02  0.45594000000E+02  0.51100000000E-03 0. -1.
         11   -1    0    0    0    0 -0.00000000000E+00 -0.00000000000E+00 -0.45593999997E+02  0.45594000000E+02  0.51100000000E-03 0.  1.
    9900012    2    1    2    0    0  0.13435303884E+01  0.20289165960E+02 -0.38342767430E+02  0.47787272547E+02  0.20000006851E+02 0.  0.
         12    1    1    2    0    0 -0.13435303884E+01 -0.20289165960E+02  0.38342767430E+02  0.43400727453E+02  0.00000000000E+00 0. -1.
         11    1    3    3    0    0 -0.32433268171E+00  0.50404583467E+00 -0.21640083608E+01  0.22454813156E+01  0.51100000000E-03 0. -1.
        -11    1    3    3    0    0  0.12119882845E+01  0.13087170646E+02 -0.36526674560E+02  0.38819336751E+02  0.51100000000E-03 0.  1.
         12    1    3    3    0    0  0.45587478566E+00  0.66979494792E+01  0.34791549104E+00  0.67224544800E+01  0.00000000000E+00 0. -1.
</event>
<event>
 7    1  0.4875579E-009  0.4778727E+02  0.7816164E-02  0.1312668E+00
        -11   -1    0    0    0    0  0.00000000000E+00  0.00000000000E+00  0.45593999997E+02  0.45594000000E+02  0.51100000000E-03 0.  1.
         11   -1    0    0    0    0 -0.00000000000E+00 -0.00000000000E+00 -0.45593999997E+02  0.45594000000E+02  0.51100000000E-03 0. -1.
    9900012    2    1    2    0    0 -0.14734187897E+02 -0.26803893129E+02  0.30790877500E+02  0.47787272851E+02  0.20000008237E+02 0.  0.
         12    1    1    2    0    0  0.14734187897E+02  0.26803893129E+02 -0.30790877500E+02  0.43400727149E+02  0.00000000000E+00 0. -1.
         11    1    3    3    0    0  0.14659241955E+01 -0.42696964885E+01  0.72863781542E+01  0.85714962940E+01  0.51100000000E-03 0. -1.
        -11    1    3    3    0    0  0.84220695410E+00  0.12200244498E+01  0.34730277935E+01  0.37762010708E+01  0.51100000000E-03 0.  1.
        -12    1    3    3    0    0 -0.17042319047E+02 -0.23754221090E+02  0.20031471552E+02  0.35439575486E+02  0.00000000000E+00 0.  1.
</event>
<event>
 7    1  0.4875579E-009  0.4778727E+02  0.7816164E-02  0.1312668E+00
        -11   -1    0    0    0    0  0.00000000000E+00  0.00000000000E+00  0.45593999997E+02  0.45594000000E+02  0.51100000000E-03 0.  1.
         11   -1    0    0    0    0 -0.00000000000E+00 -0.00000000000E+00 -0.45593999997E+02  0.45594000000E+02  0.51100000000E-03 0. -1.
    9900012    2    1    2    0    0  0.36992788553E+02 -0.17099355524E+02  0.14925439683E+02  0.47787272887E+02  0.20000008400E+02 0.  0.
         12    1    1    2    0    0 -0.36992788553E+02  0.17099355524E+02 -0.14925439683E+02  0.43400727113E+02  0.00000000000E+00 0. -1.
         11    1    3    3    0    0  0.89823840235E+01  0.25961221888E+01  0.44022534185E+01  0.10334549269E+02  0.51100000000E-03 0. -1.
        -11    1    3    3    0    0  0.39226321874E+01 -0.41851543861E+01  0.62552994116E+01  0.84871273999E+01  0.51100000000E-03 0.  1.
        -12    1    3    3    0    0  0.24087772342E+02 -0.15510323327E+02  0.42678868528E+01  0.28965596218E+02  0.00000000000E+00 0.  1.
</event>
<event>
 7    1  0.4875579E-009  0.4778727E+02  0.7816164E-02  0.1312668E+00
        -11   -1    0    0    0    0  0.00000000000E+00  0.00000000000E+00  0.45593999997E+02  0.45594000000E+02  0.51100000000E-03 0.  1.
         11   -1    0    0    0    0 -0.00000000000E+00 -0.00000000000E+00 -0.45593999997E+02  0.45594000000E+02  0.51100000000E-03 0. -1.
    9900012    2    1    2    0    0  0.29973901344E+02 -0.24819100947E+02  0.19214592888E+02  0.47787272892E+02  0.20000008423E+02 0.  0.
         12    1    1    2    0    0 -0.29973901344E+02  0.24819100947E+02 -0.19214592888E+02  0.43400727108E+02  0.00000000000E+00 0. -1.
         11    1    3    3    0    0  0.12995472253E+02 -0.63623468712E+01  0.48671897981E+01  0.15266017607E+02  0.51100000000E-03 0. -1.
        -11    1    3    3    0    0  0.16046625685E+02 -0.92807536444E+01  0.45948274432E+01  0.19098141888E+02  0.51100000000E-03 0.  1.
         12    1    3    3    0    0  0.93180340687E+00 -0.91760004320E+01  0.97525756472E+01  0.13423113397E+02  0.00000000000E+00 0. -1.
</event>
<event>
 7    1  0.4875579E-009  0.4778727E+02  0.7816164E-02  0.1312668E+00
        -11   -1    0    0    0    0  0.00000000000E+00  0.00000000000E+00  0.45593999997E+02  0.45594000000E+02  0.51100000000E-03 0. -1.
         11   -1    0    0    0    0 -0.00000000000E+00 -0.00000000000E+00 -0.45593999997E+02  0.45594000000E+02  0.51100000000E-03 0.  1.
    9900012    2    1    2    0    0  0.11646728296E+02 -0.34926826370E+02  0.22980284321E+02  0.47787274801E+02  0.20000017129E+02 0.  0.
         12    1    1    2    0    0 -0.11646728296E+02  0.34926826370E+02 -0.22980284321E+02  0.43400725199E+02  0.00000000000E+00 0. -1.
         11    1    3    3    0    0  0.37405471625E+01 -0.54572441262E+01 -0.13380344561E+01  0.67500772584E+01  0.51100000000E-03 0. -1.
        -11    1    3    3    0    0 -0.28011976642E+01 -0.31863485181E+01  0.56564814531E+01  0.70707360241E+01  0.51100000000E-03 0.  1.
        -12    1    3    3    0    0  0.10707378797E+02 -0.26283233726E+02  0.18661837324E+02  0.33966461519E+02  0.00000000000E+00 0.  1.
</event>
<event>
 7    1  0.4875579E-009  0.4778727E+02  0.7816164E-02  0.1312668E+00
        -11   -1    0    0    0    0  0.00000000000E+00  0.00000000000E+00  0.45593999997E+02  0.45594000000E+02  0.51100000000E-03 0.  1.
         11   -1    0    0    0    0 -0.00000000000E+00 -0.00000000000E+00 -0.45593999997E+02  0.45594000000E+02  0.51100000000E-03 0. -1.
    9900012    2    1    2    0    0 -0.10930704535E+02 -0.37604516859E+02  0.18709444765E+02  0.47787270591E+02  0.19999997932E+02 0.  0.
         12    1    1    2    0    0  0.10930704535E+02  0.37604516859E+02 -0.18709444765E+02  0.43400729409E+02  0.00000000000E+00 0. -1.
         11    1    3    3    0    0 -0.54685055879E+01 -0.17511397685E+02  0.69503397905E+01  0.19617870061E+02  0.51100000000E-03 0. -1.
        -11    1    3    3    0    0 -0.76574155347E+01 -0.17279994256E+02  0.35675305969E+01  0.19234382989E+02  0.51100000000E-03 0.  1.
         12    1    3    3    0    0  0.21952165881E+01 -0.28131249178E+01  0.81915743777E+01  0.89350175409E+01  0.00000000000E+00 0. -1.
</event>
<event>
 7    1  0.4875579E-009  0.4778727E+02  0.7816164E-02  0.1312668E+00
        -11   -1    0    0    0    0  0.00000000000E+00  0.00000000000E+00  0.45593999997E+02  0.45594000000E+02  0.51100000000E-03 0.  1.
         11   -1    0    0    0    0 -0.00000000000E+00 -0.00000000000E+00 -0.45593999997E+02  0.45594000000E+02  0.51100000000E-03 0. -1.
    9900012    2    1    2    0    0  0.30665933920E+02  0.15053965546E+02  0.26769420721E+02  0.47787271117E+02  0.20000000330E+02 0.  0.
         12    1    1    2    0    0 -0.30665933920E+02 -0.15053965546E+02 -0.26769420721E+02  0.43400728883E+02  0.00000000000E+00 0. -1.
         11    1    3    3    0    0  0.37907709781E+00  0.22459963853E+01 -0.96688751425E+00  0.24744839735E+01  0.51100000000E-03 0. -1.
        -11    1    3    3    0    0  0.83543490550E+01  0.11000650742E+02  0.10128174086E+02  0.17128612771E+02  0.51100000000E-03 0.  1.
        -12    1    3    3    0    0  0.21932507767E+02  0.18073184187E+01  0.17608134149E+02  0.28184174372E+02  0.00000000000E+00 0.  1.
</event>
<event>
 7    1  0.4875579E-009  0.4778727E+02  0.7816164E-02  0.1312668E+00
        -11   -1    0    0    0    0  0.00000000000E+00  0.00000000000E+00  0.45593999997E+02  0.45594000000E+02  0.51100000000E-03 0.  1.
         11   -1    0    0    0    0 -0.00000000000E+00 -0.00000000000E+00 -0.45593999997E+02  0.45594000000E+02  0.51100000000E-03 0. -1.
    9900012    2    1    2    0    0  0.49790392811E+01 -0.89235009918E+01  0.42180604911E+02  0.47787272670E+02  0.20000007412E+02 0.  0.
         12    1    1    2    0    0 -0.49790392811E+01  0.89235009918E+01 -0.42180604911E+02  0.43400727330E+02  0.00000000000E+00 0. -1.
         11    1    3    3    0    0  0.38827304474E+01 -0.45856090102E+01  0.18543605119E+02  0.19492785763E+02  0.51100000000E-03 0. -1.
        -11    1    3    3    0    0  0.30075989140E+01 -0.81064339932E+00  0.24059682622E+02  0.24260484787E+02  0.51100000000E-03 0.  1.
         12    1    3    3    0    0 -0.19112900803E+01 -0.35272485822E+01 -0.42268283028E+00  0.40340021203E+01  0.00000000000E+00 0. -1.
</event>
<event>
 7    1  0.4875579E-009  0.4778727E+02  0.7816164E-02  0.1312668E+00
        -11   -1    0    0    0    0  0.00000000000E+00  0.00000000000E+00  0.45593999997E+02  0.45594000000E+02  0.51100000000E-03 0.  1.
         11   -1    0    0    0    0 -0.00000000000E+00 -0.00000000000E+00 -0.45593999997E+02  0.45594000000E+02  0.51100000000E-03 0. -1.
    9900012    2    1    2    0    0  0.33212416256E+02 -0.21170964093E+02  0.18230444573E+02  0.47787269321E+02  0.19999992141E+02 0.  0.
         12    1    1    2    0    0 -0.33212416256E+02  0.21170964093E+02 -0.18230444573E+02  0.43400730679E+02  0.00000000000E+00 0. -1.
         11    1    3    3    0    0  0.15577573234E+01  0.29863905729E+00 -0.13119761673E+01  0.20584156261E+01  0.51100000000E-03 0. -1.
        -11    1    3    3    0    0  0.37971095521E+01 -0.10309331669E+02  0.79352949885E+01  0.13552463511E+02  0.51100000000E-03 0.  1.
         12    1    3    3    0    0  0.27857549380E+02 -0.11160271481E+02  0.11607125752E+02  0.32176390183E+02  0.00000000000E+00 0. -1.
</event>
<event>
 7    1  0.4875579E-009  0.4778727E+02  0.7816164E-02  0.1312668E+00
        -11   -1    0    0    0    0  0.00000000000E+00  0.00000000000E+00  0.45593999997E+02  0.45594000000E+02  0.51100000000E-03 0.  1.
         11   -1    0    0    0    0 -0.00000000000E+00 -0.00000000000E+00 -0.45593999997E+02  0.45594000000E+02  0.51100000000E-03 0. -1.
    9900012    2    1    2    0    0 -0.21635489609E+02 -0.31085664785E+02  0.21194584388E+02  0.47787269900E+02  0.19999994784E+02 0.  0.
         12    1    1    2    0    0  0.21635489609E+02  0.31085664785E+02 -0.21194584388E+02  0.43400730100E+02  0.00000000000E+00 0. -1.
         11    1    3    3    0    0  0.22304730354E+01 -0.25804842387E+01 -0.19031469666E+01  0.39058773029E+01  0.51100000000E-03 0. -1.
        -11    1    3    3    0    0 -0.28347882077E+01 -0.51413080677E+01  0.34000036019E+01  0.67844747464E+01  0.51100000000E-03 0.  1.
         12    1    3    3    0    0 -0.21031174437E+02 -0.23363872479E+02  0.19697727753E+02  0.37096917851E+02  0.00000000000E+00 0. -1.
</event>
<event>
 7    1  0.4875579E-009  0.4778727E+02  0.7816164E-02  0.1312668E+00
        -11   -1    0    0    0    0  0.00000000000E+00  0.00000000000E+00  0.45593999997E+02  0.45594000000E+02  0.51100000000E-03 0.  1.
         11   -1    0    0    0    0 -0.00000000000E+00 -0.00000000000E+00 -0.45593999997E+02  0.45594000000E+02  0.51100000000E-03 0. -1.
    9900012    2    1    2    0    0  0.31454377626E+02  0.29141831667E+01  0.29761598490E+02  0.47787273278E+02  0.20000010183E+02 0.  0.
         12    1    1    2    0    0 -0.31454377626E+02 -0.29141831667E+01 -0.29761598490E+02  0.43400726722E+02  0.00000000000E+00 0. -1.
         11    1    3    3    0    0 -0.90358633283E+00 -0.13260874482E+01  0.51410770622E+01  0.53856893526E+01  0.51100000000E-03 0. -1.
        -11    1    3    3    0    0  0.14401846140E+02 -0.92599875784E+00  0.16797074349E+02  0.22145255765E+02  0.51100000000E-03 0.  1.
         12    1    3    3    0    0  0.17956117819E+02  0.51662693728E+01  0.78234470780E+01  0.20256328160E+02  0.00000000000E+00 0. -1.
</event>
<event>
 7    1  0.4875579E-009  0.4778726E+02  0.7816164E-02  0.1312668E+00
        -11   -1    0    0    0    0  0.00000000000E+00  0.00000000000E+00  0.45593999997E+02  0.45594000000E+02  0.51100000000E-03 0.  1.
         11   -1    0    0    0    0 -0.00000000000E+00 -0.00000000000E+00 -0.45593999997E+02  0.45594000000E+02  0.51100000000E-03 0. -1.
    9900012    2    1    2    0    0 -0.39857296370E+02  0.85438554629E+01 -0.14900436279E+02  0.47787256442E+02  0.19999933419E+02 0.  0.
         12    1    1    2    0    0  0.39857296370E+02 -0.85438554629E+01  0.14900436279E+02  0.43400743558E+02  0.00000000000E+00 0. -1.
         11    1    3    3    0    0 -0.17795647835E+02 -0.17144361991E+01 -0.39699305899E+01  0.18313512020E+02  0.51100000000E-03 0. -1.
        -11    1    3    3    0    0 -0.13722840702E+02  0.64389032939E+01  0.60552831792E-01  0.15158479458E+02  0.51100000000E-03 0.  1.
         12    1    3    3    0    0 -0.83388078335E+01  0.38193883681E+01 -0.10991058521E+02  0.14315264964E+02  0.00000000000E+00 0. -1.
</event>
<event>
 7    1  0.4875579E-009  0.4778727E+02  0.7816164E-02  0.1312668E+00
        -11   -1    0    0    0    0  0.00000000000E+00  0.00000000000E+00  0.45593999997E+02  0.45594000000E+02  0.51100000000E-03 0.  1.
         11   -1    0    0    0    0 -0.00000000000E+00 -0.00000000000E+00 -0.45593999997E+02  0.45594000000E+02  0.51100000000E-03 0. -1.
    9900012    2    1    2    0    0  0.16810747526E+02  0.26976541575E+02  0.29551456661E+02  0.47787267074E+02  0.19999981895E+02 0.  0.
         12    1    1    2    0    0 -0.16810747526E+02 -0.26976541575E+02 -0.29551456661E+02  0.43400732926E+02  0.00000000000E+00 0. -1.
         11    1    3    3    0    0  0.15576053381E+02  0.18039557905E+02  0.13966217925E+02  0.27624162100E+02  0.51100000000E-03 0. -1.
        -11    1    3    3    0    0  0.27733810121E+01 -0.83801541421E+00  0.35100700601E+01  0.45513189474E+01  0.51100000000E-03 0.  1.
        -12    1    3    3    0    0 -0.15386868668E+01  0.97749990839E+01  0.12075168676E+02  0.15611786026E+02  0.00000000000E+00 0.  1.
</event>
<event>
 7    1  0.4875579E-009  0.4778727E+02  0.7816164E-02  0.1312668E+00
        -11   -1    0    0    0    0  0.00000000000E+00  0.00000000000E+00  0.45593999997E+02  0.45594000000E+02  0.51100000000E-03 0.  1.
         11   -1    0    0    0    0 -0.00000000000E+00 -0.00000000000E+00 -0.45593999997E+02  0.45594000000E+02  0.51100000000E-03 0. -1.
    9900012    2    1    2    0    0  0.12660583547E+02  0.19262554571E+02  0.36773450118E+02  0.47787273993E+02  0.20000013444E+02 0.  0.
         12    1    1    2    0    0 -0.12660583547E+02 -0.19262554571E+02 -0.36773450118E+02  0.43400726007E+02  0.00000000000E+00 0. -1.
         11    1    3    3    0    0 -0.14603885441E+01  0.57460282193E+01  0.33989984956E+01  0.68339422027E+01  0.51100000000E-03 0. -1.
        -11    1    3    3    0    0  0.28744806205E+01  0.93326148653E-01 -0.40507870379E+00  0.29043824860E+01  0.51100000000E-03 0.  1.
        -12    1    3    3    0    0  0.11246491470E+02  0.13423200203E+02  0.33779530327E+02  0.38048949304E+02  0.00000000000E+00 0.  1.
</event>
