<event>
 7    1  0.2817603E-011  0.5052883E+02  0.7816164E-02  0.1300439E+00
        -11   -1    0    0    0    0  0.00000000000E+00  0.00000000000E+00  0.45593999997E+02  0.45594000000E+02  0.51100000000E-03 0.  1.
         11   -1    0    0    0    0 -0.00000000000E+00 -0.00000000000E+00 -0.45593999997E+02  0.45594000000E+02  0.51100000000E-03 0. -1.
    9900012    2    1    2    0    0  0.31405607182E+02 -0.23940989948E+02 -0.96791148610E+01  0.50528826045E+02  0.29999897247E+02 0.  0.
        -12    1    1    2    0    0 -0.31405607182E+02  0.23940989948E+02  0.96791148610E+01  0.40659173955E+02  0.00000000000E+00 0.  1.
         11    1    3    3    0    0 -0.22545433846E+01  0.96412790047E+00  0.18424235729E+01  0.30670887442E+01  0.51100000000E-03 0.  1.
        -11    1    3    3    0    0  0.13988264223E+02 -0.21030828875E+02 -0.10596182866E+02  0.27390625965E+02  0.51100000000E-03 0. -1.
         12    1    3    3    0    0  0.19671886343E+02 -0.38742889737E+01 -0.92535556813E+00  0.20071111337E+02  0.00000000000E+00 0. -1.
</event>
<event>
 7    1  0.2817603E-011  0.5052887E+02  0.7816164E-02  0.1300439E+00
        -11   -1    0    0    0    0  0.00000000000E+00  0.00000000000E+00  0.45593999997E+02  0.45594000000E+02  0.51100000000E-03 0.  1.
         11   -1    0    0    0    0 -0.00000000000E+00 -0.00000000000E+00 -0.45593999997E+02  0.45594000000E+02  0.51100000000E-03 0. -1.
    9900012    2    1    2    0    0  0.12316037701E+02 -0.38336726756E+02 -0.56370061212E+01  0.50528865221E+02  0.30000016325E+02 0.  0.
        -12    1    1    2    0    0 -0.12316037701E+02  0.38336726756E+02  0.56370061212E+01  0.40659134779E+02  0.00000000000E+00 0.  1.
         11    1    3    3    0    0  0.12128330864E+02 -0.64986436473E+01  0.34392384434E+01  0.14182987701E+02  0.51100000000E-03 0. -1.
        -11    1    3    3    0    0 -0.55680777998E+01 -0.55751264912E+01  0.26275716046E+00  0.78838168018E+01  0.51100000000E-03 0.  1.
         12    1    3    3    0    0  0.57557846362E+01 -0.26262956617E+02 -0.93390017251E+01  0.28462060718E+02  0.00000000000E+00 0. -1.
</event>
<event>
 7    1  0.2817603E-011  0.5052889E+02  0.7816164E-02  0.1300439E+00
        -11   -1    0    0    0    0  0.00000000000E+00  0.00000000000E+00  0.45593999997E+02  0.45594000000E+02  0.51100000000E-03 0.  1.
         11   -1    0    0    0    0 -0.00000000000E+00 -0.00000000000E+00 -0.45593999997E+02  0.45594000000E+02  0.51100000000E-03 0. -1.
    9900012    2    1    2    0    0 -0.10034907244E+02  0.39306450134E+02 -0.27325547033E+01  0.50528889819E+02  0.30000091093E+02 0.  0.
        -12    1    1    2    0    0  0.10034907244E+02 -0.39306450134E+02  0.27325547033E+01  0.40659110181E+02  0.00000000000E+00 0.  1.
         11    1    3    3    0    0 -0.67437323189E+01  0.51980002570E+01  0.12940330959E+01  0.86122966841E+01  0.51100000000E-03 0. -1.
        -11    1    3    3    0    0  0.68616239510E-01 -0.36896142346E+01  0.40143367834E+00  0.37120224471E+01  0.51100000000E-03 0.  1.
         12    1    3    3    0    0 -0.33597911650E+01  0.37798064111E+02 -0.44280214776E+01  0.38204570688E+02  0.00000000000E+00 0. -1.
</event>
<event>
 7    1  0.2817603E-011  0.5052886E+02  0.7816164E-02  0.1300439E+00
        -11   -1    0    0    0    0  0.00000000000E+00  0.00000000000E+00  0.45593999997E+02  0.45594000000E+02  0.51100000000E-03 0. -1.
         11   -1    0    0    0    0 -0.00000000000E+00 -0.00000000000E+00 -0.45593999997E+02  0.45594000000E+02  0.51100000000E-03 0.  1.
    9900012    2    1    2    0    0  0.11974926371E+02  0.14529383052E+02  0.36036975397E+02  0.50528862906E+02  0.30000009288E+02 0.  0.
        -12    1    1    2    0    0 -0.11974926371E+02 -0.14529383052E+02 -0.36036975397E+02  0.40659137094E+02  0.00000000000E+00 0.  1.
         11    1    3    3    0    0  0.11431951279E+02  0.88814351725E+01  0.12368232373E+02  0.19040550755E+02  0.51100000000E-03 0. -1.
        -11    1    3    3    0    0  0.87356129561E+01  0.80746708815E+01  0.16462617715E+02  0.20310810566E+02  0.51100000000E-03 0.  1.
        -12    1    3    3    0    0 -0.81926378638E+01 -0.24267230020E+01  0.72061253087E+01  0.11177501584E+02  0.00000000000E+00 0.  1.
</event>
<event>
 7    1  0.2817603E-011  0.5052886E+02  0.7816164E-02  0.1300439E+00
        -11   -1    0    0    0    0  0.00000000000E+00  0.00000000000E+00  0.45593999997E+02  0.45594000000E+02  0.51100000000E-03 0.  1.
         11   -1    0    0    0    0 -0.00000000000E+00 -0.00000000000E+00 -0.45593999997E+02  0.45594000000E+02  0.51100000000E-03 0. -1.
    9900012    2    1    2    0    0 -0.15426997420E+02  0.10785027533E+02 -0.36039648089E+02  0.50528864463E+02  0.30000014021E+02 0.  0.
        -12    1    1    2    0    0  0.15426997420E+02 -0.10785027533E+02  0.36039648089E+02  0.40659135537E+02  0.00000000000E+00 0.  1.
         11    1    3    3    0    0 -0.81168140492E+00  0.21298998882E+01  0.23748526045E+01  0.32916903547E+01  0.51100000000E-03 0. -1.
        -11    1    3    3    0    0 -0.20788021559E+01  0.38706922307E+01  0.18712356070E+01  0.47754790028E+01  0.51100000000E-03 0.  1.
         12    1    3    3    0    0 -0.12536513859E+02  0.47844354137E+01 -0.40285736300E+02  0.42461695105E+02  0.00000000000E+00 0. -1.
</event>
<event>
 7    1  0.2817603E-011  0.5052884E+02  0.7816164E-02  0.1300439E+00
        -11   -1    0    0    0    0  0.00000000000E+00  0.00000000000E+00  0.45593999997E+02  0.45594000000E+02  0.51100000000E-03 0.  1.
         11   -1    0    0    0    0 -0.00000000000E+00 -0.00000000000E+00 -0.45593999997E+02  0.45594000000E+02  0.51100000000E-03 0. -1.
    9900012    2    1    2    0    0 -0.20538013626E+02 -0.68585592204E+01 -0.34413908630E+02  0.50528844260E+02  0.29999952612E+02 0.  0.
        -12    1    1    2    0    0  0.20538013626E+02  0.68585592204E+01  0.34413908630E+02  0.40659155740E+02  0.00000000000E+00 0.  1.
         11    1    3    3    0    0 -0.56334149739E+01 -0.99662607871E+01 -0.16503815602E+02  0.20085757343E+02  0.51100000000E-03 0.  1.
        -11    1    3    3    0    0 -0.98607996932E+01  0.67912783657E+01 -0.20452788554E+02  0.23699649625E+02  0.51100000000E-03 0. -1.
        -12    1    3    3    0    0 -0.50437989592E+01 -0.36835767990E+01  0.25426955260E+01  0.67434372921E+01  0.00000000000E+00 0.  1.
</event>
<event>
 7    1  0.2817603E-011  0.5052884E+02  0.7816164E-02  0.1300439E+00
        -11   -1    0    0    0    0  0.00000000000E+00  0.00000000000E+00  0.45593999997E+02  0.45594000000E+02  0.51100000000E-03 0. -1.
         11   -1    0    0    0    0 -0.00000000000E+00 -0.00000000000E+00 -0.45593999997E+02  0.45594000000E+02  0.51100000000E-03 0.  1.
    9900012    2    1    2    0    0 -0.15948833995E+02  0.36616944064E+02 -0.76158548523E+01  0.50528841825E+02  0.29999945211E+02 0.  0.
        -12    1    1    2    0    0  0.15948833995E+02 -0.36616944064E+02  0.76158548523E+01  0.40659158175E+02  0.00000000000E+00 0.  1.
         11    1    3    3    0    0  0.51003130149E+01  0.69584284327E+01 -0.72546265624E+01  0.11272201468E+02  0.51100000000E-03 0. -1.
        -11    1    3    3    0    0 -0.39119476348E+01  0.75424919176E+01 -0.63956302175E+01  0.10634688748E+02  0.51100000000E-03 0.  1.
         12    1    3    3    0    0 -0.17137199375E+02  0.22116023714E+02  0.60344019276E+01  0.28621951609E+02  0.00000000000E+00 0. -1.
</event>
<event>
 7    1  0.2817603E-011  0.5052883E+02  0.7816164E-02  0.1300439E+00
        -11   -1    0    0    0    0  0.00000000000E+00  0.00000000000E+00  0.45593999997E+02  0.45594000000E+02  0.51100000000E-03 0.  1.
         11   -1    0    0    0    0 -0.00000000000E+00 -0.00000000000E+00 -0.45593999997E+02  0.45594000000E+02  0.51100000000E-03 0. -1.
    9900012    2    1    2    0    0 -0.38457398867E+01  0.74813584470E+01 -0.39779487556E+02  0.50528830435E+02  0.29999910590E+02 0.  0.
        -12    1    1    2    0    0  0.38457398867E+01 -0.74813584470E+01  0.39779487556E+02  0.40659169565E+02  0.00000000000E+00 0.  1.
         11    1    3    3    0    0 -0.12946338859E+02 -0.16106474360E+01 -0.13090225773E+02  0.18481230643E+02  0.51100000000E-03 0. -1.
        -11    1    3    3    0    0  0.48440207280E+00 -0.14711099288E+01  0.50420051897E+00  0.16288119030E+01  0.51100000000E-03 0.  1.
        -12    1    3    3    0    0  0.86161968999E+01  0.10563115812E+02 -0.27193462302E+02  0.30418787889E+02  0.00000000000E+00 0.  1.
</event>
<event>
 7    1  0.2817603E-011  0.5052885E+02  0.7816164E-02  0.1300439E+00
        -11   -1    0    0    0    0  0.00000000000E+00  0.00000000000E+00  0.45593999997E+02  0.45594000000E+02  0.51100000000E-03 0.  1.
         11   -1    0    0    0    0 -0.00000000000E+00 -0.00000000000E+00 -0.45593999997E+02  0.45594000000E+02  0.51100000000E-03 0. -1.
    9900012    2    1    2    0    0 -0.26364070942E+02  0.10320092351E+02 -0.29182147769E+02  0.50528852306E+02  0.29999977069E+02 0.  0.
        -12    1    1    2    0    0  0.26364070942E+02 -0.10320092351E+02  0.29182147769E+02  0.40659147694E+02  0.00000000000E+00 0.  1.
         11    1    3    3    0    0 -0.18716867880E+02  0.80774919930E+01 -0.27283399523E+02  0.34058052058E+02  0.51100000000E-03 0. -1.
        -11    1    3    3    0    0 -0.36884839930E+01 -0.27249410546E+01 -0.69695906802E+01  0.83429858221E+01  0.51100000000E-03 0.  1.
         12    1    3    3    0    0 -0.39587190687E+01  0.49675414131E+01  0.50708424342E+01  0.81278144263E+01  0.00000000000E+00 0. -1.
</event>
<event>
 7    1  0.2817603E-011  0.5052886E+02  0.7816164E-02  0.1300439E+00
        -11   -1    0    0    0    0  0.00000000000E+00  0.00000000000E+00  0.45593999997E+02  0.45594000000E+02  0.51100000000E-03 0.  1.
         11   -1    0    0    0    0 -0.00000000000E+00 -0.00000000000E+00 -0.45593999997E+02  0.45594000000E+02  0.51100000000E-03 0. -1.
    9900012    2    1    2    0    0  0.11558405081E+02  0.42240132897E+01 -0.38752121766E+02  0.50528856408E+02  0.29999989537E+02 0.  0.
        -12    1    1    2    0    0 -0.11558405081E+02 -0.42240132897E+01  0.38752121766E+02  0.40659143592E+02  0.00000000000E+00 0.  1.
         11    1    3    3    0    0  0.25991485303E+01 -0.65206397162E+01 -0.61650488785E+01  0.93424912806E+01  0.51100000000E-03 0. -1.
        -11    1    3    3    0    0  0.20376376926E+00 -0.60807018801E+01 -0.61677811894E+01  0.86636008732E+01  0.51100000000E-03 0.  1.
         12    1    3    3    0    0  0.87554927814E+01  0.16825354886E+02 -0.26419291698E+02  0.32522764254E+02  0.00000000000E+00 0. -1.
</event>
<event>
 7    1  0.2817603E-011  0.5052886E+02  0.7816164E-02  0.1300439E+00
        -11   -1    0    0    0    0  0.00000000000E+00  0.00000000000E+00  0.45593999997E+02  0.45594000000E+02  0.51100000000E-03 0.  1.
         11   -1    0    0    0    0 -0.00000000000E+00 -0.00000000000E+00 -0.45593999997E+02  0.45594000000E+02  0.51100000000E-03 0. -1.
    9900012    2    1    2    0    0 -0.21790009177E+02  0.12751837421E+02 -0.31870860765E+02  0.50528860517E+02  0.30000002029E+02 0.  0.
        -12    1    1    2    0    0  0.21790009177E+02 -0.12751837421E+02  0.31870860765E+02  0.40659139483E+02  0.00000000000E+00 0.  1.
         11    1    3    3    0    0 -0.12247250800E+02  0.28737763639E-01 -0.93614376040E+01  0.15415333026E+02  0.51100000000E-03 0. -1.
        -11    1    3    3    0    0 -0.98789208408E+01 -0.25731833350E+01 -0.36797298808E+01  0.10851486613E+02  0.51100000000E-03 0.  1.
         12    1    3    3    0    0  0.33616246344E+00  0.15296282992E+02 -0.18829693280E+02  0.24262040879E+02  0.00000000000E+00 0. -1.
</event>
<event>
 7    1  0.2817603E-011  0.5052886E+02  0.7816164E-02  0.1300439E+00
        -11   -1    0    0    0    0  0.00000000000E+00  0.00000000000E+00  0.45593999997E+02  0.45594000000E+02  0.51100000000E-03 0.  1.
         11   -1    0    0    0    0 -0.00000000000E+00 -0.00000000000E+00 -0.45593999997E+02  0.45594000000E+02  0.51100000000E-03 0. -1.
    9900012    2    1    2    0    0  0.37333943921E+02  0.16093770866E+02 -0.57705096976E+00  0.50528858135E+02  0.29999994787E+02 0.  0.
        -12    1    1    2    0    0 -0.37333943921E+02 -0.16093770866E+02  0.57705096976E+00  0.40659141865E+02  0.00000000000E+00 0.  1.
         11    1    3    3    0    0  0.58231209143E+01 -0.18666642991E+01 -0.54924223745E+01  0.82194815280E+01  0.51100000000E-03 0. -1.
        -11    1    3    3    0    0  0.79065811196E+01 -0.43294600976E+01  0.39172187793E+01  0.98286750360E+01  0.51100000000E-03 0.  1.
         12    1    3    3    0    0  0.23604241887E+02  0.22289895262E+02  0.99815262541E+00  0.32480701571E+02  0.00000000000E+00 0. -1.
</event>
<event>
 7    1  0.2817603E-011  0.5052887E+02  0.7816164E-02  0.1300439E+00
        -11   -1    0    0    0    0  0.00000000000E+00  0.00000000000E+00  0.45593999997E+02  0.45594000000E+02  0.51100000000E-03 0.  1.
         11   -1    0    0    0    0 -0.00000000000E+00 -0.00000000000E+00 -0.45593999997E+02  0.45594000000E+02  0.51100000000E-03 0. -1.
    9900012    2    1    2    0    0 -0.21543299333E+02  0.19586701447E+02 -0.28379780279E+02  0.50528873738E+02  0.30000042214E+02 0.  0.
        -12    1    1    2    0    0  0.21543299333E+02 -0.19586701447E+02  0.28379780279E+02  0.40659126262E+02  0.00000000000E+00 0.  1.
         11    1    3    3    0    0 -0.16781678032E+01  0.15621812970E+01 -0.62904253673E+01  0.66952303278E+01  0.51100000000E-03 0. -1.
        -11    1    3    3    0    0  0.54886634223E+01 -0.24161339788E+00  0.12232922073E+00  0.54953405624E+01  0.51100000000E-03 0.  1.
        -12    1    3    3    0    0 -0.25353794952E+02  0.18266133548E+02 -0.22211684132E+02  0.38338302848E+02  0.00000000000E+00 0.  1.
</event>
<event>
 7    1  0.2817603E-011  0.5052889E+02  0.7816164E-02  0.1300439E+00
        -11   -1    0    0    0    0  0.00000000000E+00  0.00000000000E+00  0.45593999997E+02  0.45594000000E+02  0.51100000000E-03 0.  1.
         11   -1    0    0    0    0 -0.00000000000E+00 -0.00000000000E+00 -0.45593999997E+02  0.45594000000E+02  0.51100000000E-03 0. -1.
    9900012    2    1    2    0    0  0.10523253009E+02 -0.47450104540E+01 -0.38986017909E+02  0.50528885763E+02  0.30000078766E+02 0.  0.
        -12    1    1    2    0    0 -0.10523253009E+02  0.47450104540E+01  0.38986017909E+02  0.40659114237E+02  0.00000000000E+00 0.  1.
         11    1    3    3    0    0 -0.63257301079E+01 -0.23984809426E+01 -0.15432759478E+02  0.16850449181E+02  0.51100000000E-03 0.  1.
        -11    1    3    3    0    0  0.25553680483E+01  0.32061592116E+00 -0.17889571543E+02  0.18073999852E+02  0.51100000000E-03 0. -1.
        -12    1    3    3    0    0  0.14293615069E+02 -0.26671454326E+01 -0.56636868889E+01  0.15604436730E+02  0.00000000000E+00 0.  1.
</event>
<event>
 7    1  0.2817603E-011  0.5052886E+02  0.7816164E-02  0.1300439E+00
        -11   -1    0    0    0    0  0.00000000000E+00  0.00000000000E+00  0.45593999997E+02  0.45594000000E+02  0.51100000000E-03 0. -1.
         11   -1    0    0    0    0 -0.00000000000E+00 -0.00000000000E+00 -0.45593999997E+02  0.45594000000E+02  0.51100000000E-03 0.  1.
    9900012    2    1    2    0    0 -0.29233780186E+01  0.16038411714E+02  0.37247667284E+02  0.50528861944E+02  0.30000006366E+02 0.  0.
        -12    1    1    2    0    0  0.29233780186E+01 -0.16038411714E+02 -0.37247667284E+02  0.40659138056E+02  0.00000000000E+00 0.  1.
         11    1    3    3    0    0  0.61405012591E+01  0.16080291321E+02  0.14552909183E+02  0.22540379115E+02  0.51100000000E-03 0. -1.
        -11    1    3    3    0    0 -0.65507659254E+01  0.48911687105E+01  0.53222032349E+01  0.97550967755E+01  0.51100000000E-03 0.  1.
        -12    1    3    3    0    0 -0.25131133523E+01 -0.49330483177E+01  0.17372554866E+02  0.18233386054E+02  0.00000000000E+00 0.  1.
</event>
<event>
 7    1  0.2817603E-011  0.5052886E+02  0.7816164E-02  0.1300439E+00
        -11   -1    0    0    0    0  0.00000000000E+00  0.00000000000E+00  0.45593999997E+02  0.45594000000E+02  0.51100000000E-03 0. -1.
         11   -1    0    0    0    0 -0.00000000000E+00 -0.00000000000E+00 -0.45593999997E+02  0.45594000000E+02  0.51100000000E-03 0.  1.
    9900012    2    1    2    0    0 -0.71009368365E+00 -0.37865397447E+02  0.14794368365E+02  0.50528857213E+02  0.29999991985E+02 0.  0.
        -12    1    1    2    0    0  0.71009368365E+00  0.37865397447E+02 -0.14794368365E+02  0.40659142787E+02  0.00000000000E+00 0.  1.
         11    1    3    3    0    0 -0.13812267158E+01 -0.11955443946E+02  0.44223264959E+01  0.12821754914E+02  0.51100000000E-03 0. -1.
        -11    1    3    3    0    0 -0.24996891248E+01 -0.30398591970E+02  0.71194306082E+01  0.31321065306E+02  0.51100000000E-03 0.  1.
        -12    1    3    3    0    0  0.31708221569E+01  0.44886384691E+01  0.32526112608E+01  0.63860369926E+01  0.00000000000E+00 0.  1.
</event>
<event>
 7    1  0.2817603E-011  0.5052893E+02  0.7816164E-02  0.1300439E+00
        -11   -1    0    0    0    0  0.00000000000E+00  0.00000000000E+00  0.45593999997E+02  0.45594000000E+02  0.51100000000E-03 0. -1.
         11   -1    0    0    0    0 -0.00000000000E+00 -0.00000000000E+00 -0.45593999997E+02  0.45594000000E+02  0.51100000000E-03 0.  1.
    9900012    2    1    2    0    0  0.14710781164E+02  0.11980840777E+00  0.37904331606E+02  0.50528932241E+02  0.30000220039E+02 0.  0.
        -12    1    1    2    0    0 -0.14710781164E+02 -0.11980840777E+00 -0.37904331606E+02  0.40659067759E+02  0.00000000000E+00 0.  1.
         11    1    3    3    0    0  0.25817176728E+01 -0.25023257702E+01  0.31830961071E+00  0.36094627954E+01  0.51100000000E-03 0. -1.
        -11    1    3    3    0    0 -0.43939092738E+01 -0.31707582035E+01 -0.40453615680E-01  0.54186514049E+01  0.51100000000E-03 0.  1.
         12    1    3    3    0    0  0.16522972765E+02  0.57928923814E+01  0.37626475611E+02  0.41500818041E+02  0.00000000000E+00 0. -1.
</event>
<event>
 7    1  0.2817603E-011  0.5052886E+02  0.7816164E-02  0.1300439E+00
        -11   -1    0    0    0    0  0.00000000000E+00  0.00000000000E+00  0.45593999997E+02  0.45594000000E+02  0.51100000000E-03 0. -1.
         11   -1    0    0    0    0 -0.00000000000E+00 -0.00000000000E+00 -0.45593999997E+02  0.45594000000E+02  0.51100000000E-03 0.  1.
    9900012    2    1    2    0    0 -0.31874150411E+02  0.22685861421E+02  0.11070498581E+02  0.50528859433E+02  0.29999998733E+02 0.  0.
        -12    1    1    2    0    0  0.31874150411E+02 -0.22685861421E+02 -0.11070498581E+02  0.40659140567E+02  0.00000000000E+00 0.  1.
         11    1    3    3    0    0 -0.17880922708E+02  0.66763268424E+01  0.47559080826E+01  0.19670266875E+02  0.51100000000E-03 0. -1.
        -11    1    3    3    0    0 -0.46491113452E+01 -0.21416560296E+01  0.89134986636E+01  0.10278685983E+02  0.51100000000E-03 0.  1.
        -12    1    3    3    0    0 -0.93441163579E+01  0.18151190608E+02 -0.25989081657E+01  0.20579906575E+02  0.00000000000E+00 0.  1.
</event>
<event>
 7    1  0.2817603E-011  0.5052886E+02  0.7816164E-02  0.1300439E+00
        -11   -1    0    0    0    0  0.00000000000E+00  0.00000000000E+00  0.45593999997E+02  0.45594000000E+02  0.51100000000E-03 0. -1.
         11   -1    0    0    0    0 -0.00000000000E+00 -0.00000000000E+00 -0.45593999997E+02  0.45594000000E+02  0.51100000000E-03 0.  1.
    9900012    2    1    2    0    0 -0.37698815364E+02  0.12287680340E+02  0.89987554870E+01  0.50528863655E+02  0.30000011567E+02 0.  0.
        -12    1    1    2    0    0  0.37698815364E+02 -0.12287680340E+02 -0.89987554870E+01  0.40659136345E+02  0.00000000000E+00 0.  1.
         11    1    3    3    0    0 -0.82168616215E+01 -0.34978258070E+01 -0.23721871686E+01  0.92400688584E+01  0.51100000000E-03 0. -1.
        -11    1    3    3    0    0 -0.17780207225E+02  0.12799641788E+02 -0.34418817990E+01  0.22176860676E+02  0.51100000000E-03 0.  1.
         12    1    3    3    0    0 -0.11701746517E+02  0.29858643596E+01  0.14812824455E+02  0.19111934121E+02  0.00000000000E+00 0. -1.
</event>
<event>
 7    1  0.2817603E-011  0.5052885E+02  0.7816164E-02  0.1300439E+00
        -11   -1    0    0    0    0  0.00000000000E+00  0.00000000000E+00  0.45593999997E+02  0.45594000000E+02  0.51100000000E-03 0.  1.
         11   -1    0    0    0    0 -0.00000000000E+00 -0.00000000000E+00 -0.45593999997E+02  0.45594000000E+02  0.51100000000E-03 0. -1.
    9900012    2    1    2    0    0  0.25668819349E+02 -0.29735912760E+02 -0.10490651822E+02  0.50528848877E+02  0.29999966645E+02 0.  0.
        -12    1    1    2    0    0 -0.25668819349E+02  0.29735912760E+02  0.10490651822E+02  0.40659151123E+02  0.00000000000E+00 0.  1.
         11    1    3    3    0    0  0.94448784813E+01 -0.36232273977E+01 -0.45129442907E+01  0.11077011002E+02  0.51100000000E-03 0. -1.
        -11    1    3    3    0    0  0.24471778987E+01  0.45377972213E+01  0.66167595029E+00  0.51978936709E+01  0.51100000000E-03 0.  1.
         12    1    3    3    0    0  0.13776762969E+02 -0.30650482584E+02 -0.66393834813E+01  0.34253944204E+02  0.00000000000E+00 0. -1.
</event>
<event>
 7    1  0.2817603E-011  0.5052886E+02  0.7816164E-02  0.1300439E+00
        -11   -1    0    0    0    0  0.00000000000E+00  0.00000000000E+00  0.45593999997E+02  0.45594000000E+02  0.51100000000E-03 0.  1.
         11   -1    0    0    0    0 -0.00000000000E+00 -0.00000000000E+00 -0.45593999997E+02  0.45594000000E+02  0.51100000000E-03 0. -1.
    9900012    2    1    2    0    0  0.11463591070E+02 -0.13045647280E+02 -0.36763608594E+02  0.50528858961E+02  0.29999997299E+02 0.  0.
        -12    1    1    2    0    0 -0.11463591070E+02  0.13045647280E+02  0.36763608594E+02  0.40659141039E+02  0.00000000000E+00 0.  1.
         11    1    3    3    0    0  0.49253369277E+01 -0.12875120917E+02 -0.14763983025E+02  0.20199081105E+02  0.51100000000E-03 0. -1.
        -11    1    3    3    0    0  0.12271339274E+02  0.34591789992E+01 -0.19068722239E+02  0.22938349004E+02  0.51100000000E-03 0.  1.
        -12    1    3    3    0    0 -0.57330851321E+01 -0.36297053615E+01 -0.29309033305E+01  0.73914288521E+01  0.00000000000E+00 0.  1.
</event>
<event>
 7    1  0.2817603E-011  0.5052886E+02  0.7816164E-02  0.1300439E+00
        -11   -1    0    0    0    0  0.00000000000E+00  0.00000000000E+00  0.45593999997E+02  0.45594000000E+02  0.51100000000E-03 0.  1.
         11   -1    0    0    0    0 -0.00000000000E+00 -0.00000000000E+00 -0.45593999997E+02  0.45594000000E+02  0.51100000000E-03 0. -1.
    9900012    2    1    2    0    0 -0.27702274789E+02  0.59617035039E+01 -0.29158327351E+02  0.50528855997E+02  0.29999988287E+02 0.  0.
        -12    1    1    2    0    0  0.27702274789E+02 -0.59617035039E+01  0.29158327351E+02  0.40659144003E+02  0.00000000000E+00 0.  1.
         11    1    3    3    0    0 -0.18485877534E+02  0.49318016051E+00 -0.17876863370E+02  0.25720675323E+02  0.51100000000E-03 0. -1.
        -11    1    3    3    0    0 -0.91259761269E+01  0.12266067413E+02 -0.81151103404E+01  0.17308808917E+02  0.51100000000E-03 0.  1.
        -12    1    3    3    0    0 -0.90421128687E-01 -0.67975440694E+01 -0.31663536403E+01  0.74993717558E+01  0.00000000000E+00 0.  1.
</event>
<event>
 7    1  0.2817603E-011  0.5052885E+02  0.7816164E-02  0.1300439E+00
        -11   -1    0    0    0    0  0.00000000000E+00  0.00000000000E+00  0.45593999997E+02  0.45594000000E+02  0.51100000000E-03 0.  1.
         11   -1    0    0    0    0 -0.00000000000E+00 -0.00000000000E+00 -0.45593999997E+02  0.45594000000E+02  0.51100000000E-03 0. -1.
    9900012    2    1    2    0    0  0.54556580587E+01 -0.40249089831E+02  0.18474809851E+01  0.50528848225E+02  0.29999964666E+02 0.  0.
        -12    1    1    2    0    0 -0.54556580587E+01  0.40249089831E+02 -0.18474809851E+01  0.40659151775E+02  0.00000000000E+00 0.  1.
         11    1    3    3    0    0 -0.57415534216E+00 -0.17824748845E+02  0.29662856842E+01  0.18078998224E+02  0.51100000000E-03 0. -1.
        -11    1    3    3    0    0 -0.27510785503E+01 -0.11081864049E+02  0.92957007989E+01  0.14723661148E+02  0.51100000000E-03 0.  1.
         12    1    3    3    0    0  0.87808919512E+01 -0.11342476936E+02 -0.10414505498E+02  0.17726188853E+02  0.00000000000E+00 0. -1.
</event>
<event>
 7    1  0.2817603E-011  0.5052885E+02  0.7816164E-02  0.1300439E+00
        -11   -1    0    0    0    0  0.00000000000E+00  0.00000000000E+00  0.45593999997E+02  0.45594000000E+02  0.51100000000E-03 0. -1.
         11   -1    0    0    0    0 -0.00000000000E+00 -0.00000000000E+00 -0.45593999997E+02  0.45594000000E+02  0.51100000000E-03 0.  1.
    9900012    2    1    2    0    0  0.97131120280E+01 -0.86291927623E+01  0.38527384254E+02  0.50528845429E+02  0.29999956165E+02 0.  0.
        -12    1    1    2    0    0 -0.97131120280E+01  0.86291927623E+01 -0.38527384254E+02  0.40659154571E+02  0.00000000000E+00 0.  1.
         11    1    3    3    0    0  0.13257666205E+00  0.37661329052E+01  0.43937682399E+01  0.57884828097E+01  0.51100000000E-03 0.  1.
        -11    1    3    3    0    0  0.60995926418E+01  0.62657290392E+01  0.53197855990E+01  0.10235453574E+02  0.51100000000E-03 0. -1.
        -12    1    3    3    0    0  0.34809427241E+01 -0.18661054707E+02  0.28813830415E+02  0.34504909045E+02  0.00000000000E+00 0.  1.
</event>
<event>
 7    1  0.2817603E-011  0.5052886E+02  0.7816164E-02  0.1300439E+00
        -11   -1    0    0    0    0  0.00000000000E+00  0.00000000000E+00  0.45593999997E+02  0.45594000000E+02  0.51100000000E-03 0.  1.
         11   -1    0    0    0    0 -0.00000000000E+00 -0.00000000000E+00 -0.45593999997E+02  0.45594000000E+02  0.51100000000E-03 0. -1.
    9900012    2    1    2    0    0 -0.15203575297E+01  0.26007888903E+00 -0.40629871239E+02  0.50528861237E+02  0.30000004215E+02 0.  0.
        -12    1    1    2    0    0  0.15203575297E+01 -0.26007888903E+00  0.40629871239E+02  0.40659138763E+02  0.00000000000E+00 0.  1.
         11    1    3    3    0    0  0.18807035901E+00  0.30427661911E+01 -0.37808611098E+01  0.48568207241E+01  0.51100000000E-03 0. -1.
        -11    1    3    3    0    0  0.26555923426E+01  0.96124366796E+01 -0.48695263551E+01  0.11097900558E+02  0.51100000000E-03 0.  1.
         12    1    3    3    0    0 -0.43640202313E+01 -0.12395123982E+02 -0.31979483775E+02  0.34574139954E+02  0.00000000000E+00 0. -1.
</event>
<event>
 7    1  0.2817603E-011  0.5052886E+02  0.7816164E-02  0.1300439E+00
        -11   -1    0    0    0    0  0.00000000000E+00  0.00000000000E+00  0.45593999997E+02  0.45594000000E+02  0.51100000000E-03 0.  1.
         11   -1    0    0    0    0 -0.00000000000E+00 -0.00000000000E+00 -0.45593999997E+02  0.45594000000E+02  0.51100000000E-03 0. -1.
    9900012    2    1    2    0    0  0.26342772197E+02  0.12366034252E+02 -0.28395511832E+02  0.50528861515E+02  0.30000005061E+02 0.  0.
        -12    1    1    2    0    0 -0.26342772197E+02 -0.12366034252E+02  0.28395511832E+02  0.40659138485E+02  0.00000000000E+00 0.  1.
         11    1    3    3    0    0  0.20795583005E+01 -0.63587659026E+01 -0.14580064171E+02  0.16041718675E+02  0.51100000000E-03 0. -1.
        -11    1    3    3    0    0  0.39427831619E+00 -0.40582230525E+00  0.46144438155E+00  0.73012212159E+00  0.51100000000E-03 0.  1.
         12    1    3    3    0    0  0.23868935580E+02  0.19130622460E+02 -0.14276892043E+02  0.33757020719E+02  0.00000000000E+00 0. -1.
</event>
<event>
 7    1  0.2817603E-011  0.5052885E+02  0.7816164E-02  0.1300439E+00
        -11   -1    0    0    0    0  0.00000000000E+00  0.00000000000E+00  0.45593999997E+02  0.45594000000E+02  0.51100000000E-03 0.  1.
         11   -1    0    0    0    0 -0.00000000000E+00 -0.00000000000E+00 -0.45593999997E+02  0.45594000000E+02  0.51100000000E-03 0. -1.
    9900012    2    1    2    0    0 -0.39218855091E+02  0.10598512121E+02  0.16489727762E+01  0.50528853858E+02  0.29999981786E+02 0.  0.
        -12    1    1    2    0    0  0.39218855091E+02 -0.10598512121E+02 -0.16489727762E+01  0.40659146142E+02  0.00000000000E+00 0.  1.
         11    1    3    3    0    0 -0.15822889800E+01  0.10660141529E+01 -0.48623305338E+01  0.52232444966E+01  0.51100000000E-03 0. -1.
        -11    1    3    3    0    0 -0.59405966334E+01  0.10336126378E+02  0.65435846351E+01  0.13599437378E+02  0.51100000000E-03 0.  1.
        -12    1    3    3    0    0 -0.31695969477E+02 -0.80362841045E+00 -0.32281325103E-01  0.31706171983E+02  0.00000000000E+00 0.  1.
</event>
<event>
 7    1  0.2817603E-011  0.5052885E+02  0.7816164E-02  0.1300439E+00
        -11   -1    0    0    0    0  0.00000000000E+00  0.00000000000E+00  0.45593999997E+02  0.45594000000E+02  0.51100000000E-03 0. -1.
         11   -1    0    0    0    0 -0.00000000000E+00 -0.00000000000E+00 -0.45593999997E+02  0.45594000000E+02  0.51100000000E-03 0.  1.
    9900012    2    1    2    0    0  0.40466000399E+02  0.36203200817E+01  0.16006884541E+01  0.50528854543E+02  0.29999983868E+02 0.  0.
        -12    1    1    2    0    0 -0.40466000399E+02 -0.36203200817E+01 -0.16006884541E+01  0.40659145457E+02  0.00000000000E+00 0.  1.
         11    1    3    3    0    0  0.11431441708E+02  0.34563491440E+01  0.44920165916E+01  0.12759405247E+02  0.51100000000E-03 0. -1.
        -11    1    3    3    0    0  0.23851008174E+02  0.67489786339E+01 -0.10050359551E+02  0.26747505134E+02  0.51100000000E-03 0.  1.
         12    1    3    3    0    0  0.51835505164E+01 -0.65850076962E+01  0.71590314138E+01  0.11021944162E+02  0.00000000000E+00 0. -1.
</event>
<event>
 7    1  0.2817603E-011  0.5052886E+02  0.7816164E-02  0.1300439E+00
        -11   -1    0    0    0    0  0.00000000000E+00  0.00000000000E+00  0.45593999997E+02  0.45594000000E+02  0.51100000000E-03 0.  1.
         11   -1    0    0    0    0 -0.00000000000E+00 -0.00000000000E+00 -0.45593999997E+02  0.45594000000E+02  0.51100000000E-03 0. -1.
    9900012    2    1    2    0    0  0.23994751668E+02  0.11423609007E+02 -0.30772049261E+02  0.50528856304E+02  0.29999989222E+02 0.  0.
        -12    1    1    2    0    0 -0.23994751668E+02 -0.11423609007E+02  0.30772049261E+02  0.40659143696E+02  0.00000000000E+00 0.  1.
         11    1    3    3    0    0  0.18139065631E+01  0.75657690717E+01 -0.22119674532E+01  0.80885053589E+01  0.51100000000E-03 0. -1.
        -11    1    3    3    0    0  0.22157837544E+02  0.85557892985E+01 -0.15006567457E+02  0.28095700067E+02  0.51100000000E-03 0.  1.
         12    1    3    3    0    0  0.23007561117E-01 -0.46979493633E+01 -0.13553514351E+02  0.14344650879E+02  0.00000000000E+00 0. -1.
</event>
<event>
 7    1  0.2817603E-011  0.5052886E+02  0.7816164E-02  0.1300439E+00
        -11   -1    0    0    0    0  0.00000000000E+00  0.00000000000E+00  0.45593999997E+02  0.45594000000E+02  0.51100000000E-03 0. -1.
         11   -1    0    0    0    0 -0.00000000000E+00 -0.00000000000E+00 -0.45593999997E+02  0.45594000000E+02  0.51100000000E-03 0.  1.
    9900012    2    1    2    0    0 -0.13746511648E+02  0.25502698578E+02  0.28527383183E+02  0.50528858241E+02  0.29999995110E+02 0.  0.
        -12    1    1    2    0    0  0.13746511648E+02 -0.25502698578E+02 -0.28527383183E+02  0.40659141759E+02  0.00000000000E+00 0.  1.
         11    1    3    3    0    0 -0.10830080703E+02  0.13385885941E+02  0.13545587065E+02  0.21907887156E+02  0.51100000000E-03 0. -1.
        -11    1    3    3    0    0 -0.43583685663E+01  0.10625292210E+02  0.20071437539E+02  0.23124766296E+02  0.51100000000E-03 0.  1.
         12    1    3    3    0    0  0.14419376212E+01  0.14915204272E+01 -0.50896414208E+01  0.54962047888E+01  0.00000000000E+00 0. -1.
</event>
<event>
 7    1  0.2817603E-011  0.5052888E+02  0.7816164E-02  0.1300439E+00
        -11   -1    0    0    0    0  0.00000000000E+00  0.00000000000E+00  0.45593999997E+02  0.45594000000E+02  0.51100000000E-03 0.  1.
         11   -1    0    0    0    0 -0.00000000000E+00 -0.00000000000E+00 -0.45593999997E+02  0.45594000000E+02  0.51100000000E-03 0. -1.
    9900012    2    1    2    0    0 -0.22146913270E+02  0.14656416717E+02 -0.30787464668E+02  0.50528876804E+02  0.30000051534E+02 0.  0.
        -12    1    1    2    0    0  0.22146913270E+02 -0.14656416717E+02  0.30787464668E+02  0.40659123196E+02  0.00000000000E+00 0.  1.
         11    1    3    3    0    0 -0.35498468788E+01  0.29936302826E+01  0.79326917617E+00  0.47108928431E+01  0.51100000000E-03 0. -1.
        -11    1    3    3    0    0 -0.17905425627E+02 -0.18235346730E+01 -0.10661823202E+02  0.20918987065E+02  0.51100000000E-03 0.  1.
         12    1    3    3    0    0 -0.69164076422E+00  0.13486321108E+02 -0.20918910643E+02  0.24898996896E+02  0.00000000000E+00 0. -1.
</event>
<event>
 7    1  0.2817603E-011  0.5052886E+02  0.7816164E-02  0.1300439E+00
        -11   -1    0    0    0    0  0.00000000000E+00  0.00000000000E+00  0.45593999997E+02  0.45594000000E+02  0.51100000000E-03 0. -1.
         11   -1    0    0    0    0 -0.00000000000E+00 -0.00000000000E+00 -0.45593999997E+02  0.45594000000E+02  0.51100000000E-03 0.  1.
    9900012    2    1    2    0    0  0.90410765646E+01 -0.26654907118E+02  0.29341782201E+02  0.50528864229E+02  0.30000013311E+02 0.  0.
        -12    1    1    2    0    0 -0.90410765646E+01  0.26654907118E+02 -0.29341782201E+02  0.40659135771E+02  0.00000000000E+00 0.  1.
         11    1    3    3    0    0  0.78519823122E+01  0.73626149958E+00  0.10977143711E+02  0.13516411933E+02  0.51100000000E-03 0. -1.
        -11    1    3    3    0    0 -0.46996199474E+00  0.22687364060E+01  0.57630125932E+00  0.23874992270E+01  0.51100000000E-03 0.  1.
        -12    1    3    3    0    0  0.16590562471E+01 -0.29659905023E+02  0.17788337231E+02  0.34624953070E+02  0.00000000000E+00 0.  1.
</event>
<event>
 7    1  0.2817603E-011  0.5052885E+02  0.7816164E-02  0.1300439E+00
        -11   -1    0    0    0    0  0.00000000000E+00  0.00000000000E+00  0.45593999997E+02  0.45594000000E+02  0.51100000000E-03 0. -1.
         11   -1    0    0    0    0 -0.00000000000E+00 -0.00000000000E+00 -0.45593999997E+02  0.45594000000E+02  0.51100000000E-03 0.  1.
    9900012    2    1    2    0    0 -0.79700479115E+01 -0.66447511705E+01  0.39312746596E+02  0.50528850639E+02  0.29999972002E+02 0.  0.
        -12    1    1    2    0    0  0.79700479115E+01  0.66447511705E+01 -0.39312746596E+02  0.40659149361E+02  0.00000000000E+00 0.  1.
         11    1    3    3    0    0  0.43526725242E+01 -0.10414033674E+02  0.24572988373E+02  0.27041257613E+02  0.51100000000E-03 0. -1.
        -11    1    3    3    0    0 -0.23038078298E+01 -0.36354857218E+01  0.15574142606E+00  0.43068018997E+01  0.51100000000E-03 0.  1.
        -12    1    3    3    0    0 -0.10018912606E+02  0.74047682250E+01  0.14584016797E+02  0.19180791126E+02  0.00000000000E+00 0.  1.
</event>
<event>
 7    1  0.2817603E-011  0.5052886E+02  0.7816164E-02  0.1300439E+00
        -11   -1    0    0    0    0  0.00000000000E+00  0.00000000000E+00  0.45593999997E+02  0.45594000000E+02  0.51100000000E-03 0. -1.
         11   -1    0    0    0    0 -0.00000000000E+00 -0.00000000000E+00 -0.45593999997E+02  0.45594000000E+02  0.51100000000E-03 0.  1.
    9900012    2    1    2    0    0  0.35030246068E+02  0.52062442806E+01  0.19973545070E+02  0.50528860538E+02  0.30000002093E+02 0.  0.
        -12    1    1    2    0    0 -0.35030246068E+02 -0.52062442806E+01 -0.19973545070E+02  0.40659139462E+02  0.00000000000E+00 0.  1.
         11    1    3    3    0    0 -0.64778269303E+00  0.12202289007E+01 -0.67145807504E+00  0.15360459612E+01  0.51100000000E-03 0. -1.
        -11    1    3    3    0    0  0.14154687178E+02  0.54069068859E+01 -0.45547856507E+01  0.15822006313E+02  0.51100000000E-03 0.  1.
         12    1    3    3    0    0  0.21523341584E+02 -0.14208915059E+01  0.25199788795E+02  0.33170808265E+02  0.00000000000E+00 0. -1.
</event>
<event>
 7    1  0.2817603E-011  0.5052886E+02  0.7816164E-02  0.1300439E+00
        -11   -1    0    0    0    0  0.00000000000E+00  0.00000000000E+00  0.45593999997E+02  0.45594000000E+02  0.51100000000E-03 0.  1.
         11   -1    0    0    0    0 -0.00000000000E+00 -0.00000000000E+00 -0.45593999997E+02  0.45594000000E+02  0.51100000000E-03 0. -1.
    9900012    2    1    2    0    0 -0.10999235464E+02 -0.38512349173E+02 -0.69986967025E+01  0.50528856192E+02  0.29999988883E+02 0.  0.
        -12    1    1    2    0    0  0.10999235464E+02  0.38512349173E+02  0.69986967025E+01  0.40659143808E+02  0.00000000000E+00 0.  1.
         11    1    3    3    0    0 -0.24826442946E+01  0.37223683571E+01 -0.19953222521E+01  0.48990672612E+01  0.51100000000E-03 0. -1.
        -11    1    3    3    0    0 -0.66388424567E+01 -0.93504740633E+01  0.27478721802E+01  0.11792217610E+02  0.51100000000E-03 0.  1.
         12    1    3    3    0    0 -0.18777487127E+01 -0.32884243467E+02 -0.77512466306E+01  0.33837571322E+02  0.00000000000E+00 0. -1.
</event>
<event>
 7    1  0.2817603E-011  0.5052886E+02  0.7816164E-02  0.1300439E+00
        -11   -1    0    0    0    0  0.00000000000E+00  0.00000000000E+00  0.45593999997E+02  0.45594000000E+02  0.51100000000E-03 0.  1.
         11   -1    0    0    0    0 -0.00000000000E+00 -0.00000000000E+00 -0.45593999997E+02  0.45594000000E+02  0.51100000000E-03 0. -1.
    9900012    2    1    2    0    0  0.24538444276E+02  0.99025670829E+01 -0.30870208630E+02  0.50528857570E+02  0.29999993068E+02 0.  0.
        -12    1    1    2    0    0 -0.24538444276E+02 -0.99025670829E+01  0.30870208630E+02  0.40659142430E+02  0.00000000000E+00 0.  1.
         11    1    3    3    0    0  0.11764698317E+02 -0.27869514492E-01 -0.12256825374E+02  0.16989369374E+02  0.51100000000E-03 0. -1.
        -11    1    3    3    0    0  0.16185586226E+02  0.13333766210E+02 -0.90690403380E+01  0.22847538505E+02  0.51100000000E-03 0.  1.
         12    1    3    3    0    0 -0.34118402671E+01 -0.34033296125E+01 -0.95443429176E+01  0.10691949691E+02  0.00000000000E+00 0. -1.
</event>
<event>
 7    1  0.2817603E-011  0.5052887E+02  0.7816164E-02  0.1300439E+00
        -11   -1    0    0    0    0  0.00000000000E+00  0.00000000000E+00  0.45593999997E+02  0.45594000000E+02  0.51100000000E-03 0.  1.
         11   -1    0    0    0    0 -0.00000000000E+00 -0.00000000000E+00 -0.45593999997E+02  0.45594000000E+02  0.51100000000E-03 0. -1.
    9900012    2    1    2    0    0  0.26844096217E+01 -0.83568968067E+01 -0.39700391289E+02  0.50528870057E+02  0.30000031025E+02 0.  0.
        -12    1    1    2    0    0 -0.26844096217E+01  0.83568968067E+01  0.39700391289E+02  0.40659129943E+02  0.00000000000E+00 0.  1.
         11    1    3    3    0    0  0.37447928004E+01 -0.17848854245E+01 -0.18452078676E+01  0.45402732773E+01  0.51100000000E-03 0. -1.
        -11    1    3    3    0    0  0.94470791610E+01 -0.68842977626E+01 -0.75589197376E+01  0.13920421266E+02  0.51100000000E-03 0.  1.
         12    1    3    3    0    0 -0.10507462340E+02  0.31228638039E+00 -0.30296263684E+02  0.32068175514E+02  0.00000000000E+00 0. -1.
</event>
<event>
 7    1  0.2817603E-011  0.5052885E+02  0.7816164E-02  0.1300439E+00
        -11   -1    0    0    0    0  0.00000000000E+00  0.00000000000E+00  0.45593999997E+02  0.45594000000E+02  0.51100000000E-03 0. -1.
         11   -1    0    0    0    0 -0.00000000000E+00 -0.00000000000E+00 -0.45593999997E+02  0.45594000000E+02  0.51100000000E-03 0.  1.
    9900012    2    1    2    0    0 -0.39634544820E+02 -0.20957622847E+01 -0.88247902251E+01  0.50528852380E+02  0.29999977295E+02 0.  0.
        -12    1    1    2    0    0  0.39634544820E+02  0.20957622847E+01  0.88247902251E+01  0.40659147620E+02  0.00000000000E+00 0.  1.
         11    1    3    3    0    0 -0.20663333501E+02  0.21561125777E+01 -0.42894192410E+01  0.21213705252E+02  0.51100000000E-03 0. -1.
        -11    1    3    3    0    0 -0.13966150511E+02  0.34999458808E+01  0.57443249409E+01  0.15501620901E+02  0.51100000000E-03 0.  1.
        -12    1    3    3    0    0 -0.50050608078E+01 -0.77518207431E+01 -0.10279695925E+02  0.13813526227E+02  0.00000000000E+00 0.  1.
</event>
<event>
 7    1  0.2817603E-011  0.5052886E+02  0.7816164E-02  0.1300439E+00
        -11   -1    0    0    0    0  0.00000000000E+00  0.00000000000E+00  0.45593999997E+02  0.45594000000E+02  0.51100000000E-03 0.  1.
         11   -1    0    0    0    0 -0.00000000000E+00 -0.00000000000E+00 -0.45593999997E+02  0.45594000000E+02  0.51100000000E-03 0. -1.
    9900012    2    1    2    0    0  0.17648110298E+02  0.19083656159E+02 -0.31265375614E+02  0.50528862752E+02  0.30000008820E+02 0.  0.
        -12    1    1    2    0    0 -0.17648110298E+02 -0.19083656159E+02  0.31265375614E+02  0.40659137248E+02  0.00000000000E+00 0.  1.
         11    1    3    3    0    0  0.62941806842E+01  0.72251543452E+01 -0.10781626319E+02  0.14424390183E+02  0.51100000000E-03 0. -1.
        -11    1    3    3    0    0  0.17070706725E+02  0.15218213061E+02 -0.17673947104E+02  0.28902793003E+02  0.51100000000E-03 0.  1.
        -12    1    3    3    0    0 -0.57167771116E+01 -0.33597112478E+01 -0.28098021907E+01  0.72016795654E+01  0.00000000000E+00 0.  1.
</event>
<event>
 7    1  0.2817603E-011  0.5052886E+02  0.7816164E-02  0.1300439E+00
        -11   -1    0    0    0    0  0.00000000000E+00  0.00000000000E+00  0.45593999997E+02  0.45594000000E+02  0.51100000000E-03 0.  1.
         11   -1    0    0    0    0 -0.00000000000E+00 -0.00000000000E+00 -0.45593999997E+02  0.45594000000E+02  0.51100000000E-03 0. -1.
    9900012    2    1    2    0    0  0.38608351944E+02  0.69849845125E+01 -0.10666349636E+02  0.50528857571E+02  0.29999993073E+02 0.  0.
        -12    1    1    2    0    0 -0.38608351944E+02 -0.69849845125E+01  0.10666349636E+02  0.40659142429E+02  0.00000000000E+00 0.  1.
         11    1    3    3    0    0  0.51320866543E+01  0.55917536270E+01  0.15286630610E+01  0.77422757034E+01  0.51100000000E-03 0. -1.
        -11    1    3    3    0    0  0.59550916063E+01  0.67040753159E+01  0.46338789199E+01  0.10093590837E+02  0.51100000000E-03 0.  1.
         12    1    3    3    0    0  0.27521173684E+02 -0.53108444304E+01 -0.16828891617E+02  0.32692991031E+02  0.00000000000E+00 0. -1.
</event>
<event>
 7    1  0.2817603E-011  0.5052887E+02  0.7816164E-02  0.1300439E+00
        -11   -1    0    0    0    0  0.00000000000E+00  0.00000000000E+00  0.45593999997E+02  0.45594000000E+02  0.51100000000E-03 0.  1.
         11   -1    0    0    0    0 -0.00000000000E+00 -0.00000000000E+00 -0.45593999997E+02  0.45594000000E+02  0.51100000000E-03 0. -1.
    9900012    2    1    2    0    0 -0.41601200579E+01 -0.32047057335E+02 -0.24674771173E+02  0.50528870457E+02  0.30000032242E+02 0.  0.
        -12    1    1    2    0    0  0.41601200579E+01  0.32047057335E+02  0.24674771173E+02  0.40659129543E+02  0.00000000000E+00 0.  1.
         11    1    3    3    0    0 -0.40705698759E+01 -0.12378536282E+02 -0.14537761832E+02  0.19522915226E+02  0.51100000000E-03 0. -1.
        -11    1    3    3    0    0  0.75834969836E+01 -0.72330875130E+00 -0.69634862154E+01  0.10320985543E+02  0.51100000000E-03 0.  1.
         12    1    3    3    0    0 -0.76730471655E+01 -0.18945212302E+02 -0.31735231262E+01  0.20684969688E+02  0.00000000000E+00 0. -1.
</event>
<event>
 7    1  0.2817603E-011  0.5052886E+02  0.7816164E-02  0.1300439E+00
        -11   -1    0    0    0    0  0.00000000000E+00  0.00000000000E+00  0.45593999997E+02  0.45594000000E+02  0.51100000000E-03 0.  1.
         11   -1    0    0    0    0 -0.00000000000E+00 -0.00000000000E+00 -0.45593999997E+02  0.45594000000E+02  0.51100000000E-03 0. -1.
    9900012    2    1    2    0    0  0.23346977780E+01 -0.36688098102E+02  0.17369471378E+02  0.50528857215E+02  0.29999991992E+02 0.  0.
        -12    1    1    2    0    0 -0.23346977780E+01  0.36688098102E+02 -0.17369471378E+02  0.40659142785E+02  0.00000000000E+00 0.  1.
         11    1    3    3    0    0  0.87676586470E+01 -0.96541102683E+01  0.59866847322E+01  0.14349706532E+02  0.51100000000E-03 0.  1.
        -11    1    3    3    0    0 -0.48968780835E+01 -0.29498836939E+02  0.13270848876E+02  0.32715076431E+02  0.51100000000E-03 0. -1.
         12    1    3    3    0    0 -0.15360827855E+01  0.24648491059E+01 -0.18880622301E+01  0.34640742520E+01  0.00000000000E+00 0. -1.
</event>
<event>
 7    1  0.2817603E-011  0.5052885E+02  0.7816164E-02  0.1300439E+00
        -11   -1    0    0    0    0  0.00000000000E+00  0.00000000000E+00  0.45593999997E+02  0.45594000000E+02  0.51100000000E-03 0.  1.
         11   -1    0    0    0    0 -0.00000000000E+00 -0.00000000000E+00 -0.45593999997E+02  0.45594000000E+02  0.51100000000E-03 0. -1.
    9900012    2    1    2    0    0  0.38308724788E+02 -0.22931997214E+01 -0.13429419013E+02  0.50528850294E+02  0.29999970953E+02 0.  0.
        -12    1    1    2    0    0 -0.38308724788E+02  0.22931997214E+01  0.13429419013E+02  0.40659149706E+02  0.00000000000E+00 0.  1.
         11    1    3    3    0    0  0.16489032581E+02 -0.10294215524E+02 -0.26586167293E+01  0.19619564518E+02  0.51100000000E-03 0. -1.
        -11    1    3    3    0    0  0.34151735753E+01 -0.51150789189E+01 -0.39215233090E+01  0.72942297893E+01  0.51100000000E-03 0.  1.
        -12    1    3    3    0    0  0.18404518632E+02  0.13116094721E+02 -0.68492789742E+01  0.23615055987E+02  0.00000000000E+00 0.  1.
</event>
<event>
 7    1  0.2817603E-011  0.5052886E+02  0.7816164E-02  0.1300439E+00
        -11   -1    0    0    0    0  0.00000000000E+00  0.00000000000E+00  0.45593999997E+02  0.45594000000E+02  0.51100000000E-03 0. -1.
         11   -1    0    0    0    0 -0.00000000000E+00 -0.00000000000E+00 -0.45593999997E+02  0.45594000000E+02  0.51100000000E-03 0.  1.
    9900012    2    1    2    0    0  0.98193725511E+01 -0.53993388700E+01  0.39084427680E+02  0.50528862963E+02  0.30000009461E+02 0.  0.
        -12    1    1    2    0    0 -0.98193725511E+01  0.53993388700E+01 -0.39084427680E+02  0.40659137037E+02  0.00000000000E+00 0.  1.
         11    1    3    3    0    0  0.41875020547E+01 -0.53948209273E+01 -0.77380159345E+00  0.68729931953E+01  0.51100000000E-03 0. -1.
        -11    1    3    3    0    0 -0.24369570492E+01 -0.43633151210E+01  0.33578280962E+01  0.60209873185E+01  0.51100000000E-03 0.  1.
         12    1    3    3    0    0  0.80688275455E+01  0.43587971783E+01  0.36500401178E+02  0.37634882449E+02  0.00000000000E+00 0. -1.
</event>
<event>
 7    1  0.2817603E-011  0.5052883E+02  0.7816164E-02  0.1300439E+00
        -11   -1    0    0    0    0  0.00000000000E+00  0.00000000000E+00  0.45593999997E+02  0.45594000000E+02  0.51100000000E-03 0. -1.
         11   -1    0    0    0    0 -0.00000000000E+00 -0.00000000000E+00 -0.45593999997E+02  0.45594000000E+02  0.51100000000E-03 0.  1.
    9900012    2    1    2    0    0 -0.34148665402E+02 -0.12498744072E+02  0.18188400030E+02  0.50528833165E+02  0.29999918888E+02 0.  0.
        -12    1    1    2    0    0  0.34148665402E+02  0.12498744072E+02 -0.18188400030E+02  0.40659166835E+02  0.00000000000E+00 0.  1.
         11    1    3    3    0    0 -0.84501039002E+01 -0.32774218496E+01  0.88104507105E+01  0.12640007590E+02  0.51100000000E-03 0. -1.
        -11    1    3    3    0    0 -0.34948315475E+01 -0.54618544284E+01  0.13517028394E+02  0.14991856396E+02  0.51100000000E-03 0.  1.
        -12    1    3    3    0    0 -0.22203729954E+02 -0.37594677944E+01 -0.41390790746E+01  0.22896969178E+02  0.00000000000E+00 0.  1.
</event>
<event>
 7    1  0.2817603E-011  0.5052886E+02  0.7816164E-02  0.1300439E+00
        -11   -1    0    0    0    0  0.00000000000E+00  0.00000000000E+00  0.45593999997E+02  0.45594000000E+02  0.51100000000E-03 0.  1.
         11   -1    0    0    0    0 -0.00000000000E+00 -0.00000000000E+00 -0.45593999997E+02  0.45594000000E+02  0.51100000000E-03 0. -1.
    9900012    2    1    2    0    0 -0.12889693464E+02  0.23688072515E+02 -0.30428545724E+02  0.50528863610E+02  0.30000011430E+02 0.  0.
        -12    1    1    2    0    0  0.12889693464E+02 -0.23688072515E+02  0.30428545724E+02  0.40659136390E+02  0.00000000000E+00 0.  1.
         11    1    3    3    0    0 -0.16973705128E+01  0.11672022702E+02 -0.93696542306E+01  0.15063452502E+02  0.51100000000E-03 0. -1.
        -11    1    3    3    0    0 -0.27491737595E+01  0.93394536183E+01 -0.24186320730E+02  0.26072235442E+02  0.51100000000E-03 0.  1.
        -12    1    3    3    0    0 -0.84431491919E+01  0.26765961947E+01  0.31274292365E+01  0.93931756662E+01  0.00000000000E+00 0.  1.
</event>
<event>
 7    1  0.2817603E-011  0.5052885E+02  0.7816164E-02  0.1300439E+00
        -11   -1    0    0    0    0  0.00000000000E+00  0.00000000000E+00  0.45593999997E+02  0.45594000000E+02  0.51100000000E-03 0. -1.
         11   -1    0    0    0    0 -0.00000000000E+00 -0.00000000000E+00 -0.45593999997E+02  0.45594000000E+02  0.51100000000E-03 0.  1.
    9900012    2    1    2    0    0 -0.36884841198E+02  0.84767975508E+01  0.14859963051E+02  0.50528854549E+02  0.29999983886E+02 0.  0.
        -12    1    1    2    0    0  0.36884841198E+02 -0.84767975508E+01 -0.14859963051E+02  0.40659145451E+02  0.00000000000E+00 0.  1.
         11    1    3    3    0    0 -0.15227199891E+02  0.10755001701E+02  0.10659808398E+02  0.21474850255E+02  0.51100000000E-03 0. -1.
        -11    1    3    3    0    0 -0.22403311683E+02  0.33364774814E+01  0.12923988964E+01  0.22687237636E+02  0.51100000000E-03 0.  1.
         12    1    3    3    0    0  0.74567037647E+00 -0.56146816320E+01  0.29077557568E+01  0.63667666582E+01  0.00000000000E+00 0. -1.
</event>
<event>
 7    1  0.2817603E-011  0.5052886E+02  0.7816164E-02  0.1300439E+00
        -11   -1    0    0    0    0  0.00000000000E+00  0.00000000000E+00  0.45593999997E+02  0.45594000000E+02  0.51100000000E-03 0.  1.
         11   -1    0    0    0    0 -0.00000000000E+00 -0.00000000000E+00 -0.45593999997E+02  0.45594000000E+02  0.51100000000E-03 0. -1.
    9900012    2    1    2    0    0  0.25118639912E+02 -0.23999441128E+02 -0.21124547611E+02  0.50528858872E+02  0.29999997029E+02 0.  0.
        -12    1    1    2    0    0 -0.25118639912E+02  0.23999441128E+02  0.21124547611E+02  0.40659141128E+02  0.00000000000E+00 0.  1.
         11    1    3    3    0    0  0.42460599024E+01  0.12555106694E+01 -0.85263951628E+01  0.96075359208E+01  0.51100000000E-03 0. -1.
        -11    1    3    3    0    0 -0.15988772313E+01 -0.72898674813E+01 -0.93578566769E+01  0.11969463570E+02  0.51100000000E-03 0.  1.
         12    1    3    3    0    0  0.22471457241E+02 -0.17965084316E+02 -0.32402957713E+01  0.28951859382E+02  0.00000000000E+00 0. -1.
</event>
<event>
 7    1  0.2817603E-011  0.5052886E+02  0.7816164E-02  0.1300439E+00
        -11   -1    0    0    0    0  0.00000000000E+00  0.00000000000E+00  0.45593999997E+02  0.45594000000E+02  0.51100000000E-03 0.  1.
         11   -1    0    0    0    0 -0.00000000000E+00 -0.00000000000E+00 -0.45593999997E+02  0.45594000000E+02  0.51100000000E-03 0. -1.
    9900012    2    1    2    0    0 -0.21435084223E+02  0.30060646603E+02 -0.17031164155E+02  0.50528857580E+02  0.29999993101E+02 0.  0.
        -12    1    1    2    0    0  0.21435084223E+02 -0.30060646603E+02  0.17031164155E+02  0.40659142420E+02  0.00000000000E+00 0.  1.
         11    1    3    3    0    0 -0.26066951932E+00  0.24121078716E+02 -0.11262799106E+02  0.26622265699E+02  0.51100000000E-03 0. -1.
        -11    1    3    3    0    0 -0.15516970209E+00 -0.93313413974E+00 -0.80504946077E+00  0.12421440555E+01  0.51100000000E-03 0.  1.
         12    1    3    3    0    0 -0.21019245002E+02  0.68727020270E+01 -0.49633155885E+01  0.22664447825E+02  0.00000000000E+00 0. -1.
</event>
<event>
 7    1  0.2817603E-011  0.5052886E+02  0.7816164E-02  0.1300439E+00
        -11   -1    0    0    0    0  0.00000000000E+00  0.00000000000E+00  0.45593999997E+02  0.45594000000E+02  0.51100000000E-03 0.  1.
         11   -1    0    0    0    0 -0.00000000000E+00 -0.00000000000E+00 -0.45593999997E+02  0.45594000000E+02  0.51100000000E-03 0. -1.
    9900012    2    1    2    0    0 -0.34496039545E+02 -0.47080498778E+01 -0.21000548041E+02  0.50528862085E+02  0.30000006794E+02 0.  0.
        -12    1    1    2    0    0  0.34496039545E+02  0.47080498778E+01  0.21000548041E+02  0.40659137915E+02  0.00000000000E+00 0.  1.
         11    1    3    3    0    0 -0.24351596739E+02  0.76521226167E+01 -0.12816192779E+02  0.28562388589E+02  0.51100000000E-03 0. -1.
        -11    1    3    3    0    0 -0.51117228059E+00  0.17849707742E+01 -0.39076248319E+01  0.43263090334E+01  0.51100000000E-03 0.  1.
         12    1    3    3    0    0 -0.96332705251E+01 -0.14145143269E+02 -0.42767304298E+01  0.17640164463E+02  0.00000000000E+00 0. -1.
</event>
<event>
 7    1  0.2817603E-011  0.5052886E+02  0.7816164E-02  0.1300439E+00
        -11   -1    0    0    0    0  0.00000000000E+00  0.00000000000E+00  0.45593999997E+02  0.45594000000E+02  0.51100000000E-03 0.  1.
         11   -1    0    0    0    0 -0.00000000000E+00 -0.00000000000E+00 -0.45593999997E+02  0.45594000000E+02  0.51100000000E-03 0. -1.
    9900012    2    1    2    0    0 -0.22079353108E+02 -0.15890902009E+02 -0.30218320088E+02  0.50528862413E+02  0.30000007791E+02 0.  0.
        -12    1    1    2    0    0  0.22079353108E+02  0.15890902009E+02  0.30218320088E+02  0.40659137587E+02  0.00000000000E+00 0.  1.
         11    1    3    3    0    0 -0.87734067564E+00  0.48260106007E+01  0.39862761338E+00  0.49212812574E+01  0.51100000000E-03 0. -1.
        -11    1    3    3    0    0 -0.11998587968E+02 -0.96640371969E+01 -0.49441744432E+01  0.16180376675E+02  0.51100000000E-03 0.  1.
         12    1    3    3    0    0 -0.92034244650E+01 -0.11052875413E+02 -0.25672773258E+02  0.29427204481E+02  0.00000000000E+00 0. -1.
</event>
<event>
 7    1  0.2817603E-011  0.5052886E+02  0.7816164E-02  0.1300439E+00
        -11   -1    0    0    0    0  0.00000000000E+00  0.00000000000E+00  0.45593999997E+02  0.45594000000E+02  0.51100000000E-03 0. -1.
         11   -1    0    0    0    0 -0.00000000000E+00 -0.00000000000E+00 -0.45593999997E+02  0.45594000000E+02  0.51100000000E-03 0.  1.
    9900012    2    1    2    0    0 -0.31584070643E+02 -0.19683840031E+02  0.16375540633E+02  0.50528863170E+02  0.30000010090E+02 0.  0.
        -12    1    1    2    0    0  0.31584070643E+02  0.19683840031E+02 -0.16375540633E+02  0.40659136830E+02  0.00000000000E+00 0.  1.
         11    1    3    3    0    0 -0.53950247267E+01 -0.14904161889E+01  0.41038716854E+01  0.69404175155E+01  0.51100000000E-03 0. -1.
        -11    1    3    3    0    0 -0.82040302656E+01 -0.47034974353E+01  0.18048719010E+02  0.20376095281E+02  0.51100000000E-03 0.  1.
        -12    1    3    3    0    0 -0.17985015651E+02 -0.13489926407E+02 -0.57770500626E+01  0.23212350373E+02  0.00000000000E+00 0.  1.
</event>
<event>
 7    1  0.2817603E-011  0.5052886E+02  0.7816164E-02  0.1300439E+00
        -11   -1    0    0    0    0  0.00000000000E+00  0.00000000000E+00  0.45593999997E+02  0.45594000000E+02  0.51100000000E-03 0.  1.
         11   -1    0    0    0    0 -0.00000000000E+00 -0.00000000000E+00 -0.45593999997E+02  0.45594000000E+02  0.51100000000E-03 0. -1.
    9900012    2    1    2    0    0 -0.36343398280E+02 -0.17706585269E+02  0.43359198295E+01  0.50528856364E+02  0.29999989403E+02 0.  0.
        -12    1    1    2    0    0  0.36343398280E+02  0.17706585269E+02 -0.43359198295E+01  0.40659143636E+02  0.00000000000E+00 0.  1.
         11    1    3    3    0    0 -0.55525184483E+01  0.31541810635E+01  0.45967618371E+01  0.78682614947E+01  0.51100000000E-03 0. -1.
        -11    1    3    3    0    0 -0.21206595146E+02 -0.67400484679E+01  0.80694402172E+01  0.23669892199E+02  0.51100000000E-03 0.  1.
         12    1    3    3    0    0 -0.95842846865E+01 -0.14120717865E+02 -0.83302822248E+01  0.18990702670E+02  0.00000000000E+00 0. -1.
</event>
<event>
 7    1  0.2817603E-011  0.5052886E+02  0.7816164E-02  0.1300439E+00
        -11   -1    0    0    0    0  0.00000000000E+00  0.00000000000E+00  0.45593999997E+02  0.45594000000E+02  0.51100000000E-03 0. -1.
         11   -1    0    0    0    0 -0.00000000000E+00 -0.00000000000E+00 -0.45593999997E+02  0.45594000000E+02  0.51100000000E-03 0.  1.
    9900012    2    1    2    0    0  0.39964441853E+02  0.36572416370E+01  0.65294643166E+01  0.50528856707E+02  0.29999990447E+02 0.  0.
        -12    1    1    2    0    0 -0.39964441853E+02 -0.36572416370E+01 -0.65294643166E+01  0.40659143293E+02  0.00000000000E+00 0.  1.
         11    1    3    3    0    0  0.33717723753E+02  0.82739407663E+01 -0.12303045579E+01  0.34739842263E+02  0.51100000000E-03 0. -1.
        -11    1    3    3    0    0  0.51394722915E+01 -0.46766190829E+01 -0.94606706446E+00  0.70128442613E+01  0.51100000000E-03 0.  1.
         12    1    3    3    0    0  0.11072458086E+01  0.59919953621E-01  0.87058359389E+01  0.87761701828E+01  0.00000000000E+00 0. -1.
</event>
<event>
 7    1  0.2817603E-011  0.5052885E+02  0.7816164E-02  0.1300439E+00
        -11   -1    0    0    0    0  0.00000000000E+00  0.00000000000E+00  0.45593999997E+02  0.45594000000E+02  0.51100000000E-03 0.  1.
         11   -1    0    0    0    0 -0.00000000000E+00 -0.00000000000E+00 -0.45593999997E+02  0.45594000000E+02  0.51100000000E-03 0. -1.
    9900012    2    1    2    0    0 -0.35511877842E+02 -0.17508537004E+01 -0.19723270784E+02  0.50528851375E+02  0.29999974238E+02 0.  0.
        -12    1    1    2    0    0  0.35511877842E+02  0.17508537004E+01  0.19723270784E+02  0.40659148625E+02  0.00000000000E+00 0.  1.
         11    1    3    3    0    0 -0.28313408870E+02 -0.98835429765E+01 -0.18878412627E+02  0.35436252725E+02  0.51100000000E-03 0. -1.
        -11    1    3    3    0    0 -0.97353313149E+01  0.52918799365E+01  0.39363929606E+00  0.11087633707E+02  0.51100000000E-03 0.  1.
        -12    1    3    3    0    0  0.25368623426E+01  0.28408093397E+01 -0.12384974525E+01  0.40049649423E+01  0.00000000000E+00 0.  1.
</event>
<event>
 7    1  0.2817603E-011  0.5052889E+02  0.7816164E-02  0.1300439E+00
        -11   -1    0    0    0    0  0.00000000000E+00  0.00000000000E+00  0.45593999997E+02  0.45594000000E+02  0.51100000000E-03 0.  1.
         11   -1    0    0    0    0 -0.00000000000E+00 -0.00000000000E+00 -0.45593999997E+02  0.45594000000E+02  0.51100000000E-03 0. -1.
    9900012    2    1    2    0    0 -0.10972266317E+02  0.37844977533E+02 -0.10026489263E+02  0.50528887374E+02  0.30000083662E+02 0.  0.
        -12    1    1    2    0    0  0.10972266317E+02 -0.37844977533E+02  0.10026489263E+02  0.40659112626E+02  0.00000000000E+00 0.  1.
         11    1    3    3    0    0 -0.14597950610E+02  0.14459851112E+02 -0.14105385607E+01  0.20595559606E+02  0.51100000000E-03 0. -1.
        -11    1    3    3    0    0 -0.36778223007E+01  0.67589191389E+00  0.14911016739E+01  0.40257410768E+01  0.51100000000E-03 0.  1.
        -12    1    3    3    0    0  0.73035065930E+01  0.22709234507E+02 -0.10107052376E+02  0.25907586692E+02  0.00000000000E+00 0.  1.
</event>
<event>
 7    1  0.2817603E-011  0.5052886E+02  0.7816164E-02  0.1300439E+00
        -11   -1    0    0    0    0  0.00000000000E+00  0.00000000000E+00  0.45593999997E+02  0.45594000000E+02  0.51100000000E-03 0.  1.
         11   -1    0    0    0    0 -0.00000000000E+00 -0.00000000000E+00 -0.45593999997E+02  0.45594000000E+02  0.51100000000E-03 0. -1.
    9900012    2    1    2    0    0 -0.23147833781E+02  0.22721339426E+02 -0.24517022730E+02  0.50528857392E+02  0.29999992529E+02 0.  0.
        -12    1    1    2    0    0  0.23147833781E+02 -0.22721339426E+02  0.24517022730E+02  0.40659142608E+02  0.00000000000E+00 0.  1.
         11    1    3    3    0    0 -0.18683970619E+01 -0.67017037102E+00 -0.76222511285E+01  0.78764680177E+01  0.51100000000E-03 0. -1.
        -11    1    3    3    0    0  0.46440048281E+01  0.21942555797E+01 -0.48535769075E+01  0.70667352753E+01  0.51100000000E-03 0.  1.
        -12    1    3    3    0    0 -0.25923441547E+02  0.21197254218E+02 -0.12041194694E+02  0.35585654099E+02  0.00000000000E+00 0.  1.
</event>
<event>
 7    1  0.2817603E-011  0.5052885E+02  0.7816164E-02  0.1300439E+00
        -11   -1    0    0    0    0  0.00000000000E+00  0.00000000000E+00  0.45593999997E+02  0.45594000000E+02  0.51100000000E-03 0. -1.
         11   -1    0    0    0    0 -0.00000000000E+00 -0.00000000000E+00 -0.45593999997E+02  0.45594000000E+02  0.51100000000E-03 0.  1.
    9900012    2    1    2    0    0  0.16680935402E+02  0.25100390631E+02  0.27292548944E+02  0.50528850432E+02  0.29999971374E+02 0.  0.
        -12    1    1    2    0    0 -0.16680935402E+02 -0.25100390631E+02 -0.27292548944E+02  0.40659149568E+02  0.00000000000E+00 0.  1.
         11    1    3    3    0    0  0.68214929050E+01 -0.10697508675E+01  0.86898511742E+01  0.11099128167E+02  0.51100000000E-03 0.  1.
        -11    1    3    3    0    0  0.80219697513E+01  0.76822859890E+01  0.17615117970E+02  0.20824550369E+02  0.51100000000E-03 0. -1.
         12    1    3    3    0    0  0.18374727457E+01  0.18487855510E+02  0.98757979928E+00  0.18605171897E+02  0.00000000000E+00 0. -1.
</event>
<event>
 7    1  0.2817603E-011  0.5052886E+02  0.7816164E-02  0.1300439E+00
        -11   -1    0    0    0    0  0.00000000000E+00  0.00000000000E+00  0.45593999997E+02  0.45594000000E+02  0.51100000000E-03 0. -1.
         11   -1    0    0    0    0 -0.00000000000E+00 -0.00000000000E+00 -0.45593999997E+02  0.45594000000E+02  0.51100000000E-03 0.  1.
    9900012    2    1    2    0    0 -0.36491923896E+02 -0.12781038917E+02 -0.12575766368E+02  0.50528863693E+02  0.30000011682E+02 0.  0.
        -12    1    1    2    0    0  0.36491923896E+02  0.12781038917E+02  0.12575766368E+02  0.40659136307E+02  0.00000000000E+00 0.  1.
         11    1    3    3    0    0 -0.91178917715E+01 -0.16225756291E+02 -0.22466251263E+00  0.18613478748E+02  0.51100000000E-03 0. -1.
        -11    1    3    3    0    0 -0.16166659474E+02 -0.29291717360E+01 -0.55740489976E+01  0.17349667089E+02  0.51100000000E-03 0.  1.
        -12    1    3    3    0    0 -0.11207372651E+02  0.63738891107E+01 -0.67770548581E+01  0.14565717857E+02  0.00000000000E+00 0.  1.
</event>
<event>
 7    1  0.2817603E-011  0.5052886E+02  0.7816164E-02  0.1300439E+00
        -11   -1    0    0    0    0  0.00000000000E+00  0.00000000000E+00  0.45593999997E+02  0.45594000000E+02  0.51100000000E-03 0. -1.
         11   -1    0    0    0    0 -0.00000000000E+00 -0.00000000000E+00 -0.45593999997E+02  0.45594000000E+02  0.51100000000E-03 0.  1.
    9900012    2    1    2    0    0 -0.12892189083E+02  0.32564069019E+01  0.38423338758E+02  0.50528859741E+02  0.29999999670E+02 0.  0.
        -12    1    1    2    0    0  0.12892189083E+02 -0.32564069019E+01 -0.38423338758E+02  0.40659140259E+02  0.00000000000E+00 0.  1.
         11    1    3    3    0    0 -0.19906995690E+00  0.69218544661E+01  0.62522116044E+01  0.93296220880E+01  0.51100000000E-03 0. -1.
        -11    1    3    3    0    0 -0.59596897936E+01  0.69919082502E+01  0.25136959017E+02  0.26763247043E+02  0.51100000000E-03 0.  1.
        -12    1    3    3    0    0 -0.67334293323E+01 -0.10657355814E+02  0.70341681366E+01  0.14435990610E+02  0.00000000000E+00 0.  1.
</event>
<event>
 7    1  0.2817603E-011  0.5052886E+02  0.7816164E-02  0.1300439E+00
        -11   -1    0    0    0    0  0.00000000000E+00  0.00000000000E+00  0.45593999997E+02  0.45594000000E+02  0.51100000000E-03 0. -1.
         11   -1    0    0    0    0 -0.00000000000E+00 -0.00000000000E+00 -0.45593999997E+02  0.45594000000E+02  0.51100000000E-03 0.  1.
    9900012    2    1    2    0    0  0.13199485654E+02 -0.29854226559E+02 -0.24241789831E+02  0.50528860325E+02  0.30000001443E+02 0.  0.
        -12    1    1    2    0    0 -0.13199485654E+02  0.29854226559E+02  0.24241789831E+02  0.40659139675E+02  0.00000000000E+00 0.  1.
         11    1    3    3    0    0  0.23206020221E+01 -0.27853214765E+00 -0.60160370457E+01  0.64541053523E+01  0.51100000000E-03 0. -1.
        -11    1    3    3    0    0  0.84216285317E+01  0.11510545467E+01 -0.77946567647E+01  0.11532797927E+02  0.51100000000E-03 0.  1.
         12    1    3    3    0    0  0.24572550999E+01 -0.30726748958E+02 -0.10431096020E+02  0.32541957045E+02  0.00000000000E+00 0. -1.
</event>
<event>
 7    1  0.2817603E-011  0.5052886E+02  0.7816164E-02  0.1300439E+00
        -11   -1    0    0    0    0  0.00000000000E+00  0.00000000000E+00  0.45593999997E+02  0.45594000000E+02  0.51100000000E-03 0.  1.
         11   -1    0    0    0    0 -0.00000000000E+00 -0.00000000000E+00 -0.45593999997E+02  0.45594000000E+02  0.51100000000E-03 0. -1.
    9900012    2    1    2    0    0  0.98907324430E+00 -0.30330302904E+02 -0.27060302938E+02  0.50528861602E+02  0.30000005327E+02 0.  0.
        -12    1    1    2    0    0 -0.98907324430E+00  0.30330302904E+02  0.27060302938E+02  0.40659138398E+02  0.00000000000E+00 0.  1.
         11    1    3    3    0    0 -0.56309516410E+01 -0.27138366803E+01 -0.81238172783E+01  0.10250313817E+02  0.51100000000E-03 0. -1.
        -11    1    3    3    0    0 -0.58746147226E+01 -0.11508964076E+01 -0.13577581870E+01  0.61383359500E+01  0.51100000000E-03 0.  1.
         12    1    3    3    0    0  0.12494639608E+02 -0.26465569816E+02 -0.17578727473E+02  0.34140211836E+02  0.00000000000E+00 0. -1.
</event>
<event>
 7    1  0.2817603E-011  0.5052887E+02  0.7816164E-02  0.1300439E+00
        -11   -1    0    0    0    0  0.00000000000E+00  0.00000000000E+00  0.45593999997E+02  0.45594000000E+02  0.51100000000E-03 0.  1.
         11   -1    0    0    0    0 -0.00000000000E+00 -0.00000000000E+00 -0.45593999997E+02  0.45594000000E+02  0.51100000000E-03 0. -1.
    9900012    2    1    2    0    0 -0.52696659953E+01 -0.13228682745E+02 -0.38084082746E+02  0.50528870822E+02  0.30000033351E+02 0.  0.
        -12    1    1    2    0    0  0.52696659953E+01  0.13228682745E+02  0.38084082746E+02  0.40659129178E+02  0.00000000000E+00 0.  1.
         11    1    3    3    0    0  0.20685170417E+01 -0.30327857093E+01 -0.22179119347E+02  0.22480878256E+02  0.51100000000E-03 0. -1.
        -11    1    3    3    0    0  0.63015128137E+01 -0.45980134992E+01 -0.85422359218E+01  0.11568084832E+02  0.51100000000E-03 0.  1.
        -12    1    3    3    0    0 -0.13639695851E+02 -0.55978835370E+01 -0.73627274775E+01  0.16479907733E+02  0.00000000000E+00 0.  1.
</event>
<event>
 7    1  0.2817603E-011  0.5052887E+02  0.7816164E-02  0.1300439E+00
        -11   -1    0    0    0    0  0.00000000000E+00  0.00000000000E+00  0.45593999997E+02  0.45594000000E+02  0.51100000000E-03 0.  1.
         11   -1    0    0    0    0 -0.00000000000E+00 -0.00000000000E+00 -0.45593999997E+02  0.45594000000E+02  0.51100000000E-03 0. -1.
    9900012    2    1    2    0    0  0.28860971566E+02 -0.37847308062E+01 -0.28388108827E+02  0.50528873229E+02  0.30000040668E+02 0.  0.
        -12    1    1    2    0    0 -0.28860971566E+02  0.37847308062E+01  0.28388108827E+02  0.40659126771E+02  0.00000000000E+00 0.  1.
         11    1    3    3    0    0  0.11352884579E+01  0.19781032090E+01  0.10239653181E+01  0.25000554838E+01  0.51100000000E-03 0. -1.
        -11    1    3    3    0    0  0.23382204372E+01  0.44728421286E+01 -0.17433541232E+02  0.18149433921E+02  0.51100000000E-03 0.  1.
         12    1    3    3    0    0  0.25387462671E+02 -0.10235676144E+02 -0.11978532913E+02  0.29879383824E+02  0.00000000000E+00 0. -1.
</event>
<event>
 7    1  0.2817603E-011  0.5052887E+02  0.7816164E-02  0.1300439E+00
        -11   -1    0    0    0    0  0.00000000000E+00  0.00000000000E+00  0.45593999997E+02  0.45594000000E+02  0.51100000000E-03 0. -1.
         11   -1    0    0    0    0 -0.00000000000E+00 -0.00000000000E+00 -0.45593999997E+02  0.45594000000E+02  0.51100000000E-03 0.  1.
    9900012    2    1    2    0    0 -0.39921016851E+02 -0.72180338127E+01  0.27161794638E+01  0.50528865363E+02  0.30000016758E+02 0.  0.
        -12    1    1    2    0    0  0.39921016851E+02  0.72180338127E+01 -0.27161794638E+01  0.40659134637E+02  0.00000000000E+00 0.  1.
         11    1    3    3    0    0  0.13417628302E+01 -0.58114613541E+00  0.10624641093E+01  0.18074536143E+01  0.51100000000E-03 0. -1.
        -11    1    3    3    0    0 -0.13918420891E+01 -0.93312667105E+00  0.78002931523E+01  0.79782531490E+01  0.51100000000E-03 0.  1.
         12    1    3    3    0    0 -0.39870937592E+02 -0.57037610062E+01 -0.61465777978E+01  0.40743158600E+02  0.00000000000E+00 0. -1.
</event>
<event>
 7    1  0.2817603E-011  0.5052886E+02  0.7816164E-02  0.1300439E+00
        -11   -1    0    0    0    0  0.00000000000E+00  0.00000000000E+00  0.45593999997E+02  0.45594000000E+02  0.51100000000E-03 0.  1.
         11   -1    0    0    0    0 -0.00000000000E+00 -0.00000000000E+00 -0.45593999997E+02  0.45594000000E+02  0.51100000000E-03 0. -1.
    9900012    2    1    2    0    0  0.26646272970E+02 -0.11444684033E+02 -0.28498434607E+02  0.50528862886E+02  0.30000009228E+02 0.  0.
        -12    1    1    2    0    0 -0.26646272970E+02  0.11444684033E+02  0.28498434607E+02  0.40659137114E+02  0.00000000000E+00 0.  1.
         11    1    3    3    0    0 -0.28811308886E+01 -0.44572174583E+01 -0.96147139445E+01  0.10982277868E+02  0.51100000000E-03 0. -1.
        -11    1    3    3    0    0  0.74863106847E+01 -0.38088646703E+01  0.24067387131E+01  0.87375448061E+01  0.51100000000E-03 0.  1.
         12    1    3    3    0    0  0.22041093174E+02 -0.31786019043E+01 -0.21290459376E+02  0.30809040212E+02  0.00000000000E+00 0. -1.
</event>
<event>
 7    1  0.2817603E-011  0.5052886E+02  0.7816164E-02  0.1300439E+00
        -11   -1    0    0    0    0  0.00000000000E+00  0.00000000000E+00  0.45593999997E+02  0.45594000000E+02  0.51100000000E-03 0.  1.
         11   -1    0    0    0    0 -0.00000000000E+00 -0.00000000000E+00 -0.45593999997E+02  0.45594000000E+02  0.51100000000E-03 0. -1.
    9900012    2    1    2    0    0  0.35184232062E+01  0.33846622312E+02 -0.22252916275E+02  0.50528862939E+02  0.30000009389E+02 0.  0.
        -12    1    1    2    0    0 -0.35184232062E+01 -0.33846622312E+02  0.22252916275E+02  0.40659137061E+02  0.00000000000E+00 0.  1.
         11    1    3    3    0    0 -0.40443391120E+01  0.18223940789E+01 -0.76121816041E+01  0.88103977246E+01  0.51100000000E-03 0. -1.
        -11    1    3    3    0    0 -0.46888913579E+01  0.57468027497E+00 -0.43786803327E+01  0.64411801172E+01  0.51100000000E-03 0.  1.
         12    1    3    3    0    0  0.12251653676E+02  0.31449547958E+02 -0.10262054338E+02  0.35277285097E+02  0.00000000000E+00 0. -1.
</event>
<event>
 7    1  0.2817603E-011  0.5052886E+02  0.7816164E-02  0.1300439E+00
        -11   -1    0    0    0    0  0.00000000000E+00  0.00000000000E+00  0.45593999997E+02  0.45594000000E+02  0.51100000000E-03 0. -1.
         11   -1    0    0    0    0 -0.00000000000E+00 -0.00000000000E+00 -0.45593999997E+02  0.45594000000E+02  0.51100000000E-03 0.  1.
    9900012    2    1    2    0    0 -0.32128490672E+02 -0.23969628610E+02 -0.68104860821E+01  0.50528859216E+02  0.29999998074E+02 0.  0.
        -12    1    1    2    0    0  0.32128490672E+02  0.23969628610E+02  0.68104860821E+01  0.40659140784E+02  0.00000000000E+00 0.  1.
         11    1    3    3    0    0  0.36902603857E+01  0.60509161245E+00 -0.17289751776E+01  0.41198923529E+01  0.51100000000E-03 0. -1.
        -11    1    3    3    0    0  0.10687159554E+01 -0.26824928756E+01 -0.17694970067E+01  0.33865973688E+01  0.51100000000E-03 0.  1.
         12    1    3    3    0    0 -0.36887467013E+02 -0.21892227347E+02 -0.33120138978E+01  0.43022369495E+02  0.00000000000E+00 0. -1.
</event>
<event>
 7    1  0.2817603E-011  0.5052886E+02  0.7816164E-02  0.1300439E+00
        -11   -1    0    0    0    0  0.00000000000E+00  0.00000000000E+00  0.45593999997E+02  0.45594000000E+02  0.51100000000E-03 0.  1.
         11   -1    0    0    0    0 -0.00000000000E+00 -0.00000000000E+00 -0.45593999997E+02  0.45594000000E+02  0.51100000000E-03 0. -1.
    9900012    2    1    2    0    0  0.19182770385E+02  0.10911835775E+02 -0.34148477916E+02  0.50528863467E+02  0.30000010996E+02 0.  0.
        -12    1    1    2    0    0 -0.19182770385E+02 -0.10911835775E+02  0.34148477916E+02  0.40659136533E+02  0.00000000000E+00 0.  1.
         11    1    3    3    0    0 -0.45273020655E+01 -0.10772605069E+01 -0.13927984254E+01  0.48576580681E+01  0.51100000000E-03 0. -1.
        -11    1    3    3    0    0 -0.16077783071E+01  0.15193325409E+01 -0.94402286675E+01  0.96959393567E+01  0.51100000000E-03 0.  1.
         12    1    3    3    0    0  0.25317850757E+02  0.10469763741E+02 -0.23315450823E+02  0.35975266043E+02  0.00000000000E+00 0. -1.
</event>
<event>
 7    1  0.2817603E-011  0.5052887E+02  0.7816164E-02  0.1300439E+00
        -11   -1    0    0    0    0  0.00000000000E+00  0.00000000000E+00  0.45593999997E+02  0.45594000000E+02  0.51100000000E-03 0. -1.
         11   -1    0    0    0    0 -0.00000000000E+00 -0.00000000000E+00 -0.45593999997E+02  0.45594000000E+02  0.51100000000E-03 0.  1.
    9900012    2    1    2    0    0  0.39900901519E+02  0.15933782622E+01  0.76514077233E+01  0.50528870196E+02  0.30000031447E+02 0.  0.
        -12    1    1    2    0    0 -0.39900901519E+02 -0.15933782622E+01 -0.76514077233E+01  0.40659129804E+02  0.00000000000E+00 0.  1.
         11    1    3    3    0    0  0.12547008093E+02  0.50972456421E+01  0.97695526674E+01  0.16698906695E+02  0.51100000000E-03 0. -1.
        -11    1    3    3    0    0  0.27364434125E+02 -0.72885999296E+01  0.18086274775E+01  0.28376170946E+02  0.51100000000E-03 0.  1.
        -12    1    3    3    0    0 -0.10540700343E-01  0.37847325497E+01 -0.39267724216E+01  0.54537925547E+01  0.00000000000E+00 0.  1.
</event>
<event>
 7    1  0.2817603E-011  0.5052886E+02  0.7816164E-02  0.1300439E+00
        -11   -1    0    0    0    0  0.00000000000E+00  0.00000000000E+00  0.45593999997E+02  0.45594000000E+02  0.51100000000E-03 0. -1.
         11   -1    0    0    0    0 -0.00000000000E+00 -0.00000000000E+00 -0.45593999997E+02  0.45594000000E+02  0.51100000000E-03 0.  1.
    9900012    2    1    2    0    0 -0.41231011402E+01  0.40016982124E+02  0.58997411836E+01  0.50528858748E+02  0.29999996649E+02 0.  0.
        -12    1    1    2    0    0  0.41231011402E+01 -0.40016982124E+02 -0.58997411836E+01  0.40659141252E+02  0.00000000000E+00 0.  1.
         11    1    3    3    0    0 -0.38036927773E+01 -0.76426240268E+00 -0.67031371350E-02  0.38797191854E+01  0.51100000000E-03 0.  1.
        -11    1    3    3    0    0 -0.58120596524E+01  0.33439070190E+01  0.57152225282E+01  0.88105346241E+01  0.51100000000E-03 0. -1.
         12    1    3    3    0    0  0.54926512896E+01  0.37437337508E+02  0.19122179249E+00  0.37838604938E+02  0.00000000000E+00 0. -1.
</event>
<event>
 7    1  0.2817603E-011  0.5052886E+02  0.7816164E-02  0.1300439E+00
        -11   -1    0    0    0    0  0.00000000000E+00  0.00000000000E+00  0.45593999997E+02  0.45594000000E+02  0.51100000000E-03 0.  1.
         11   -1    0    0    0    0 -0.00000000000E+00 -0.00000000000E+00 -0.45593999997E+02  0.45594000000E+02  0.51100000000E-03 0. -1.
    9900012    2    1    2    0    0 -0.24111712108E+02  0.24845891762E+02 -0.21318361253E+02  0.50528861732E+02  0.30000005719E+02 0.  0.
        -12    1    1    2    0    0  0.24111712108E+02 -0.24845891762E+02  0.21318361253E+02  0.40659138268E+02  0.00000000000E+00 0.  1.
         11    1    3    3    0    0 -0.80386661597E+01 -0.28603771111E+01  0.20766306038E+01  0.87814751478E+01  0.51100000000E-03 0. -1.
        -11    1    3    3    0    0 -0.60961992817E+01  0.14184166725E+01 -0.60816364215E+01  0.87270758770E+01  0.51100000000E-03 0.  1.
         12    1    3    3    0    0 -0.99768466662E+01  0.26287852201E+02 -0.17313355435E+02  0.33020310707E+02  0.00000000000E+00 0. -1.
</event>
<event>
 7    1  0.2817603E-011  0.5052886E+02  0.7816164E-02  0.1300439E+00
        -11   -1    0    0    0    0  0.00000000000E+00  0.00000000000E+00  0.45593999997E+02  0.45594000000E+02  0.51100000000E-03 0. -1.
         11   -1    0    0    0    0 -0.00000000000E+00 -0.00000000000E+00 -0.45593999997E+02  0.45594000000E+02  0.51100000000E-03 0.  1.
    9900012    2    1    2    0    0 -0.26874616321E+02  0.14381813157E+02  0.26908810696E+02  0.50528860250E+02  0.30000001217E+02 0.  0.
        -12    1    1    2    0    0  0.26874616321E+02 -0.14381813157E+02 -0.26908810696E+02  0.40659139750E+02  0.00000000000E+00 0.  1.
         11    1    3    3    0    0 -0.52458534604E+01 -0.69134752582E+00  0.18651238597E+01  0.56103143586E+01  0.51100000000E-03 0. -1.
        -11    1    3    3    0    0 -0.58783276470E+01  0.72316083247E+01 -0.46412341328E+01  0.10411145442E+02  0.51100000000E-03 0.  1.
        -12    1    3    3    0    0 -0.15750435214E+02  0.78415523584E+01  0.29684920969E+02  0.34507400449E+02  0.00000000000E+00 0.  1.
</event>
<event>
 7    1  0.2817603E-011  0.5052886E+02  0.7816164E-02  0.1300439E+00
        -11   -1    0    0    0    0  0.00000000000E+00  0.00000000000E+00  0.45593999997E+02  0.45594000000E+02  0.51100000000E-03 0.  1.
         11   -1    0    0    0    0 -0.00000000000E+00 -0.00000000000E+00 -0.45593999997E+02  0.45594000000E+02  0.51100000000E-03 0. -1.
    9900012    2    1    2    0    0  0.32615313750E+02 -0.38294589950E+01 -0.23973781580E+02  0.50528860186E+02  0.30000001021E+02 0.  0.
        -12    1    1    2    0    0 -0.32615313750E+02  0.38294589950E+01  0.23973781580E+02  0.40659139814E+02  0.00000000000E+00 0.  1.
         11    1    3    3    0    0  0.30470672850E+01 -0.12905937517E+00 -0.16233235880E+02  0.16517240168E+02  0.51100000000E-03 0. -1.
        -11    1    3    3    0    0  0.32247143331E+01 -0.39936202744E+01 -0.55741579698E+01  0.75775340817E+01  0.51100000000E-03 0.  1.
         12    1    3    3    0    0  0.26343532131E+02  0.29322065462E+00 -0.21663877304E+01  0.26434085937E+02  0.00000000000E+00 0. -1.
</event>
<event>
 7    1  0.2817603E-011  0.5052883E+02  0.7816164E-02  0.1300439E+00
        -11   -1    0    0    0    0  0.00000000000E+00  0.00000000000E+00  0.45593999997E+02  0.45594000000E+02  0.51100000000E-03 0.  1.
         11   -1    0    0    0    0 -0.00000000000E+00 -0.00000000000E+00 -0.45593999997E+02  0.45594000000E+02  0.51100000000E-03 0. -1.
    9900012    2    1    2    0    0  0.85738704385E+00 -0.13833300423E+02 -0.38223986330E+02  0.50528825831E+02  0.29999896597E+02 0.  0.
        -12    1    1    2    0    0 -0.85738704385E+00  0.13833300423E+02  0.38223986330E+02  0.40659174169E+02  0.00000000000E+00 0.  1.
         11    1    3    3    0    0 -0.80792373579E+01 -0.21386147232E+01 -0.70878156128E+01  0.10958324673E+02  0.51100000000E-03 0. -1.
        -11    1    3    3    0    0  0.42549928434E+01 -0.16114332893E+02 -0.27554892458E+02  0.32203241876E+02  0.51100000000E-03 0.  1.
        -12    1    3    3    0    0  0.46816315584E+01  0.44196471936E+01 -0.35812782593E+01  0.73672592824E+01  0.00000000000E+00 0.  1.
</event>
<event>
 7    1  0.2817603E-011  0.5052886E+02  0.7816164E-02  0.1300439E+00
        -11   -1    0    0    0    0  0.00000000000E+00  0.00000000000E+00  0.45593999997E+02  0.45594000000E+02  0.51100000000E-03 0. -1.
         11   -1    0    0    0    0 -0.00000000000E+00 -0.00000000000E+00 -0.45593999997E+02  0.45594000000E+02  0.51100000000E-03 0.  1.
    9900012    2    1    2    0    0 -0.94809042882E+01 -0.21602870629E+02  0.33114858514E+02  0.50528863020E+02  0.30000009636E+02 0.  0.
        -12    1    1    2    0    0  0.94809042882E+01  0.21602870629E+02 -0.33114858514E+02  0.40659136980E+02  0.00000000000E+00 0.  1.
         11    1    3    3    0    0 -0.53408564388E+01 -0.12900906766E+02  0.28286772042E+02  0.31545199567E+02  0.51100000000E-03 0. -1.
        -11    1    3    3    0    0 -0.17503631020E+01 -0.73213765127E+01  0.10357328263E+02  0.12803928070E+02  0.51100000000E-03 0.  1.
        -12    1    3    3    0    0 -0.23896847473E+01 -0.13805873504E+01 -0.55292417907E+01  0.61797353830E+01  0.00000000000E+00 0.  1.
</event>
<event>
 7    1  0.2817603E-011  0.5052886E+02  0.7816164E-02  0.1300439E+00
        -11   -1    0    0    0    0  0.00000000000E+00  0.00000000000E+00  0.45593999997E+02  0.45594000000E+02  0.51100000000E-03 0. -1.
         11   -1    0    0    0    0 -0.00000000000E+00 -0.00000000000E+00 -0.45593999997E+02  0.45594000000E+02  0.51100000000E-03 0.  1.
    9900012    2    1    2    0    0 -0.21370864934E+02 -0.34389163919E+02 -0.37198874614E+01  0.50528855570E+02  0.29999986991E+02 0.  0.
        -12    1    1    2    0    0  0.21370864934E+02  0.34389163919E+02  0.37198874614E+01  0.40659144430E+02  0.00000000000E+00 0.  1.
         11    1    3    3    0    0 -0.18036850968E+02 -0.29111499083E+02  0.12648184843E+01  0.34269624126E+02  0.51100000000E-03 0. -1.
        -11    1    3    3    0    0  0.22326710564E+01 -0.86140306627E+01 -0.20244937922E+01  0.91260571815E+01  0.51100000000E-03 0.  1.
        -12    1    3    3    0    0 -0.55666850222E+01  0.33363658268E+01 -0.29602121535E+01  0.71331742626E+01  0.00000000000E+00 0.  1.
</event>
<event>
 7    1  0.2817603E-011  0.5052886E+02  0.7816164E-02  0.1300439E+00
        -11   -1    0    0    0    0  0.00000000000E+00  0.00000000000E+00  0.45593999997E+02  0.45594000000E+02  0.51100000000E-03 0.  1.
         11   -1    0    0    0    0 -0.00000000000E+00 -0.00000000000E+00 -0.45593999997E+02  0.45594000000E+02  0.51100000000E-03 0. -1.
    9900012    2    1    2    0    0 -0.33820592334E+02  0.21315316351E+02 -0.74155534890E+01  0.50528860677E+02  0.30000002514E+02 0.  0.
        -12    1    1    2    0    0  0.33820592334E+02 -0.21315316351E+02  0.74155534890E+01  0.40659139323E+02  0.00000000000E+00 0.  1.
         11    1    3    3    0    0 -0.10788606889E+02  0.17035239714E+02 -0.55191287188E+01  0.20905841595E+02  0.51100000000E-03 0. -1.
        -11    1    3    3    0    0 -0.98688614745E+01  0.67222866928E+01 -0.85371146442E+01  0.14678756483E+02  0.51100000000E-03 0.  1.
         12    1    3    3    0    0 -0.13163123970E+02 -0.24422100561E+01  0.66406898740E+01  0.14944262599E+02  0.00000000000E+00 0. -1.
</event>
<event>
 7    1  0.2817603E-011  0.5052886E+02  0.7816164E-02  0.1300439E+00
        -11   -1    0    0    0    0  0.00000000000E+00  0.00000000000E+00  0.45593999997E+02  0.45594000000E+02  0.51100000000E-03 0.  1.
         11   -1    0    0    0    0 -0.00000000000E+00 -0.00000000000E+00 -0.45593999997E+02  0.45594000000E+02  0.51100000000E-03 0. -1.
    9900012    2    1    2    0    0  0.18811235272E+02  0.19879369884E+02 -0.30068484515E+02  0.50528859817E+02  0.29999999900E+02 0.  0.
        -12    1    1    2    0    0 -0.18811235272E+02 -0.19879369884E+02  0.30068484515E+02  0.40659140183E+02  0.00000000000E+00 0.  1.
         11    1    3    3    0    0  0.11133376234E+02  0.40318376309E+01 -0.22503534824E+02  0.25428662193E+02  0.51100000000E-03 0. -1.
        -11    1    3    3    0    0  0.32214836069E+01 -0.34958543360E+00 -0.76424468167E+01  0.83010336834E+01  0.51100000000E-03 0.  1.
         12    1    3    3    0    0  0.44563754304E+01  0.16197117686E+02  0.77497126317E-01  0.16799163941E+02  0.00000000000E+00 0. -1.
</event>
<event>
 7    1  0.2817603E-011  0.5052886E+02  0.7816164E-02  0.1300439E+00
        -11   -1    0    0    0    0  0.00000000000E+00  0.00000000000E+00  0.45593999997E+02  0.45594000000E+02  0.51100000000E-03 0.  1.
         11   -1    0    0    0    0 -0.00000000000E+00 -0.00000000000E+00 -0.45593999997E+02  0.45594000000E+02  0.51100000000E-03 0. -1.
    9900012    2    1    2    0    0 -0.39261710518E+02 -0.62027670549E+01 -0.85562565527E+01  0.50528858861E+02  0.29999996995E+02 0.  0.
        -12    1    1    2    0    0  0.39261710518E+02  0.62027670549E+01  0.85562565527E+01  0.40659141139E+02  0.00000000000E+00 0.  1.
         11    1    3    3    0    0 -0.12483290155E+02 -0.98242270023E+00 -0.14508193924E+02  0.19164690935E+02  0.51100000000E-03 0. -1.
        -11    1    3    3    0    0  0.53005012695E-01 -0.27520316727E+01 -0.18454134700E+01  0.33139159608E+01  0.51100000000E-03 0.  1.
         12    1    3    3    0    0 -0.26831425375E+02 -0.24683126820E+01  0.77973508408E+01  0.28050251965E+02  0.00000000000E+00 0. -1.
</event>
<event>
 7    1  0.2817603E-011  0.5052877E+02  0.7816164E-02  0.1300439E+00
        -11   -1    0    0    0    0  0.00000000000E+00  0.00000000000E+00  0.45593999997E+02  0.45594000000E+02  0.51100000000E-03 0.  1.
         11   -1    0    0    0    0 -0.00000000000E+00 -0.00000000000E+00 -0.45593999997E+02  0.45594000000E+02  0.51100000000E-03 0. -1.
    9900012    2    1    2    0    0 -0.25565016865E+02  0.66944513997E+01 -0.30899634634E+02  0.50528767501E+02  0.29999719295E+02 0.  0.
        -12    1    1    2    0    0  0.25565016865E+02 -0.66944513997E+01  0.30899634634E+02  0.40659232499E+02  0.00000000000E+00 0.  1.
         11    1    3    3    0    0 -0.11617590801E+02  0.81463561851E+01 -0.10921423395E+02  0.17905558476E+02  0.51100000000E-03 0. -1.
        -11    1    3    3    0    0 -0.91736775200E+01  0.95810793110E+01 -0.13667113800E+02  0.19045824736E+02  0.51100000000E-03 0.  1.
        -12    1    3    3    0    0 -0.47737485445E+01 -0.11032984096E+02 -0.63110974393E+01  0.13577384289E+02  0.00000000000E+00 0.  1.
</event>
<event>
 7    1  0.2817603E-011  0.5052888E+02  0.7816164E-02  0.1300439E+00
        -11   -1    0    0    0    0  0.00000000000E+00  0.00000000000E+00  0.45593999997E+02  0.45594000000E+02  0.51100000000E-03 0. -1.
         11   -1    0    0    0    0 -0.00000000000E+00 -0.00000000000E+00 -0.45593999997E+02  0.45594000000E+02  0.51100000000E-03 0.  1.
    9900012    2    1    2    0    0  0.14381920277E+02  0.26315381048E+02  0.27455881545E+02  0.50528876276E+02  0.30000049930E+02 0.  0.
        -12    1    1    2    0    0 -0.14381920277E+02 -0.26315381048E+02 -0.27455881545E+02  0.40659123724E+02  0.00000000000E+00 0.  1.
         11    1    3    3    0    0  0.10829329806E+02  0.16007226133E+02  0.83867877711E+01  0.21067602661E+02  0.51100000000E-03 0. -1.
        -11    1    3    3    0    0  0.10229713983E+02  0.40611487596E+01  0.37628715607E+01  0.11631817573E+02  0.51100000000E-03 0.  1.
        -12    1    3    3    0    0 -0.66771235121E+01  0.62470061553E+01  0.15306222213E+02  0.17829456042E+02  0.00000000000E+00 0.  1.
</event>
<event>
 7    1  0.2817603E-011  0.5052886E+02  0.7816164E-02  0.1300439E+00
        -11   -1    0    0    0    0  0.00000000000E+00  0.00000000000E+00  0.45593999997E+02  0.45594000000E+02  0.51100000000E-03 0.  1.
         11   -1    0    0    0    0 -0.00000000000E+00 -0.00000000000E+00 -0.45593999997E+02  0.45594000000E+02  0.51100000000E-03 0. -1.
    9900012    2    1    2    0    0 -0.22864544486E+01  0.40313432198E+02 -0.47712234629E+01  0.50528864952E+02  0.30000015508E+02 0.  0.
        -12    1    1    2    0    0  0.22864544486E+01 -0.40313432198E+02  0.47712234629E+01  0.40659135048E+02  0.00000000000E+00 0.  1.
         11    1    3    3    0    0  0.16183207847E+01 -0.65552432885E-01  0.80061101294E+00  0.18067201053E+01  0.51100000000E-03 0. -1.
        -11    1    3    3    0    0  0.18096341192E+01 -0.16649558137E+01 -0.57905816185E+01  0.62910801337E+01  0.51100000000E-03 0.  1.
         12    1    3    3    0    0 -0.57144093525E+01  0.42043940445E+02  0.21874714265E+00  0.42431064713E+02  0.00000000000E+00 0. -1.
</event>
<event>
 7    1  0.2817603E-011  0.5052885E+02  0.7816164E-02  0.1300439E+00
        -11   -1    0    0    0    0  0.00000000000E+00  0.00000000000E+00  0.45593999997E+02  0.45594000000E+02  0.51100000000E-03 0.  1.
         11   -1    0    0    0    0 -0.00000000000E+00 -0.00000000000E+00 -0.45593999997E+02  0.45594000000E+02  0.51100000000E-03 0. -1.
    9900012    2    1    2    0    0 -0.14165609591E+02 -0.34102790636E+02 -0.17014749779E+02  0.50528849316E+02  0.29999967982E+02 0.  0.
        -12    1    1    2    0    0  0.14165609591E+02  0.34102790636E+02  0.17014749779E+02  0.40659150684E+02  0.00000000000E+00 0.  1.
         11    1    3    3    0    0 -0.20667932738E+02 -0.29424312637E+02 -0.15657540279E+02  0.39218773383E+02  0.51100000000E-03 0.  1.
        -11    1    3    3    0    0 -0.47363366561E+00 -0.30174857752E+01 -0.26255654900E+01  0.40277963772E+01  0.51100000000E-03 0. -1.
        -12    1    3    3    0    0  0.69759568122E+01 -0.16609922239E+01  0.12683559902E+01  0.72822795559E+01  0.00000000000E+00 0.  1.
</event>
<event>
 7    1  0.2817603E-011  0.5052887E+02  0.7816164E-02  0.1300439E+00
        -11   -1    0    0    0    0  0.00000000000E+00  0.00000000000E+00  0.45593999997E+02  0.45594000000E+02  0.51100000000E-03 0. -1.
         11   -1    0    0    0    0 -0.00000000000E+00 -0.00000000000E+00 -0.45593999997E+02  0.45594000000E+02  0.51100000000E-03 0.  1.
    9900012    2    1    2    0    0  0.90637808443E+01  0.39289551158E+02  0.52291015300E+01  0.50528874872E+02  0.30000045659E+02 0.  0.
        -12    1    1    2    0    0 -0.90637808443E+01 -0.39289551158E+02 -0.52291015300E+01  0.40659125128E+02  0.00000000000E+00 0.  1.
         11    1    3    3    0    0  0.20166031758E+01 -0.27955818770E+01  0.45625154273E+01  0.57182614215E+01  0.51100000000E-03 0. -1.
        -11    1    3    3    0    0  0.58757003006E+01  0.18395691733E+02  0.65171079592E+01  0.20381315580E+02  0.51100000000E-03 0.  1.
        -12    1    3    3    0    0  0.11714773680E+01  0.23689441302E+02 -0.58505218564E+01  0.24429297870E+02  0.00000000000E+00 0.  1.
</event>
<event>
 7    1  0.2817603E-011  0.5052886E+02  0.7816164E-02  0.1300439E+00
        -11   -1    0    0    0    0  0.00000000000E+00  0.00000000000E+00  0.45593999997E+02  0.45594000000E+02  0.51100000000E-03 0. -1.
         11   -1    0    0    0    0 -0.00000000000E+00 -0.00000000000E+00 -0.45593999997E+02  0.45594000000E+02  0.51100000000E-03 0.  1.
    9900012    2    1    2    0    0 -0.17407345254E+02  0.27990694931E+02  0.23804855134E+02  0.50528858353E+02  0.29999995451E+02 0.  0.
        -12    1    1    2    0    0  0.17407345254E+02 -0.27990694931E+02 -0.23804855134E+02  0.40659141647E+02  0.00000000000E+00 0.  1.
         11    1    3    3    0    0  0.18960675443E+01  0.11702819508E+02  0.11359227631E+02  0.16418986241E+02  0.51100000000E-03 0. -1.
        -11    1    3    3    0    0  0.26079517331E+01  0.63732968877E+01 -0.29686393464E+00  0.68926376604E+01  0.51100000000E-03 0.  1.
         12    1    3    3    0    0 -0.21911364531E+02  0.99145785356E+01  0.12742491437E+02  0.27217234452E+02  0.00000000000E+00 0. -1.
</event>
<event>
 7    1  0.2817603E-011  0.5052886E+02  0.7816164E-02  0.1300439E+00
        -11   -1    0    0    0    0  0.00000000000E+00  0.00000000000E+00  0.45593999997E+02  0.45594000000E+02  0.51100000000E-03 0.  1.
         11   -1    0    0    0    0 -0.00000000000E+00 -0.00000000000E+00 -0.45593999997E+02  0.45594000000E+02  0.51100000000E-03 0. -1.
    9900012    2    1    2    0    0 -0.24206299580E+02  0.16683887428E+02 -0.28086807400E+02  0.50528858482E+02  0.29999995842E+02 0.  0.
        -12    1    1    2    0    0  0.24206299580E+02 -0.16683887428E+02  0.28086807400E+02  0.40659141518E+02  0.00000000000E+00 0.  1.
         11    1    3    3    0    0 -0.11695539646E+02  0.85924389042E+00 -0.19554120266E+02  0.22801043120E+02  0.51100000000E-03 0. -1.
        -11    1    3    3    0    0 -0.58610846985E+01  0.94800365772E+01 -0.13317492723E+02  0.17366030635E+02  0.51100000000E-03 0.  1.
         12    1    3    3    0    0 -0.66496752350E+01  0.63446069600E+01  0.47848055889E+01  0.10361784727E+02  0.00000000000E+00 0. -1.
</event>
<event>
 7    1  0.2817603E-011  0.5052887E+02  0.7816164E-02  0.1300439E+00
        -11   -1    0    0    0    0  0.00000000000E+00  0.00000000000E+00  0.45593999997E+02  0.45594000000E+02  0.51100000000E-03 0.  1.
         11   -1    0    0    0    0 -0.00000000000E+00 -0.00000000000E+00 -0.45593999997E+02  0.45594000000E+02  0.51100000000E-03 0. -1.
    9900012    2    1    2    0    0  0.37634589225E+02 -0.60704458825E+01  0.14140460625E+02  0.50528865159E+02  0.30000016137E+02 0.  0.
        -12    1    1    2    0    0 -0.37634589225E+02  0.60704458825E+01 -0.14140460625E+02  0.40659134841E+02  0.00000000000E+00 0.  1.
         11    1    3    3    0    0  0.25829759193E+02 -0.37021741687E+01  0.16816925912E+02  0.31043381757E+02  0.51100000000E-03 0. -1.
        -11    1    3    3    0    0  0.47853779058E+01 -0.86335057306E+01 -0.91663640041E+00  0.99135001616E+01  0.51100000000E-03 0.  1.
         12    1    3    3    0    0  0.70194521260E+01  0.62652340168E+01 -0.17598288864E+01  0.95719832399E+01  0.00000000000E+00 0. -1.
</event>
<event>
 7    1  0.2817603E-011  0.5052886E+02  0.7816164E-02  0.1300439E+00
        -11   -1    0    0    0    0  0.00000000000E+00  0.00000000000E+00  0.45593999997E+02  0.45594000000E+02  0.51100000000E-03 0. -1.
         11   -1    0    0    0    0 -0.00000000000E+00 -0.00000000000E+00 -0.45593999997E+02  0.45594000000E+02  0.51100000000E-03 0.  1.
    9900012    2    1    2    0    0  0.16991942042E+02 -0.36938247990E+02 -0.70849393895E-01  0.50528864758E+02  0.30000014920E+02 0.  0.
        -12    1    1    2    0    0 -0.16991942042E+02  0.36938247990E+02  0.70849393895E-01  0.40659135242E+02  0.00000000000E+00 0.  1.
         11    1    3    3    0    0  0.10506767637E+02 -0.30688579745E+02  0.33078439209E+01  0.32605565853E+02  0.51100000000E-03 0. -1.
        -11    1    3    3    0    0  0.25292665629E+01 -0.21337748179E+01  0.60530015665E+01  0.68984790023E+01  0.51100000000E-03 0.  1.
         12    1    3    3    0    0  0.39559078416E+01 -0.41158934276E+01 -0.94316948813E+01  0.11024819903E+02  0.00000000000E+00 0. -1.
</event>
<event>
 7    1  0.2817603E-011  0.5052887E+02  0.7816164E-02  0.1300439E+00
        -11   -1    0    0    0    0  0.00000000000E+00  0.00000000000E+00  0.45593999997E+02  0.45594000000E+02  0.51100000000E-03 0.  1.
         11   -1    0    0    0    0 -0.00000000000E+00 -0.00000000000E+00 -0.45593999997E+02  0.45594000000E+02  0.51100000000E-03 0. -1.
    9900012    2    1    2    0    0  0.12343648149E+02 -0.17224024864E+02 -0.34700607459E+02  0.50528870150E+02  0.30000031306E+02 0.  0.
        -12    1    1    2    0    0 -0.12343648149E+02  0.17224024864E+02  0.34700607459E+02  0.40659129850E+02  0.00000000000E+00 0.  1.
         11    1    3    3    0    0  0.73744705937E+01 -0.31643587824E+01 -0.20328805020E+01  0.82781994683E+01  0.51100000000E-03 0. -1.
        -11    1    3    3    0    0  0.50295486890E+01 -0.10239627667E+02 -0.22926414119E+01  0.11636259695E+02  0.51100000000E-03 0.  1.
        -12    1    3    3    0    0 -0.60371133374E-01 -0.38200384144E+01 -0.30375085546E+02  0.30614410987E+02  0.00000000000E+00 0.  1.
</event>
<event>
 7    1  0.2817603E-011  0.5052886E+02  0.7816164E-02  0.1300439E+00
        -11   -1    0    0    0    0  0.00000000000E+00  0.00000000000E+00  0.45593999997E+02  0.45594000000E+02  0.51100000000E-03 0.  1.
         11   -1    0    0    0    0 -0.00000000000E+00 -0.00000000000E+00 -0.45593999997E+02  0.45594000000E+02  0.51100000000E-03 0. -1.
    9900012    2    1    2    0    0 -0.16543595264E+02  0.29662891394E+02 -0.22351470022E+02  0.50528857335E+02  0.29999992356E+02 0.  0.
        -12    1    1    2    0    0  0.16543595264E+02 -0.29662891394E+02  0.22351470022E+02  0.40659142665E+02  0.00000000000E+00 0.  1.
         11    1    3    3    0    0 -0.10411932083E+02  0.88855695163E+01 -0.11812255506E+02  0.18080128753E+02  0.51100000000E-03 0. -1.
        -11    1    3    3    0    0 -0.25231564033E+01 -0.43675573278E+01 -0.27679161310E+00  0.50515828317E+01  0.51100000000E-03 0.  1.
        -12    1    3    3    0    0 -0.36085067774E+01  0.25144879206E+02 -0.10262422902E+02  0.27397145750E+02  0.00000000000E+00 0.  1.
</event>
<event>
 7    1  0.2817603E-011  0.5052886E+02  0.7816164E-02  0.1300439E+00
        -11   -1    0    0    0    0  0.00000000000E+00  0.00000000000E+00  0.45593999997E+02  0.45594000000E+02  0.51100000000E-03 0.  1.
         11   -1    0    0    0    0 -0.00000000000E+00 -0.00000000000E+00 -0.45593999997E+02  0.45594000000E+02  0.51100000000E-03 0. -1.
    9900012    2    1    2    0    0 -0.27192368868E+02  0.19425379798E+02 -0.23160209131E+02  0.50528860905E+02  0.30000003207E+02 0.  0.
        -12    1    1    2    0    0  0.27192368868E+02 -0.19425379798E+02  0.23160209131E+02  0.40659139095E+02  0.00000000000E+00 0.  1.
         11    1    3    3    0    0  0.78286684486E+00 -0.41411193196E-01  0.24391020260E+00  0.82102852067E+00  0.51100000000E-03 0. -1.
        -11    1    3    3    0    0 -0.27902133459E+01  0.28205983742E+01  0.62420121622E+01  0.73962004974E+01  0.51100000000E-03 0.  1.
         12    1    3    3    0    0 -0.25185022367E+02  0.16646192617E+02 -0.29646131496E+02  0.42311631887E+02  0.00000000000E+00 0. -1.
</event>
<event>
 7    1  0.2817603E-011  0.5052884E+02  0.7816164E-02  0.1300439E+00
        -11   -1    0    0    0    0  0.00000000000E+00  0.00000000000E+00  0.45593999997E+02  0.45594000000E+02  0.51100000000E-03 0. -1.
         11   -1    0    0    0    0 -0.00000000000E+00 -0.00000000000E+00 -0.45593999997E+02  0.45594000000E+02  0.51100000000E-03 0.  1.
    9900012    2    1    2    0    0 -0.16620111333E+02 -0.23109142841E+02  0.29032851813E+02  0.50528842754E+02  0.29999948035E+02 0.  0.
        -12    1    1    2    0    0  0.16620111333E+02  0.23109142841E+02 -0.29032851813E+02  0.40659157246E+02  0.00000000000E+00 0.  1.
         11    1    3    3    0    0 -0.24284544976E+01 -0.21766716950E+02  0.23074920405E+02  0.31814136952E+02  0.51100000000E-03 0. -1.
        -11    1    3    3    0    0 -0.73172945629E+01 -0.55987236642E+01  0.10917977257E+01  0.92779593081E+01  0.51100000000E-03 0.  1.
        -12    1    3    3    0    0 -0.68743622720E+01  0.42562977729E+01  0.48661336827E+01  0.94367464942E+01  0.00000000000E+00 0.  1.
</event>
<event>
 7    1  0.2817603E-011  0.5052886E+02  0.7816164E-02  0.1300439E+00
        -11   -1    0    0    0    0  0.00000000000E+00  0.00000000000E+00  0.45593999997E+02  0.45594000000E+02  0.51100000000E-03 0. -1.
         11   -1    0    0    0    0 -0.00000000000E+00 -0.00000000000E+00 -0.45593999997E+02  0.45594000000E+02  0.51100000000E-03 0.  1.
    9900012    2    1    2    0    0  0.30281291358E+02 -0.13604764537E+02  0.23475941245E+02  0.50528855374E+02  0.29999986393E+02 0.  0.
        -12    1    1    2    0    0 -0.30281291358E+02  0.13604764537E+02 -0.23475941245E+02  0.40659144626E+02  0.00000000000E+00 0.  1.
         11    1    3    3    0    0  0.19399592213E+00 -0.10175293557E+02  0.68763501046E+01  0.12282443748E+02  0.51100000000E-03 0. -1.
        -11    1    3    3    0    0  0.62644136829E+01 -0.80121367722E+01  0.42266756107E+01  0.11013718783E+02  0.51100000000E-03 0.  1.
        -12    1    3    3    0    0  0.23822881753E+02  0.45826657925E+01  0.12372915530E+02  0.27232692843E+02  0.00000000000E+00 0.  1.
</event>
<event>
 7    1  0.2817603E-011  0.5052886E+02  0.7816164E-02  0.1300439E+00
        -11   -1    0    0    0    0  0.00000000000E+00  0.00000000000E+00  0.45593999997E+02  0.45594000000E+02  0.51100000000E-03 0.  1.
         11   -1    0    0    0    0 -0.00000000000E+00 -0.00000000000E+00 -0.45593999997E+02  0.45594000000E+02  0.51100000000E-03 0. -1.
    9900012    2    1    2    0    0  0.62871473651E+01  0.29359155815E+02 -0.27416730155E+02  0.50528863948E+02  0.30000012455E+02 0.  0.
        -12    1    1    2    0    0 -0.62871473651E+01 -0.29359155815E+02  0.27416730155E+02  0.40659136052E+02  0.00000000000E+00 0.  1.
         11    1    3    3    0    0  0.12702875639E+02  0.18584088184E+02 -0.26675699173E+02  0.34904502715E+02  0.51100000000E-03 0. -1.
        -11    1    3    3    0    0  0.19936657258E+01  0.48017001959E+01 -0.10528023678E+01  0.53046602987E+01  0.51100000000E-03 0.  1.
        -12    1    3    3    0    0 -0.84093940001E+01  0.59733674354E+01  0.31177138675E+00  0.10319700934E+02  0.00000000000E+00 0.  1.
</event>
<event>
 7    1  0.2817603E-011  0.5052887E+02  0.7816164E-02  0.1300439E+00
        -11   -1    0    0    0    0  0.00000000000E+00  0.00000000000E+00  0.45593999997E+02  0.45594000000E+02  0.51100000000E-03 0. -1.
         11   -1    0    0    0    0 -0.00000000000E+00 -0.00000000000E+00 -0.45593999997E+02  0.45594000000E+02  0.51100000000E-03 0.  1.
    9900012    2    1    2    0    0  0.23422976802E+02 -0.32184325400E+02  0.82884549479E+01  0.50528866597E+02  0.30000020507E+02 0.  0.
        -12    1    1    2    0    0 -0.23422976802E+02  0.32184325400E+02 -0.82884549479E+01  0.40659133403E+02  0.00000000000E+00 0.  1.
         11    1    3    3    0    0 -0.18742491664E-01 -0.41248215185E+01  0.71679751602E+01  0.82700889958E+01  0.51100000000E-03 0. -1.
        -11    1    3    3    0    0  0.12552692330E+02 -0.39501863569E+01 -0.65711530641E+01  0.14708980585E+02  0.51100000000E-03 0.  1.
         12    1    3    3    0    0  0.10889026963E+02 -0.24109317524E+02  0.76916328518E+01  0.27549797016E+02  0.00000000000E+00 0. -1.
</event>
<event>
 7    1  0.2817603E-011  0.5052886E+02  0.7816164E-02  0.1300439E+00
        -11   -1    0    0    0    0  0.00000000000E+00  0.00000000000E+00  0.45593999997E+02  0.45594000000E+02  0.51100000000E-03 0.  1.
         11   -1    0    0    0    0 -0.00000000000E+00 -0.00000000000E+00 -0.45593999997E+02  0.45594000000E+02  0.51100000000E-03 0. -1.
    9900012    2    1    2    0    0 -0.14693439236E+01  0.49154731899E+01 -0.40334165826E+02  0.50528858579E+02  0.29999996137E+02 0.  0.
        -12    1    1    2    0    0  0.14693439236E+01 -0.49154731899E+01  0.40334165826E+02  0.40659141421E+02  0.00000000000E+00 0.  1.
         11    1    3    3    0    0  0.98425460193E+01 -0.30705031888E+01 -0.26528757118E+02  0.28461880761E+02  0.51100000000E-03 0. -1.
        -11    1    3    3    0    0 -0.28502225359E-01 -0.19228787081E+01 -0.46038354803E+00  0.19774296891E+01  0.51100000000E-03 0.  1.
        -12    1    3    3    0    0 -0.11283387718E+02  0.99088550868E+01 -0.13345025160E+02  0.20089548129E+02  0.00000000000E+00 0.  1.
</event>
<event>
 7    1  0.2817603E-011  0.5052886E+02  0.7816164E-02  0.1300439E+00
        -11   -1    0    0    0    0  0.00000000000E+00  0.00000000000E+00  0.45593999997E+02  0.45594000000E+02  0.51100000000E-03 0. -1.
         11   -1    0    0    0    0 -0.00000000000E+00 -0.00000000000E+00 -0.45593999997E+02  0.45594000000E+02  0.51100000000E-03 0.  1.
    9900012    2    1    2    0    0 -0.18697011394E+02 -0.13117602305E+02  0.33638012795E+02  0.50528860436E+02  0.30000001781E+02 0.  0.
        -12    1    1    2    0    0  0.18697011394E+02  0.13117602305E+02 -0.33638012795E+02  0.40659139564E+02  0.00000000000E+00 0.  1.
         11    1    3    3    0    0 -0.12927142813E+02 -0.89179465198E+01  0.14663638493E+02  0.21486346491E+02  0.51100000000E-03 0. -1.
        -11    1    3    3    0    0 -0.12581315526E+02 -0.52128949292E+01  0.72062543768E+01  0.15407591516E+02  0.51100000000E-03 0.  1.
         12    1    3    3    0    0  0.68114469454E+01  0.10132391444E+01  0.11768119925E+02  0.13634922429E+02  0.00000000000E+00 0. -1.
</event>
<event>
 7    1  0.2817603E-011  0.5052886E+02  0.7816164E-02  0.1300439E+00
        -11   -1    0    0    0    0  0.00000000000E+00  0.00000000000E+00  0.45593999997E+02  0.45594000000E+02  0.51100000000E-03 0.  1.
         11   -1    0    0    0    0 -0.00000000000E+00 -0.00000000000E+00 -0.45593999997E+02  0.45594000000E+02  0.51100000000E-03 0. -1.
    9900012    2    1    2    0    0 -0.11283177239E+02 -0.38933848499E+02 -0.31640260507E+01  0.50528859473E+02  0.29999998853E+02 0.  0.
        -12    1    1    2    0    0  0.11283177239E+02  0.38933848499E+02  0.31640260507E+01  0.40659140527E+02  0.00000000000E+00 0.  1.
         11    1    3    3    0    0 -0.36131196598E+01 -0.10660277042E+02  0.44561110292E+00  0.11264755203E+02  0.51100000000E-03 0. -1.
        -11    1    3    3    0    0  0.16530302156E+01 -0.18370086863E+02  0.91724137536E+01  0.20599169269E+02  0.51100000000E-03 0.  1.
         12    1    3    3    0    0 -0.93230877949E+01 -0.99034845944E+01 -0.12782050907E+02  0.18664935000E+02  0.00000000000E+00 0. -1.
</event>
<event>
 7    1  0.2817603E-011  0.5052886E+02  0.7816164E-02  0.1300439E+00
        -11   -1    0    0    0    0  0.00000000000E+00  0.00000000000E+00  0.45593999997E+02  0.45594000000E+02  0.51100000000E-03 0.  1.
         11   -1    0    0    0    0 -0.00000000000E+00 -0.00000000000E+00 -0.45593999997E+02  0.45594000000E+02  0.51100000000E-03 0. -1.
    9900012    2    1    2    0    0  0.26339180925E+02  0.22352889517E+02 -0.21442043411E+02  0.50528863915E+02  0.30000012355E+02 0.  0.
        -12    1    1    2    0    0 -0.26339180925E+02 -0.22352889517E+02  0.21442043411E+02  0.40659136085E+02  0.00000000000E+00 0.  1.
         11    1    3    3    0    0  0.86341298254E+01  0.10834330429E+02 -0.11059568513E+02  0.17726956017E+02  0.51100000000E-03 0. -1.
        -11    1    3    3    0    0  0.96640622716E+01  0.15162481738E+02  0.14502656483E+01  0.18038797708E+02  0.51100000000E-03 0.  1.
         12    1    3    3    0    0  0.80409888282E+01 -0.36439226500E+01 -0.11832740546E+02  0.14763110189E+02  0.00000000000E+00 0. -1.
</event>
<event>
 7    1  0.2817603E-011  0.5052886E+02  0.7816164E-02  0.1300439E+00
        -11   -1    0    0    0    0  0.00000000000E+00  0.00000000000E+00  0.45593999997E+02  0.45594000000E+02  0.51100000000E-03 0. -1.
         11   -1    0    0    0    0 -0.00000000000E+00 -0.00000000000E+00 -0.45593999997E+02  0.45594000000E+02  0.51100000000E-03 0.  1.
    9900012    2    1    2    0    0 -0.83727876946E+00 -0.21689383372E+02  0.34380741531E+02  0.50528858654E+02  0.29999996365E+02 0.  0.
        -12    1    1    2    0    0  0.83727876946E+00  0.21689383372E+02 -0.34380741531E+02  0.40659141346E+02  0.00000000000E+00 0.  1.
         11    1    3    3    0    0 -0.81473123536E+00 -0.17330954954E+01  0.36003520555E+01  0.40779826099E+01  0.51100000000E-03 0. -1.
        -11    1    3    3    0    0 -0.10167844025E+02 -0.19679907766E+02  0.12224010670E+02  0.25300400371E+02  0.51100000000E-03 0.  1.
         12    1    3    3    0    0  0.10145296491E+02 -0.27638011091E+00  0.18556378805E+02  0.21150475673E+02  0.00000000000E+00 0. -1.
</event>
<event>
 7    1  0.2817603E-011  0.5052883E+02  0.7816164E-02  0.1300439E+00
        -11   -1    0    0    0    0  0.00000000000E+00  0.00000000000E+00  0.45593999997E+02  0.45594000000E+02  0.51100000000E-03 0.  1.
         11   -1    0    0    0    0 -0.00000000000E+00 -0.00000000000E+00 -0.45593999997E+02  0.45594000000E+02  0.51100000000E-03 0. -1.
    9900012    2    1    2    0    0  0.25334655288E+02 -0.10440637410E+02 -0.30038578203E+02  0.50528833155E+02  0.29999918858E+02 0.  0.
        -12    1    1    2    0    0 -0.25334655288E+02  0.10440637410E+02  0.30038578203E+02  0.40659166845E+02  0.00000000000E+00 0.  1.
         11    1    3    3    0    0  0.92163699643E+01 -0.53019458183E+01 -0.88541413456E+01  0.13836470793E+02  0.51100000000E-03 0. -1.
        -11    1    3    3    0    0  0.15531425967E+02 -0.13582232609E+02 -0.18764699762E+02  0.27889356261E+02  0.51100000000E-03 0.  1.
        -12    1    3    3    0    0  0.58685935662E+00  0.84435410168E+01 -0.24197370946E+01  0.88030061010E+01  0.00000000000E+00 0.  1.
</event>
<event>
 7    1  0.2817603E-011  0.5052885E+02  0.7816164E-02  0.1300439E+00
        -11   -1    0    0    0    0  0.00000000000E+00  0.00000000000E+00  0.45593999997E+02  0.45594000000E+02  0.51100000000E-03 0.  1.
         11   -1    0    0    0    0 -0.00000000000E+00 -0.00000000000E+00 -0.45593999997E+02  0.45594000000E+02  0.51100000000E-03 0. -1.
    9900012    2    1    2    0    0 -0.60663690318E+01 -0.71651297179E+00 -0.40197665059E+02  0.50528849735E+02  0.29999969255E+02 0.  0.
        -12    1    1    2    0    0  0.60663690318E+01  0.71651297179E+00  0.40197665059E+02  0.40659150265E+02  0.00000000000E+00 0.  1.
         11    1    3    3    0    0 -0.20783985100E+01  0.69569286259E+01 -0.11998932666E+02  0.14024727507E+02  0.51100000000E-03 0.  1.
        -11    1    3    3    0    0  0.28536969410E+01  0.35947704693E+01 -0.20976508631E+02  0.21472770561E+02  0.51100000000E-03 0. -1.
         12    1    3    3    0    0 -0.68416674628E+01 -0.11268212067E+02 -0.72222237615E+01  0.15031351666E+02  0.00000000000E+00 0. -1.
</event>
<event>
 7    1  0.2817603E-011  0.5052888E+02  0.7816164E-02  0.1300439E+00
        -11   -1    0    0    0    0  0.00000000000E+00  0.00000000000E+00  0.45593999997E+02  0.45594000000E+02  0.51100000000E-03 0.  1.
         11   -1    0    0    0    0 -0.00000000000E+00 -0.00000000000E+00 -0.45593999997E+02  0.45594000000E+02  0.51100000000E-03 0. -1.
    9900012    2    1    2    0    0  0.11240962151E+02  0.17751465340E+02 -0.34809342980E+02  0.50528879123E+02  0.30000058583E+02 0.  0.
        -12    1    1    2    0    0 -0.11240962151E+02 -0.17751465340E+02  0.34809342980E+02  0.40659120877E+02  0.00000000000E+00 0.  1.
         11    1    3    3    0    0  0.11247005708E+02 -0.21241573173E+01 -0.97808858558E+01  0.15055660400E+02  0.51100000000E-03 0. -1.
        -11    1    3    3    0    0 -0.22346934511E+01 -0.20863867296E+01 -0.27944072702E+01  0.41419290987E+01  0.51100000000E-03 0.  1.
         12    1    3    3    0    0  0.22286498950E+01  0.21962009387E+02 -0.22234049854E+02  0.31331289625E+02  0.00000000000E+00 0. -1.
</event>
<event>
 7    1  0.2817603E-011  0.5052885E+02  0.7816164E-02  0.1300439E+00
        -11   -1    0    0    0    0  0.00000000000E+00  0.00000000000E+00  0.45593999997E+02  0.45594000000E+02  0.51100000000E-03 0. -1.
         11   -1    0    0    0    0 -0.00000000000E+00 -0.00000000000E+00 -0.45593999997E+02  0.45594000000E+02  0.51100000000E-03 0.  1.
    9900012    2    1    2    0    0  0.36142858543E+02  0.15831252679E+02  0.98097930466E+01  0.50528845746E+02  0.29999957129E+02 0.  0.
        -12    1    1    2    0    0 -0.36142858543E+02 -0.15831252679E+02 -0.98097930466E+01  0.40659154254E+02  0.00000000000E+00 0.  1.
         11    1    3    3    0    0  0.23211408618E+02  0.17458184102E+02  0.52708158007E+01  0.29518454933E+02  0.51100000000E-03 0. -1.
        -11    1    3    3    0    0  0.59210044348E+01  0.45671236055E+01 -0.38804970886E+01  0.84246762229E+01  0.51100000000E-03 0.  1.
        -12    1    3    3    0    0  0.70104454902E+01 -0.61940550286E+01  0.84194743345E+01  0.12585714590E+02  0.00000000000E+00 0.  1.
</event>
<event>
 7    1  0.2817603E-011  0.5052887E+02  0.7816164E-02  0.1300439E+00
        -11   -1    0    0    0    0  0.00000000000E+00  0.00000000000E+00  0.45593999997E+02  0.45594000000E+02  0.51100000000E-03 0.  1.
         11   -1    0    0    0    0 -0.00000000000E+00 -0.00000000000E+00 -0.45593999997E+02  0.45594000000E+02  0.51100000000E-03 0. -1.
    9900012    2    1    2    0    0  0.14101526772E+02 -0.14549383475E+02 -0.35250923984E+02  0.50528865006E+02  0.30000015671E+02 0.  0.
        -12    1    1    2    0    0 -0.14101526772E+02  0.14549383475E+02  0.35250923984E+02  0.40659134994E+02  0.00000000000E+00 0.  1.
         11    1    3    3    0    0  0.59894036608E+01  0.56714638698E+01 -0.84141612400E+01  0.11782893035E+02  0.51100000000E-03 0. -1.
        -11    1    3    3    0    0  0.21598214248E+00  0.45793711074E+00 -0.12197271075E+02  0.12207775253E+02  0.51100000000E-03 0.  1.
        -12    1    3    3    0    0  0.78961409684E+01 -0.20678784455E+02 -0.14639491669E+02  0.26538196718E+02  0.00000000000E+00 0.  1.
</event>
<event>
 7    1  0.2817603E-011  0.5052885E+02  0.7816164E-02  0.1300439E+00
        -11   -1    0    0    0    0  0.00000000000E+00  0.00000000000E+00  0.45593999997E+02  0.45594000000E+02  0.51100000000E-03 0.  1.
         11   -1    0    0    0    0 -0.00000000000E+00 -0.00000000000E+00 -0.45593999997E+02  0.45594000000E+02  0.51100000000E-03 0. -1.
    9900012    2    1    2    0    0 -0.31022758134E+02 -0.13836094662E+02 -0.22345407800E+02  0.50528852352E+02  0.29999977208E+02 0.  0.
        -12    1    1    2    0    0  0.31022758134E+02  0.13836094662E+02  0.22345407800E+02  0.40659147648E+02  0.00000000000E+00 0.  1.
         11    1    3    3    0    0  0.21303999821E+01  0.31040561005E+01  0.10654951706E+01  0.39126779293E+01  0.51100000000E-03 0. -1.
        -11    1    3    3    0    0  0.53599807849E-01 -0.46618665817E+01 -0.44929190368E+01  0.64747351063E+01  0.51100000000E-03 0.  1.
         12    1    3    3    0    0 -0.33206757924E+02 -0.12278284181E+02 -0.18917983934E+02  0.40141439316E+02  0.00000000000E+00 0. -1.
</event>
<event>
 7    1  0.2817603E-011  0.5052889E+02  0.7816164E-02  0.1300439E+00
        -11   -1    0    0    0    0  0.00000000000E+00  0.00000000000E+00  0.45593999997E+02  0.45594000000E+02  0.51100000000E-03 0.  1.
         11   -1    0    0    0    0 -0.00000000000E+00 -0.00000000000E+00 -0.45593999997E+02  0.45594000000E+02  0.51100000000E-03 0. -1.
    9900012    2    1    2    0    0  0.35209643907E+02  0.44069091793E+01  0.19850023340E+02  0.50528889100E+02  0.30000088909E+02 0.  0.
        -12    1    1    2    0    0 -0.35209643907E+02 -0.44069091793E+01 -0.19850023340E+02  0.40659110900E+02  0.00000000000E+00 0.  1.
         11    1    3    3    0    0  0.20167836811E+02 -0.10456597544E+01  0.31881742690E+01  0.20445036106E+02  0.51100000000E-03 0. -1.
        -11    1    3    3    0    0  0.63716764176E+01 -0.65787610449E+01  0.10741615171E+02  0.14115971593E+02  0.51100000000E-03 0.  1.
         12    1    3    3    0    0  0.86701306785E+01  0.12031329979E+02  0.59202338995E+01  0.15967881402E+02  0.00000000000E+00 0. -1.
</event>
<event>
 7    1  0.2817603E-011  0.5052879E+02  0.7816164E-02  0.1300439E+00
        -11   -1    0    0    0    0  0.00000000000E+00  0.00000000000E+00  0.45593999997E+02  0.45594000000E+02  0.51100000000E-03 0.  1.
         11   -1    0    0    0    0 -0.00000000000E+00 -0.00000000000E+00 -0.45593999997E+02  0.45594000000E+02  0.51100000000E-03 0. -1.
    9900012    2    1    2    0    0  0.53804450052E+01 -0.36015294241E+02 -0.18086470257E+02  0.50528794227E+02  0.29999800532E+02 0.  0.
        -12    1    1    2    0    0 -0.53804450052E+01  0.36015294241E+02  0.18086470257E+02  0.40659205773E+02  0.00000000000E+00 0.  1.
         11    1    3    3    0    0  0.63624515941E+01 -0.66661936072E+01 -0.47075929715E+01  0.10347964019E+02  0.51100000000E-03 0. -1.
        -11    1    3    3    0    0  0.28195065161E+01 -0.32829571558E+01 -0.13143809355E+02  0.13837888181E+02  0.51100000000E-03 0.  1.
        -12    1    3    3    0    0 -0.38015131050E+01 -0.26066143478E+02 -0.23506793017E+00  0.26342942027E+02  0.00000000000E+00 0.  1.
</event>
<event>
 7    1  0.2817603E-011  0.5052885E+02  0.7816164E-02  0.1300439E+00
        -11   -1    0    0    0    0  0.00000000000E+00  0.00000000000E+00  0.45593999997E+02  0.45594000000E+02  0.51100000000E-03 0.  1.
         11   -1    0    0    0    0 -0.00000000000E+00 -0.00000000000E+00 -0.45593999997E+02  0.45594000000E+02  0.51100000000E-03 0. -1.
    9900012    2    1    2    0    0 -0.22313760803E+01  0.38900370401E+02 -0.11616736084E+02  0.50528850799E+02  0.29999972487E+02 0.  0.
        -12    1    1    2    0    0  0.22313760803E+01 -0.38900370401E+02  0.11616736084E+02  0.40659149201E+02  0.00000000000E+00 0.  1.
         11    1    3    3    0    0 -0.15816395023E+01  0.35201991635E+01 -0.63228219137E+01  0.74075274471E+01  0.51100000000E-03 0. -1.
        -11    1    3    3    0    0  0.54557768158E+01 -0.11775690164E+01 -0.19267249669E+01  0.59046116563E+01  0.51100000000E-03 0.  1.
        -12    1    3    3    0    0 -0.61055133939E+01  0.36557740254E+02 -0.33671892035E+01  0.37216711695E+02  0.00000000000E+00 0.  1.
</event>
<event>
 7    1  0.2817603E-011  0.5052887E+02  0.7816164E-02  0.1300439E+00
        -11   -1    0    0    0    0  0.00000000000E+00  0.00000000000E+00  0.45593999997E+02  0.45594000000E+02  0.51100000000E-03 0.  1.
         11   -1    0    0    0    0 -0.00000000000E+00 -0.00000000000E+00 -0.45593999997E+02  0.45594000000E+02  0.51100000000E-03 0. -1.
    9900012    2    1    2    0    0 -0.30745426991E+01  0.35721482223E+02 -0.19175194415E+02  0.50528865899E+02  0.30000018386E+02 0.  0.
        -12    1    1    2    0    0  0.30745426991E+01 -0.35721482223E+02  0.19175194415E+02  0.40659134101E+02  0.00000000000E+00 0.  1.
         11    1    3    3    0    0 -0.11921415791E+02  0.64907122824E+01 -0.57728643559E+01  0.14750439435E+02  0.51100000000E-03 0. -1.
        -11    1    3    3    0    0 -0.25097066869E+01  0.90789909509E+01 -0.84262560793E+00  0.94570990539E+01  0.51100000000E-03 0.  1.
        -12    1    3    3    0    0  0.11356579779E+02  0.20151778990E+02 -0.12559704451E+02  0.26321327410E+02  0.00000000000E+00 0.  1.
</event>
<event>
 7    1  0.2817603E-011  0.5052886E+02  0.7816164E-02  0.1300439E+00
        -11   -1    0    0    0    0  0.00000000000E+00  0.00000000000E+00  0.45593999997E+02  0.45594000000E+02  0.51100000000E-03 0. -1.
         11   -1    0    0    0    0 -0.00000000000E+00 -0.00000000000E+00 -0.45593999997E+02  0.45594000000E+02  0.51100000000E-03 0.  1.
    9900012    2    1    2    0    0 -0.40115751248E+02 -0.26312223775E+01 -0.60801919568E+01  0.50528861254E+02  0.30000004267E+02 0.  0.
        -12    1    1    2    0    0  0.40115751248E+02  0.26312223775E+01  0.60801919568E+01  0.40659138746E+02  0.00000000000E+00 0.  1.
         11    1    3    3    0    0 -0.11757163527E+02  0.12386850062E+01 -0.83640974094E+01  0.14481828630E+02  0.51100000000E-03 0. -1.
        -11    1    3    3    0    0 -0.10759423828E+02  0.83737409696E+01 -0.30136800465E+01  0.13963058641E+02  0.51100000000E-03 0.  1.
         12    1    3    3    0    0 -0.17599163893E+02 -0.12243648353E+02  0.52975854990E+01  0.22083973982E+02  0.00000000000E+00 0. -1.
</event>
<event>
 7    1  0.2817603E-011  0.5052884E+02  0.7816164E-02  0.1300439E+00
        -11   -1    0    0    0    0  0.00000000000E+00  0.00000000000E+00  0.45593999997E+02  0.45594000000E+02  0.51100000000E-03 0.  1.
         11   -1    0    0    0    0 -0.00000000000E+00 -0.00000000000E+00 -0.45593999997E+02  0.45594000000E+02  0.51100000000E-03 0. -1.
    9900012    2    1    2    0    0  0.12352749854E+01  0.22607448169E+02 -0.33771946441E+02  0.50528843793E+02  0.29999951195E+02 0.  0.
        -12    1    1    2    0    0 -0.12352749854E+01 -0.22607448169E+02  0.33771946441E+02  0.40659156207E+02  0.00000000000E+00 0.  1.
         11    1    3    3    0    0 -0.25198446858E+01  0.12987785211E+02 -0.46649573858E+01  0.14028328824E+02  0.51100000000E-03 0. -1.
        -11    1    3    3    0    0 -0.60970818214E+00  0.13645696924E+02 -0.11293679694E+02  0.17723543379E+02  0.51100000000E-03 0.  1.
        -12    1    3    3    0    0  0.43648278533E+01 -0.40260339666E+01 -0.17813309362E+02  0.18776971590E+02  0.00000000000E+00 0.  1.
</event>
<event>
 7    1  0.2817603E-011  0.5052886E+02  0.7816164E-02  0.1300439E+00
        -11   -1    0    0    0    0  0.00000000000E+00  0.00000000000E+00  0.45593999997E+02  0.45594000000E+02  0.51100000000E-03 0. -1.
         11   -1    0    0    0    0 -0.00000000000E+00 -0.00000000000E+00 -0.45593999997E+02  0.45594000000E+02  0.51100000000E-03 0.  1.
    9900012    2    1    2    0    0  0.24382973613E+01 -0.20984713131E+02  0.34739922705E+02  0.50528859468E+02  0.29999998840E+02 0.  0.
        -12    1    1    2    0    0 -0.24382973613E+01  0.20984713131E+02 -0.34739922705E+02  0.40659140532E+02  0.00000000000E+00 0.  1.
         11    1    3    3    0    0 -0.48468931081E+01 -0.27279156228E+01  0.83403411338E+01  0.10024728771E+02  0.51100000000E-03 0. -1.
        -11    1    3    3    0    0 -0.91726483732E-01  0.53930223466E+01  0.20579868779E+01  0.57730766520E+01  0.51100000000E-03 0.  1.
         12    1    3    3    0    0  0.73769169530E+01 -0.23649819854E+02  0.24341594693E+02  0.34731054045E+02  0.00000000000E+00 0. -1.
</event>
<event>
 7    1  0.2817603E-011  0.5052889E+02  0.7816164E-02  0.1300439E+00
        -11   -1    0    0    0    0  0.00000000000E+00  0.00000000000E+00  0.45593999997E+02  0.45594000000E+02  0.51100000000E-03 0.  1.
         11   -1    0    0    0    0 -0.00000000000E+00 -0.00000000000E+00 -0.45593999997E+02  0.45594000000E+02  0.51100000000E-03 0. -1.
    9900012    2    1    2    0    0 -0.14085874260E+02 -0.10018546940E+00 -0.38141072880E+02  0.50528888706E+02  0.30000087710E+02 0.  0.
        -12    1    1    2    0    0  0.14085874260E+02  0.10018546940E+00  0.38141072880E+02  0.40659111294E+02  0.00000000000E+00 0.  1.
         11    1    3    3    0    0 -0.16837467207E+02  0.10487230048E+02 -0.25314470125E+02  0.32160607799E+02  0.51100000000E-03 0. -1.
        -11    1    3    3    0    0  0.14439476108E+01  0.71801115624E+00 -0.26448304255E+01  0.30976850976E+01  0.51100000000E-03 0.  1.
        -12    1    3    3    0    0  0.13076453363E+01 -0.11305426674E+02 -0.10181772330E+02  0.15270595809E+02  0.00000000000E+00 0.  1.
</event>
<event>
 7    1  0.2817603E-011  0.5052885E+02  0.7816164E-02  0.1300439E+00
        -11   -1    0    0    0    0  0.00000000000E+00  0.00000000000E+00  0.45593999997E+02  0.45594000000E+02  0.51100000000E-03 0.  1.
         11   -1    0    0    0    0 -0.00000000000E+00 -0.00000000000E+00 -0.45593999997E+02  0.45594000000E+02  0.51100000000E-03 0. -1.
    9900012    2    1    2    0    0  0.37096767719E+02 -0.15086315173E+02 -0.70284778589E+01  0.50528848733E+02  0.29999966210E+02 0.  0.
        -12    1    1    2    0    0 -0.37096767719E+02  0.15086315173E+02  0.70284778589E+01  0.40659151267E+02  0.00000000000E+00 0.  1.
         11    1    3    3    0    0  0.14831132650E+02 -0.80660087704E+01 -0.12735327907E+02  0.21147377386E+02  0.51100000000E-03 0. -1.
        -11    1    3    3    0    0 -0.16140067568E+01  0.23395019710E+01  0.19794207073E+01  0.34635810775E+01  0.51100000000E-03 0.  1.
        -12    1    3    3    0    0  0.23879641826E+02 -0.93598083740E+01  0.37274293405E+01  0.25917890270E+02  0.00000000000E+00 0.  1.
</event>
<event>
 7    1  0.2817603E-011  0.5052885E+02  0.7816164E-02  0.1300439E+00
        -11   -1    0    0    0    0  0.00000000000E+00  0.00000000000E+00  0.45593999997E+02  0.45594000000E+02  0.51100000000E-03 0.  1.
         11   -1    0    0    0    0 -0.00000000000E+00 -0.00000000000E+00 -0.45593999997E+02  0.45594000000E+02  0.51100000000E-03 0. -1.
    9900012    2    1    2    0    0 -0.21072640797E+01  0.16043542843E+02 -0.37300544025E+02  0.50528850803E+02  0.29999972502E+02 0.  0.
        -12    1    1    2    0    0  0.21072640797E+01 -0.16043542843E+02  0.37300544025E+02  0.40659149197E+02  0.00000000000E+00 0.  1.
         11    1    3    3    0    0 -0.25292662237E+01  0.71847537460E+01 -0.58373054530E+01  0.95964581609E+01  0.51100000000E-03 0. -1.
        -11    1    3    3    0    0  0.82857452246E+01  0.13661512994E+02 -0.14255264016E+02  0.21412684643E+02  0.51100000000E-03 0.  1.
        -12    1    3    3    0    0 -0.78637430806E+01 -0.48027238967E+01 -0.17207974556E+02  0.19519707999E+02  0.00000000000E+00 0.  1.
</event>
<event>
 7    1  0.2817603E-011  0.5052885E+02  0.7816164E-02  0.1300439E+00
        -11   -1    0    0    0    0  0.00000000000E+00  0.00000000000E+00  0.45593999997E+02  0.45594000000E+02  0.51100000000E-03 0. -1.
         11   -1    0    0    0    0 -0.00000000000E+00 -0.00000000000E+00 -0.45593999997E+02  0.45594000000E+02  0.51100000000E-03 0.  1.
    9900012    2    1    2    0    0  0.32166205642E+02  0.16265496053E+02 -0.18813158906E+02  0.50528854716E+02  0.29999984394E+02 0.  0.
        -12    1    1    2    0    0 -0.32166205642E+02 -0.16265496053E+02  0.18813158906E+02  0.40659145284E+02  0.00000000000E+00 0.  1.
         11    1    3    3    0    0  0.17811463529E+02 -0.34280996505E+01 -0.40340595555E+01  0.18581542913E+02  0.51100000000E-03 0. -1.
        -11    1    3    3    0    0 -0.23660660716E+01  0.43405157369E+00 -0.30224895495E+01  0.38629150601E+01  0.51100000000E-03 0.  1.
         12    1    3    3    0    0  0.16720808184E+02  0.19259544129E+02 -0.11756609801E+02  0.28084396743E+02  0.00000000000E+00 0. -1.
</event>
<event>
 7    1  0.2817603E-011  0.5052886E+02  0.7816164E-02  0.1300439E+00
        -11   -1    0    0    0    0  0.00000000000E+00  0.00000000000E+00  0.45593999997E+02  0.45594000000E+02  0.51100000000E-03 0.  1.
         11   -1    0    0    0    0 -0.00000000000E+00 -0.00000000000E+00 -0.45593999997E+02  0.45594000000E+02  0.51100000000E-03 0. -1.
    9900012    2    1    2    0    0  0.21844378128E+02  0.94939230327E+00 -0.34279544722E+02  0.50528863414E+02  0.30000010834E+02 0.  0.
        -12    1    1    2    0    0 -0.21844378128E+02 -0.94939230327E+00  0.34279544722E+02  0.40659136586E+02  0.00000000000E+00 0.  1.
         11    1    3    3    0    0 -0.18021243636E+01  0.73967441868E+01 -0.27455290252E+01  0.80930468105E+01  0.51100000000E-03 0. -1.
        -11    1    3    3    0    0  0.10849031705E+01 -0.49599834613E+01 -0.99826380685E+01  0.11199621150E+02  0.51100000000E-03 0.  1.
         12    1    3    3    0    0  0.22561599322E+02 -0.14873684222E+01 -0.21551377628E+02  0.31236195454E+02  0.00000000000E+00 0. -1.
</event>
<event>
 7    1  0.2817603E-011  0.5052886E+02  0.7816164E-02  0.1300439E+00
        -11   -1    0    0    0    0  0.00000000000E+00  0.00000000000E+00  0.45593999997E+02  0.45594000000E+02  0.51100000000E-03 0. -1.
         11   -1    0    0    0    0 -0.00000000000E+00 -0.00000000000E+00 -0.45593999997E+02  0.45594000000E+02  0.51100000000E-03 0.  1.
    9900012    2    1    2    0    0 -0.20725703623E+02  0.34479444840E+00  0.34978451170E+02  0.50528859329E+02  0.29999998416E+02 0.  0.
        -12    1    1    2    0    0  0.20725703623E+02 -0.34479444840E+00 -0.34978451170E+02  0.40659140671E+02  0.00000000000E+00 0.  1.
         11    1    3    3    0    0 -0.11541183859E+02 -0.18220651154E+01  0.23393713720E+02  0.26149277008E+02  0.51100000000E-03 0. -1.
        -11    1    3    3    0    0 -0.11875432977E+01 -0.32281022272E+01  0.14015524459E+02  0.14431418128E+02  0.51100000000E-03 0.  1.
        -12    1    3    3    0    0 -0.79969764667E+01  0.53949617910E+01 -0.24307870090E+01  0.99481641934E+01  0.00000000000E+00 0.  1.
</event>
<event>
 7    1  0.2817603E-011  0.5052886E+02  0.7816164E-02  0.1300439E+00
        -11   -1    0    0    0    0  0.00000000000E+00  0.00000000000E+00  0.45593999997E+02  0.45594000000E+02  0.51100000000E-03 0. -1.
         11   -1    0    0    0    0 -0.00000000000E+00 -0.00000000000E+00 -0.45593999997E+02  0.45594000000E+02  0.51100000000E-03 0.  1.
    9900012    2    1    2    0    0 -0.26769501324E+02  0.22265350930E+02  0.20995552995E+02  0.50528864511E+02  0.30000014166E+02 0.  0.
        -12    1    1    2    0    0  0.26769501324E+02 -0.22265350930E+02 -0.20995552995E+02  0.40659135489E+02  0.00000000000E+00 0.  1.
         11    1    3    3    0    0 -0.16733874264E+02 -0.89705997233E+00  0.67129883139E+01  0.18052464564E+02  0.51100000000E-03 0. -1.
        -11    1    3    3    0    0 -0.85299703186E+01  0.56354997488E+01  0.69243700910E+00  0.10246888324E+02  0.51100000000E-03 0.  1.
         12    1    3    3    0    0 -0.15056567413E+01  0.17526911154E+02  0.13590127672E+02  0.22229511622E+02  0.00000000000E+00 0. -1.
</event>
<event>
 7    1  0.2817603E-011  0.5052886E+02  0.7816164E-02  0.1300439E+00
        -11   -1    0    0    0    0  0.00000000000E+00  0.00000000000E+00  0.45593999997E+02  0.45594000000E+02  0.51100000000E-03 0.  1.
         11   -1    0    0    0    0 -0.00000000000E+00 -0.00000000000E+00 -0.45593999997E+02  0.45594000000E+02  0.51100000000E-03 0. -1.
    9900012    2    1    2    0    0  0.14722558916E+02  0.81345953723E+01 -0.37016753102E+02  0.50528863350E+02  0.30000010639E+02 0.  0.
        -12    1    1    2    0    0 -0.14722558916E+02 -0.81345953723E+01  0.37016753102E+02  0.40659136650E+02  0.00000000000E+00 0.  1.
         11    1    3    3    0    0  0.75406708112E+01 -0.71934231689E+00 -0.24781303032E+01  0.79699623408E+01  0.51100000000E-03 0. -1.
        -11    1    3    3    0    0 -0.51703046557E+00  0.35330804544E+01  0.24982686474E+01  0.43579036813E+01  0.51100000000E-03 0.  1.
         12    1    3    3    0    0  0.76989185706E+01  0.53208572348E+01 -0.37036891446E+02  0.38200997328E+02  0.00000000000E+00 0. -1.
</event>
<event>
 7    1  0.2817603E-011  0.5052876E+02  0.7816164E-02  0.1300439E+00
        -11   -1    0    0    0    0  0.00000000000E+00  0.00000000000E+00  0.45593999997E+02  0.45594000000E+02  0.51100000000E-03 0.  1.
         11   -1    0    0    0    0 -0.00000000000E+00 -0.00000000000E+00 -0.45593999997E+02  0.45594000000E+02  0.51100000000E-03 0. -1.
    9900012    2    1    2    0    0  0.18177070235E+02 -0.12916122859E+02 -0.33999143620E+02  0.50528758997E+02  0.29999693447E+02 0.  0.
        -12    1    1    2    0    0 -0.18177070235E+02  0.12916122859E+02  0.33999143620E+02  0.40659241003E+02  0.00000000000E+00 0.  1.
         11    1    3    3    0    0  0.21836665187E+02 -0.64532444081E+01 -0.22067191957E+02  0.31708757008E+02  0.51100000000E-03 0. -1.
        -11    1    3    3    0    0  0.32963141456E+01  0.76611035605E+00 -0.20921673343E+00  0.33906317888E+01  0.51100000000E-03 0.  1.
         12    1    3    3    0    0 -0.69559090979E+01 -0.72289888066E+01 -0.11722734930E+02  0.15429370200E+02  0.00000000000E+00 0. -1.
</event>
<event>
 7    1  0.2817603E-011  0.5052886E+02  0.7816164E-02  0.1300439E+00
        -11   -1    0    0    0    0  0.00000000000E+00  0.00000000000E+00  0.45593999997E+02  0.45594000000E+02  0.51100000000E-03 0. -1.
         11   -1    0    0    0    0 -0.00000000000E+00 -0.00000000000E+00 -0.45593999997E+02  0.45594000000E+02  0.51100000000E-03 0.  1.
    9900012    2    1    2    0    0 -0.10563274700E+02  0.38330039235E+02  0.85082950948E+01  0.50528858770E+02  0.29999996716E+02 0.  0.
        -12    1    1    2    0    0  0.10563274700E+02 -0.38330039235E+02 -0.85082950948E+01  0.40659141230E+02  0.00000000000E+00 0.  1.
         11    1    3    3    0    0 -0.99858288824E+01  0.13645449289E+02  0.11039027807E+02  0.20193444480E+02  0.51100000000E-03 0. -1.
        -11    1    3    3    0    0  0.49135416055E+00  0.17570643395E+02  0.65431687130E+01  0.18755852294E+02  0.51100000000E-03 0.  1.
        -12    1    3    3    0    0 -0.10687999783E+01  0.71139465511E+01 -0.90739014252E+01  0.11579561995E+02  0.00000000000E+00 0.  1.
</event>
<event>
 7    1  0.2817603E-011  0.5052886E+02  0.7816164E-02  0.1300439E+00
        -11   -1    0    0    0    0  0.00000000000E+00  0.00000000000E+00  0.45593999997E+02  0.45594000000E+02  0.51100000000E-03 0.  1.
         11   -1    0    0    0    0 -0.00000000000E+00 -0.00000000000E+00 -0.45593999997E+02  0.45594000000E+02  0.51100000000E-03 0. -1.
    9900012    2    1    2    0    0 -0.80662880778E+01 -0.39553782072E+02  0.48578625380E+01  0.50528861938E+02  0.30000006346E+02 0.  0.
        -12    1    1    2    0    0  0.80662880778E+01  0.39553782072E+02 -0.48578625380E+01  0.40659138062E+02  0.00000000000E+00 0.  1.
         11    1    3    3    0    0  0.38557323945E+01 -0.75684763904E+00 -0.12251120293E+01  0.41158705509E+01  0.51100000000E-03 0. -1.
        -11    1    3    3    0    0 -0.18629179796E+01 -0.30923330623E+02  0.10781877638E+02  0.32802007955E+02  0.51100000000E-03 0.  1.
         12    1    3    3    0    0 -0.10059102493E+02 -0.78736038093E+01 -0.46989030706E+01  0.13610983431E+02  0.00000000000E+00 0. -1.
</event>
<event>
 7    1  0.2817603E-011  0.5052885E+02  0.7816164E-02  0.1300439E+00
        -11   -1    0    0    0    0  0.00000000000E+00  0.00000000000E+00  0.45593999997E+02  0.45594000000E+02  0.51100000000E-03 0.  1.
         11   -1    0    0    0    0 -0.00000000000E+00 -0.00000000000E+00 -0.45593999997E+02  0.45594000000E+02  0.51100000000E-03 0. -1.
    9900012    2    1    2    0    0  0.97854811624E+01  0.26832379015E+02 -0.28938459448E+02  0.50528848012E+02  0.29999964016E+02 0.  0.
        -12    1    1    2    0    0 -0.97854811624E+01 -0.26832379015E+02  0.28938459448E+02  0.40659151988E+02  0.00000000000E+00 0.  1.
         11    1    3    3    0    0  0.12697065509E+02  0.15491636862E+02 -0.12743030566E+02  0.23740073999E+02  0.51100000000E-03 0. -1.
        -11    1    3    3    0    0  0.73107968479E+01  0.23937021777E+01 -0.48926115592E+01  0.91167542907E+01  0.51100000000E-03 0.  1.
        -12    1    3    3    0    0 -0.10222381195E+02  0.89470399750E+01 -0.11302817323E+02  0.17672019722E+02  0.00000000000E+00 0.  1.
</event>
<event>
 7    1  0.2817603E-011  0.5052887E+02  0.7816164E-02  0.1300439E+00
        -11   -1    0    0    0    0  0.00000000000E+00  0.00000000000E+00  0.45593999997E+02  0.45594000000E+02  0.51100000000E-03 0.  1.
         11   -1    0    0    0    0 -0.00000000000E+00 -0.00000000000E+00 -0.45593999997E+02  0.45594000000E+02  0.51100000000E-03 0. -1.
    9900012    2    1    2    0    0 -0.12094385205E+02  0.38460180593E+02  0.52636116580E+01  0.50528865080E+02  0.30000015899E+02 0.  0.
        -12    1    1    2    0    0  0.12094385205E+02 -0.38460180593E+02 -0.52636116580E+01  0.40659134920E+02  0.00000000000E+00 0.  1.
         11    1    3    3    0    0 -0.77952477253E+01  0.73267932495E+01 -0.38948037538E+01  0.11384958628E+02  0.51100000000E-03 0. -1.
        -11    1    3    3    0    0 -0.10173449805E+02  0.94124440822E+01  0.92131491780E+01  0.16642574998E+02  0.51100000000E-03 0.  1.
        -12    1    3    3    0    0  0.58743123247E+01  0.21720943261E+02 -0.54733766176E-01  0.22501331454E+02  0.00000000000E+00 0.  1.
</event>
<event>
 7    1  0.2817603E-011  0.5052886E+02  0.7816164E-02  0.1300439E+00
        -11   -1    0    0    0    0  0.00000000000E+00  0.00000000000E+00  0.45593999997E+02  0.45594000000E+02  0.51100000000E-03 0.  1.
         11   -1    0    0    0    0 -0.00000000000E+00 -0.00000000000E+00 -0.45593999997E+02  0.45594000000E+02  0.51100000000E-03 0. -1.
    9900012    2    1    2    0    0 -0.40339290622E+02  0.11999444221E+01  0.49464641684E+01  0.50528859056E+02  0.29999997588E+02 0.  0.
        -12    1    1    2    0    0  0.40339290622E+02 -0.11999444221E+01 -0.49464641684E+01  0.40659140944E+02  0.00000000000E+00 0.  1.
         11    1    3    3    0    0 -0.80668499405E+01 -0.93517471020E+01 -0.71415575929E+01  0.14266432173E+02  0.51100000000E-03 0. -1.
        -11    1    3    3    0    0 -0.68189820452E-01  0.21194824848E+00 -0.17644187363E+00  0.28408433174E+00  0.51100000000E-03 0.  1.
        -12    1    3    3    0    0 -0.32204250861E+02  0.10339743276E+02  0.12264463635E+02  0.35978342552E+02  0.00000000000E+00 0.  1.
</event>
<event>
 7    1  0.2817603E-011  0.5052886E+02  0.7816164E-02  0.1300439E+00
        -11   -1    0    0    0    0  0.00000000000E+00  0.00000000000E+00  0.45593999997E+02  0.45594000000E+02  0.51100000000E-03 0.  1.
         11   -1    0    0    0    0 -0.00000000000E+00 -0.00000000000E+00 -0.45593999997E+02  0.45594000000E+02  0.51100000000E-03 0. -1.
    9900012    2    1    2    0    0 -0.35864159064E+02  0.31369192340E+01  0.18896768783E+02  0.50528855419E+02  0.29999986532E+02 0.  0.
        -12    1    1    2    0    0  0.35864159064E+02 -0.31369192340E+01 -0.18896768783E+02  0.40659144581E+02  0.00000000000E+00 0.  1.
         11    1    3    3    0    0 -0.18777787221E+02  0.91403047101E+00 -0.57705205691E+00  0.18808873808E+02  0.51100000000E-03 0. -1.
        -11    1    3    3    0    0 -0.40848915434E+01 -0.70776466449E+01  0.28432273661E+01  0.86523617046E+01  0.51100000000E-03 0.  1.
         12    1    3    3    0    0 -0.13001480300E+02  0.93005354078E+01  0.16630593473E+02  0.23067619906E+02  0.00000000000E+00 0. -1.
</event>
<event>
 7    1  0.2817603E-011  0.5052887E+02  0.7816164E-02  0.1300439E+00
        -11   -1    0    0    0    0  0.00000000000E+00  0.00000000000E+00  0.45593999997E+02  0.45594000000E+02  0.51100000000E-03 0. -1.
         11   -1    0    0    0    0 -0.00000000000E+00 -0.00000000000E+00 -0.45593999997E+02  0.45594000000E+02  0.51100000000E-03 0.  1.
    9900012    2    1    2    0    0  0.25279825155E+01 -0.33300058842E+02  0.23192247470E+02  0.50528868711E+02  0.30000026933E+02 0.  0.
        -12    1    1    2    0    0 -0.25279825155E+01  0.33300058842E+02 -0.23192247470E+02  0.40659131289E+02  0.00000000000E+00 0.  1.
         11    1    3    3    0    0  0.42725371674E+01  0.10644762498E+01  0.31100257584E+01  0.53907275958E+01  0.51100000000E-03 0. -1.
        -11    1    3    3    0    0 -0.18323856762E+01 -0.99762683233E+01 -0.39626872264E+01  0.10889740917E+02  0.51100000000E-03 0.  1.
        -12    1    3    3    0    0  0.87831024308E-01 -0.24388266769E+02  0.24044908938E+02  0.34248400198E+02  0.00000000000E+00 0.  1.
</event>
<event>
 7    1  0.2817603E-011  0.5052886E+02  0.7816164E-02  0.1300439E+00
        -11   -1    0    0    0    0  0.00000000000E+00  0.00000000000E+00  0.45593999997E+02  0.45594000000E+02  0.51100000000E-03 0.  1.
         11   -1    0    0    0    0 -0.00000000000E+00 -0.00000000000E+00 -0.45593999997E+02  0.45594000000E+02  0.51100000000E-03 0. -1.
    9900012    2    1    2    0    0  0.37526219030E+02  0.15197333266E+02 -0.37402881989E+01  0.50528858237E+02  0.29999995097E+02 0.  0.
        -12    1    1    2    0    0 -0.37526219030E+02 -0.15197333266E+02  0.37402881989E+01  0.40659141763E+02  0.00000000000E+00 0.  1.
         11    1    3    3    0    0  0.26415878345E+02  0.79770086889E+01  0.61753756919E+01  0.28276608027E+02  0.51100000000E-03 0. -1.
        -11    1    3    3    0    0  0.65050807229E+01  0.10692969365E+01  0.29849038880E+01  0.72366513410E+01  0.51100000000E-03 0.  1.
        -12    1    3    3    0    0  0.46052599628E+01  0.61510276405E+01 -0.12900567779E+02  0.15015598868E+02  0.00000000000E+00 0.  1.
</event>
<event>
 7    1  0.2817603E-011  0.5052886E+02  0.7816164E-02  0.1300439E+00
        -11   -1    0    0    0    0  0.00000000000E+00  0.00000000000E+00  0.45593999997E+02  0.45594000000E+02  0.51100000000E-03 0.  1.
         11   -1    0    0    0    0 -0.00000000000E+00 -0.00000000000E+00 -0.45593999997E+02  0.45594000000E+02  0.51100000000E-03 0. -1.
    9900012    2    1    2    0    0  0.27785287572E+02  0.29680319779E+02 -0.47110803159E+00  0.50528861661E+02  0.30000005506E+02 0.  0.
        -12    1    1    2    0    0 -0.27785287572E+02 -0.29680319779E+02  0.47110803159E+00  0.40659138339E+02  0.00000000000E+00 0.  1.
         11    1    3    3    0    0  0.16657788552E+02  0.17967253756E+02 -0.80534854436E+01  0.25790749408E+02  0.51100000000E-03 0. -1.
        -11    1    3    3    0    0  0.10568326680E+02  0.30675089085E+01 -0.26615967184E+01  0.11321803614E+02  0.51100000000E-03 0.  1.
        -12    1    3    3    0    0  0.55917234053E+00  0.86455571147E+01  0.10243974130E+02  0.13416308640E+02  0.00000000000E+00 0.  1.
</event>
<event>
 7    1  0.2817603E-011  0.5052885E+02  0.7816164E-02  0.1300439E+00
        -11   -1    0    0    0    0  0.00000000000E+00  0.00000000000E+00  0.45593999997E+02  0.45594000000E+02  0.51100000000E-03 0.  1.
         11   -1    0    0    0    0 -0.00000000000E+00 -0.00000000000E+00 -0.45593999997E+02  0.45594000000E+02  0.51100000000E-03 0. -1.
    9900012    2    1    2    0    0 -0.14932046800E+02 -0.34471873078E+02 -0.15552831209E+02  0.50528848339E+02  0.29999965012E+02 0.  0.
        -12    1    1    2    0    0  0.14932046800E+02  0.34471873078E+02  0.15552831209E+02  0.40659151661E+02  0.00000000000E+00 0.  1.
         11    1    3    3    0    0  0.31830876024E+01  0.98208583232E+00 -0.19251979359E+01  0.38474571629E+01  0.51100000000E-03 0.  1.
        -11    1    3    3    0    0 -0.71131061060E+01 -0.13225584717E+01 -0.72789115212E+01  0.10262942686E+02  0.51100000000E-03 0. -1.
         12    1    3    3    0    0 -0.11002028296E+02 -0.34131400439E+02 -0.63487217515E+01  0.36418448490E+02  0.00000000000E+00 0. -1.
</event>
<event>
 7    1  0.2817603E-011  0.5052885E+02  0.7816164E-02  0.1300439E+00
        -11   -1    0    0    0    0  0.00000000000E+00  0.00000000000E+00  0.45593999997E+02  0.45594000000E+02  0.51100000000E-03 0.  1.
         11   -1    0    0    0    0 -0.00000000000E+00 -0.00000000000E+00 -0.45593999997E+02  0.45594000000E+02  0.51100000000E-03 0. -1.
    9900012    2    1    2    0    0 -0.11545594817E+02  0.27711542917E+02 -0.27421446194E+02  0.50528854880E+02  0.29999984893E+02 0.  0.
        -12    1    1    2    0    0  0.11545594817E+02 -0.27711542917E+02  0.27421446194E+02  0.40659145120E+02  0.00000000000E+00 0.  1.
         11    1    3    3    0    0  0.56938404807E+01  0.90485872507E+01 -0.11041156426E+02  0.15368925992E+02  0.51100000000E-03 0. -1.
        -11    1    3    3    0    0 -0.74860111449E+01  0.17334312268E+02 -0.39264242512E+01  0.19285630721E+02  0.51100000000E-03 0.  1.
         12    1    3    3    0    0 -0.97534241532E+01  0.13286433988E+01 -0.12453865516E+02  0.15874298167E+02  0.00000000000E+00 0. -1.
</event>
<event>
 7    1  0.2817603E-011  0.5052886E+02  0.7816164E-02  0.1300439E+00
        -11   -1    0    0    0    0  0.00000000000E+00  0.00000000000E+00  0.45593999997E+02  0.45594000000E+02  0.51100000000E-03 0.  1.
         11   -1    0    0    0    0 -0.00000000000E+00 -0.00000000000E+00 -0.45593999997E+02  0.45594000000E+02  0.51100000000E-03 0. -1.
    9900012    2    1    2    0    0  0.27503497669E+02 -0.29203488475E+02 -0.66241360136E+01  0.50528864483E+02  0.30000014081E+02 0.  0.
        -12    1    1    2    0    0 -0.27503497669E+02  0.29203488475E+02  0.66241360136E+01  0.40659135517E+02  0.00000000000E+00 0.  1.
         11    1    3    3    0    0  0.15044535934E+02 -0.17374419355E+02 -0.12583909496E+02  0.26202352716E+02  0.51100000000E-03 0. -1.
        -11    1    3    3    0    0  0.67567874257E+01  0.22722274899E+01 -0.16522132358E+01  0.73175817672E+01  0.51100000000E-03 0.  1.
         12    1    3    3    0    0  0.57021743093E+01 -0.14101296610E+02  0.76119867183E+01  0.17008929999E+02  0.00000000000E+00 0. -1.
</event>
<event>
 7    1  0.2817603E-011  0.5052881E+02  0.7816164E-02  0.1300439E+00
        -11   -1    0    0    0    0  0.00000000000E+00  0.00000000000E+00  0.45593999997E+02  0.45594000000E+02  0.51100000000E-03 0. -1.
         11   -1    0    0    0    0 -0.00000000000E+00 -0.00000000000E+00 -0.45593999997E+02  0.45594000000E+02  0.51100000000E-03 0.  1.
    9900012    2    1    2    0    0 -0.23050160202E+02  0.32654339898E+02  0.74534312061E+01  0.50528813630E+02  0.29999859509E+02 0.  0.
        -12    1    1    2    0    0  0.23050160202E+02 -0.32654339898E+02 -0.74534312061E+01  0.40659186370E+02  0.00000000000E+00 0.  1.
         11    1    3    3    0    0 -0.18038899268E+02  0.12415261863E+02  0.93969161075E+01  0.23829449144E+02  0.51100000000E-03 0. -1.
        -11    1    3    3    0    0 -0.11447136002E+01  0.93917541273E-02 -0.56567534190E+01  0.57714224361E+01  0.51100000000E-03 0.  1.
         12    1    3    3    0    0 -0.38665473335E+01  0.20229686282E+02  0.37132685175E+01  0.20927942049E+02  0.00000000000E+00 0. -1.
</event>
<event>
 7    1  0.2817603E-011  0.5052872E+02  0.7816164E-02  0.1300439E+00
        -11   -1    0    0    0    0  0.00000000000E+00  0.00000000000E+00  0.45593999997E+02  0.45594000000E+02  0.51100000000E-03 0.  1.
         11   -1    0    0    0    0 -0.00000000000E+00 -0.00000000000E+00 -0.45593999997E+02  0.45594000000E+02  0.51100000000E-03 0. -1.
    9900012    2    1    2    0    0  0.86725806923E+01  0.37568963257E+02 -0.12904893042E+02  0.50528721594E+02  0.29999579754E+02 0.  0.
        -12    1    1    2    0    0 -0.86725806923E+01 -0.37568963257E+02  0.12904893042E+02  0.40659278406E+02  0.00000000000E+00 0.  1.
         11    1    3    3    0    0 -0.41248834350E+01  0.65788114646E+01 -0.12699919644E+02  0.14885677104E+02  0.51100000000E-03 0. -1.
        -11    1    3    3    0    0 -0.20047543679E+01  0.16215137148E+01  0.91492380712E+00  0.27359518703E+01  0.51100000000E-03 0.  1.
        -12    1    3    3    0    0  0.14802218495E+02  0.29368638078E+02 -0.11198972051E+01  0.32907092619E+02  0.00000000000E+00 0.  1.
</event>
<event>
 7    1  0.2817603E-011  0.5052887E+02  0.7816164E-02  0.1300439E+00
        -11   -1    0    0    0    0  0.00000000000E+00  0.00000000000E+00  0.45593999997E+02  0.45594000000E+02  0.51100000000E-03 0.  1.
         11   -1    0    0    0    0 -0.00000000000E+00 -0.00000000000E+00 -0.45593999997E+02  0.45594000000E+02  0.51100000000E-03 0. -1.
    9900012    2    1    2    0    0 -0.23451487471E+02  0.27851756770E+02 -0.18096195384E+02  0.50528869326E+02  0.30000028803E+02 0.  0.
        -12    1    1    2    0    0  0.23451487471E+02 -0.27851756770E+02  0.18096195384E+02  0.40659130674E+02  0.00000000000E+00 0.  1.
         11    1    3    3    0    0 -0.93381159383E+01  0.96396595253E+01  0.13405063071E+01  0.13487787160E+02  0.51100000000E-03 0. -1.
        -11    1    3    3    0    0 -0.73941439736E+01  0.11261376775E+02  0.19106468118E+01  0.13606709502E+02  0.51100000000E-03 0.  1.
         12    1    3    3    0    0 -0.67192275594E+01  0.69507204693E+01 -0.21347348503E+02  0.23434372664E+02  0.00000000000E+00 0. -1.
</event>
<event>
 7    1  0.2817603E-011  0.5052886E+02  0.7816164E-02  0.1300439E+00
        -11   -1    0    0    0    0  0.00000000000E+00  0.00000000000E+00  0.45593999997E+02  0.45594000000E+02  0.51100000000E-03 0.  1.
         11   -1    0    0    0    0 -0.00000000000E+00 -0.00000000000E+00 -0.45593999997E+02  0.45594000000E+02  0.51100000000E-03 0. -1.
    9900012    2    1    2    0    0  0.10141645319E+02 -0.30764349109E+02 -0.24573712920E+02  0.50528861881E+02  0.30000006175E+02 0.  0.
        -12    1    1    2    0    0 -0.10141645319E+02  0.30764349109E+02  0.24573712920E+02  0.40659138119E+02  0.00000000000E+00 0.  1.
         11    1    3    3    0    0  0.38602879296E+01 -0.35089830574E+01  0.12951938147E+01  0.53751569536E+01  0.51100000000E-03 0. -1.
        -11    1    3    3    0    0  0.66445236366E+01  0.24718168440E+01 -0.68702371506E+01  0.98721695505E+01  0.51100000000E-03 0.  1.
         12    1    3    3    0    0 -0.36316624734E+00 -0.29727182896E+02 -0.18998669584E+02  0.35281535377E+02  0.00000000000E+00 0. -1.
</event>
<event>
 7    1  0.2817603E-011  0.5052886E+02  0.7816164E-02  0.1300439E+00
        -11   -1    0    0    0    0  0.00000000000E+00  0.00000000000E+00  0.45593999997E+02  0.45594000000E+02  0.51100000000E-03 0.  1.
         11   -1    0    0    0    0 -0.00000000000E+00 -0.00000000000E+00 -0.45593999997E+02  0.45594000000E+02  0.51100000000E-03 0. -1.
    9900012    2    1    2    0    0 -0.21617670594E+01 -0.39270265043E+02 -0.10312053041E+02  0.50528863373E+02  0.30000010708E+02 0.  0.
        -12    1    1    2    0    0  0.21617670594E+01  0.39270265043E+02  0.10312053041E+02  0.40659136627E+02  0.00000000000E+00 0.  1.
         11    1    3    3    0    0 -0.44152331494E+01 -0.19427914498E+02  0.48688435547E+01  0.20509602223E+02  0.51100000000E-03 0. -1.
        -11    1    3    3    0    0 -0.50110307659E+00 -0.22150308189E+02 -0.11881733733E+02  0.25140860246E+02  0.51100000000E-03 0.  1.
        -12    1    3    3    0    0  0.27545691666E+01  0.23079576443E+01 -0.32991628630E+01  0.48784009038E+01  0.00000000000E+00 0.  1.
</event>
<event>
 7    1  0.2817603E-011  0.5052885E+02  0.7816164E-02  0.1300439E+00
        -11   -1    0    0    0    0  0.00000000000E+00  0.00000000000E+00  0.45593999997E+02  0.45594000000E+02  0.51100000000E-03 0.  1.
         11   -1    0    0    0    0 -0.00000000000E+00 -0.00000000000E+00 -0.45593999997E+02  0.45594000000E+02  0.51100000000E-03 0. -1.
    9900012    2    1    2    0    0 -0.32351339949E+02 -0.24607879815E+02 -0.10046090073E+01  0.50528853615E+02  0.29999981047E+02 0.  0.
        -12    1    1    2    0    0  0.32351339949E+02  0.24607879815E+02  0.10046090073E+01  0.40659146385E+02  0.00000000000E+00 0.  1.
         11    1    3    3    0    0 -0.16156194364E+02 -0.14914273960E+02 -0.11277589483E+02  0.24711175789E+02  0.51100000000E-03 0. -1.
        -11    1    3    3    0    0 -0.97055560699E+01 -0.29343434449E+01 -0.20421318275E+01  0.10343040788E+02  0.51100000000E-03 0.  1.
        -12    1    3    3    0    0 -0.64895895158E+01 -0.67592624102E+01  0.12315112303E+02  0.15474637038E+02  0.00000000000E+00 0.  1.
</event>
<event>
 7    1  0.2817603E-011  0.5052886E+02  0.7816164E-02  0.1300439E+00
        -11   -1    0    0    0    0  0.00000000000E+00  0.00000000000E+00  0.45593999997E+02  0.45594000000E+02  0.51100000000E-03 0.  1.
         11   -1    0    0    0    0 -0.00000000000E+00 -0.00000000000E+00 -0.45593999997E+02  0.45594000000E+02  0.51100000000E-03 0. -1.
    9900012    2    1    2    0    0  0.19745630785E+01  0.34974768761E+02 -0.20640550631E+02  0.50528859827E+02  0.29999999930E+02 0.  0.
        -12    1    1    2    0    0 -0.19745630785E+01 -0.34974768761E+02  0.20640550631E+02  0.40659140173E+02  0.00000000000E+00 0.  1.
         11    1    3    3    0    0  0.19536965096E+01  0.48242186070E+01 -0.62390750382E+01  0.81250275577E+01  0.51100000000E-03 0. -1.
        -11    1    3    3    0    0  0.97502707341E+01  0.27699746083E+02 -0.77673990078E+01  0.30375585592E+02  0.51100000000E-03 0.  1.
        -12    1    3    3    0    0 -0.97294041652E+01  0.24508040718E+01 -0.66340765846E+01  0.12028246678E+02  0.00000000000E+00 0.  1.
</event>
<event>
 7    1  0.2817603E-011  0.5052886E+02  0.7816164E-02  0.1300439E+00
        -11   -1    0    0    0    0  0.00000000000E+00  0.00000000000E+00  0.45593999997E+02  0.45594000000E+02  0.51100000000E-03 0. -1.
         11   -1    0    0    0    0 -0.00000000000E+00 -0.00000000000E+00 -0.45593999997E+02  0.45594000000E+02  0.51100000000E-03 0.  1.
    9900012    2    1    2    0    0  0.11521840760E+02  0.25978168998E+02  0.29078304733E+02  0.50528857300E+02  0.29999992248E+02 0.  0.
        -12    1    1    2    0    0 -0.11521840760E+02 -0.25978168998E+02 -0.29078304733E+02  0.40659142700E+02  0.00000000000E+00 0.  1.
         11    1    3    3    0    0 -0.44997183871E+01  0.13060005247E+02  0.21556023581E+01  0.13980623176E+02  0.51100000000E-03 0.  1.
        -11    1    3    3    0    0  0.40032204082E+01  0.88207994669E+01  0.42840025363E+01  0.10591739936E+02  0.51100000000E-03 0. -1.
        -12    1    3    3    0    0  0.12018338739E+02  0.40973642839E+01  0.22638699839E+02  0.25956494188E+02  0.00000000000E+00 0.  1.
</event>
<event>
 7    1  0.2817603E-011  0.5052886E+02  0.7816164E-02  0.1300439E+00
        -11   -1    0    0    0    0  0.00000000000E+00  0.00000000000E+00  0.45593999997E+02  0.45594000000E+02  0.51100000000E-03 0. -1.
         11   -1    0    0    0    0 -0.00000000000E+00 -0.00000000000E+00 -0.45593999997E+02  0.45594000000E+02  0.51100000000E-03 0.  1.
    9900012    2    1    2    0    0 -0.34961317434E+02 -0.20188444703E+02  0.48268919255E+01  0.50528857093E+02  0.29999991621E+02 0.  0.
        -12    1    1    2    0    0  0.34961317434E+02  0.20188444703E+02 -0.48268919255E+01  0.40659142907E+02  0.00000000000E+00 0.  1.
         11    1    3    3    0    0 -0.20474342161E+02 -0.20591428773E+02  0.52579091297E+01  0.29510188656E+02  0.51100000000E-03 0. -1.
        -11    1    3    3    0    0 -0.61005858408E+01 -0.36846998301E+01  0.63017021290E+01  0.95134436679E+01  0.51100000000E-03 0.  1.
        -12    1    3    3    0    0 -0.83863894326E+01  0.40876838996E+01 -0.67327193333E+01  0.11505224770E+02  0.00000000000E+00 0.  1.
</event>
<event>
 7    1  0.2817603E-011  0.5052886E+02  0.7816164E-02  0.1300439E+00
        -11   -1    0    0    0    0  0.00000000000E+00  0.00000000000E+00  0.45593999997E+02  0.45594000000E+02  0.51100000000E-03 0.  1.
         11   -1    0    0    0    0 -0.00000000000E+00 -0.00000000000E+00 -0.45593999997E+02  0.45594000000E+02  0.51100000000E-03 0. -1.
    9900012    2    1    2    0    0 -0.16808158841E+02 -0.19375216731E+02 -0.31547621812E+02  0.50528859958E+02  0.30000000327E+02 0.  0.
        -12    1    1    2    0    0  0.16808158841E+02  0.19375216731E+02  0.31547621812E+02  0.40659140042E+02  0.00000000000E+00 0.  1.
         11    1    3    3    0    0 -0.56898540926E+01 -0.62981447759E+01 -0.92202280122E+01  0.12532105652E+02  0.51100000000E-03 0. -1.
        -11    1    3    3    0    0 -0.13694730779E+02 -0.11260287565E+02 -0.27035609330E+02  0.32330541277E+02  0.51100000000E-03 0.  1.
        -12    1    3    3    0    0  0.25764260306E+01 -0.18167843902E+01  0.47082155301E+01  0.56662130289E+01  0.00000000000E+00 0.  1.
</event>
<event>
 7    1  0.2817603E-011  0.5052885E+02  0.7816164E-02  0.1300439E+00
        -11   -1    0    0    0    0  0.00000000000E+00  0.00000000000E+00  0.45593999997E+02  0.45594000000E+02  0.51100000000E-03 0.  1.
         11   -1    0    0    0    0 -0.00000000000E+00 -0.00000000000E+00 -0.45593999997E+02  0.45594000000E+02  0.51100000000E-03 0. -1.
    9900012    2    1    2    0    0 -0.29743482830E+02 -0.80512020435E+01 -0.26526773495E+02  0.50528851740E+02  0.29999975348E+02 0.  0.
        -12    1    1    2    0    0  0.29743482830E+02  0.80512020435E+01  0.26526773495E+02  0.40659148260E+02  0.00000000000E+00 0.  1.
         11    1    3    3    0    0 -0.72800121577E+00  0.70171767788E+00 -0.29996516745E+01  0.31654863605E+01  0.51100000000E-03 0. -1.
        -11    1    3    3    0    0  0.32982195589E+01  0.42628542637E+01 -0.69186091853E+01  0.87702526790E+01  0.51100000000E-03 0.  1.
         12    1    3    3    0    0 -0.32313701173E+02 -0.13015773985E+02 -0.16608512636E+02  0.38593112700E+02  0.00000000000E+00 0. -1.
</event>
<event>
 7    1  0.2817603E-011  0.5052886E+02  0.7816164E-02  0.1300439E+00
        -11   -1    0    0    0    0  0.00000000000E+00  0.00000000000E+00  0.45593999997E+02  0.45594000000E+02  0.51100000000E-03 0.  1.
         11   -1    0    0    0    0 -0.00000000000E+00 -0.00000000000E+00 -0.45593999997E+02  0.45594000000E+02  0.51100000000E-03 0. -1.
    9900012    2    1    2    0    0  0.27060169642E+01 -0.59671129969E+00 -0.40564599811E+02  0.50528863880E+02  0.30000012250E+02 0.  0.
        -12    1    1    2    0    0 -0.27060169642E+01  0.59671129969E+00  0.40564599811E+02  0.40659136120E+02  0.00000000000E+00 0.  1.
         11    1    3    3    0    0  0.15606076868E+01 -0.46802845741E+00 -0.14809045017E+02  0.14898401309E+02  0.51100000000E-03 0. -1.
        -11    1    3    3    0    0  0.82161832158E+01 -0.73384925907E+01 -0.22445918622E+02  0.25003567809E+02  0.51100000000E-03 0.  1.
        -12    1    3    3    0    0 -0.70707739385E+01  0.72098097484E+01 -0.33096361722E+01  0.10626894762E+02  0.00000000000E+00 0.  1.
</event>
<event>
 7    1  0.2817603E-011  0.5052886E+02  0.7816164E-02  0.1300439E+00
        -11   -1    0    0    0    0  0.00000000000E+00  0.00000000000E+00  0.45593999997E+02  0.45594000000E+02  0.51100000000E-03 0. -1.
         11   -1    0    0    0    0 -0.00000000000E+00 -0.00000000000E+00 -0.45593999997E+02  0.45594000000E+02  0.51100000000E-03 0.  1.
    9900012    2    1    2    0    0 -0.37140406455E+02  0.47815413523E+01  0.15839586084E+02  0.50528863061E+02  0.30000009759E+02 0.  0.
        -12    1    1    2    0    0  0.37140406455E+02 -0.47815413523E+01 -0.15839586084E+02  0.40659136939E+02  0.00000000000E+00 0.  1.
         11    1    3    3    0    0 -0.17262923308E+02  0.33385635374E+00  0.66459179835E+01  0.18501032601E+02  0.51100000000E-03 0. -1.
        -11    1    3    3    0    0 -0.24340045532E+02  0.43022682036E+01  0.37707347528E+01  0.25003315160E+02  0.51100000000E-03 0.  1.
        -12    1    3    3    0    0  0.44625623850E+01  0.14541679498E+00  0.54229333482E+01  0.70245152988E+01  0.00000000000E+00 0.  1.
</event>
<event>
 7    1  0.2817603E-011  0.5052886E+02  0.7816164E-02  0.1300439E+00
        -11   -1    0    0    0    0  0.00000000000E+00  0.00000000000E+00  0.45593999997E+02  0.45594000000E+02  0.51100000000E-03 0.  1.
         11   -1    0    0    0    0 -0.00000000000E+00 -0.00000000000E+00 -0.45593999997E+02  0.45594000000E+02  0.51100000000E-03 0. -1.
    9900012    2    1    2    0    0 -0.38450335123E+02  0.57309189516E+01 -0.11911915160E+02  0.50528862947E+02  0.30000009415E+02 0.  0.
        -12    1    1    2    0    0  0.38450335123E+02 -0.57309189516E+01  0.11911915160E+02  0.40659137053E+02  0.00000000000E+00 0.  1.
         11    1    3    3    0    0 -0.12273445909E+02  0.28386509500E+01 -0.90221428624E+01  0.15494982278E+02  0.51100000000E-03 0. -1.
        -11    1    3    3    0    0 -0.44107948671E+01 -0.40047886443E+01 -0.95444112669E+01  0.11251187943E+02  0.51100000000E-03 0.  1.
        -12    1    3    3    0    0 -0.21766094347E+02  0.68970566459E+01  0.66546389697E+01  0.23782692726E+02  0.00000000000E+00 0.  1.
</event>
<event>
 7    1  0.2817603E-011  0.5052886E+02  0.7816164E-02  0.1300439E+00
        -11   -1    0    0    0    0  0.00000000000E+00  0.00000000000E+00  0.45593999997E+02  0.45594000000E+02  0.51100000000E-03 0.  1.
         11   -1    0    0    0    0 -0.00000000000E+00 -0.00000000000E+00 -0.45593999997E+02  0.45594000000E+02  0.51100000000E-03 0. -1.
    9900012    2    1    2    0    0 -0.35557999378E+02 -0.17293273822E+02 -0.94729609403E+01  0.50528860459E+02  0.30000001850E+02 0.  0.
        -12    1    1    2    0    0  0.35557999378E+02  0.17293273822E+02  0.94729609403E+01  0.40659139541E+02  0.00000000000E+00 0.  1.
         11    1    3    3    0    0 -0.10703644343E+01 -0.29875349315E+01 -0.67516390397E+01  0.74602731165E+01  0.51100000000E-03 0. -1.
        -11    1    3    3    0    0  0.14414906949E+01  0.28258735928E+01 -0.38595276816E+00  0.31956872166E+01  0.51100000000E-03 0.  1.
         12    1    3    3    0    0 -0.35929125639E+02 -0.17131612483E+02 -0.23353691324E+01  0.39872900126E+02  0.00000000000E+00 0. -1.
</event>
<event>
 7    1  0.2817603E-011  0.5052885E+02  0.7816164E-02  0.1300439E+00
        -11   -1    0    0    0    0  0.00000000000E+00  0.00000000000E+00  0.45593999997E+02  0.45594000000E+02  0.51100000000E-03 0.  1.
         11   -1    0    0    0    0 -0.00000000000E+00 -0.00000000000E+00 -0.45593999997E+02  0.45594000000E+02  0.51100000000E-03 0. -1.
    9900012    2    1    2    0    0  0.40110346004E+02  0.49851900337E+01 -0.44130047875E+01  0.50528848663E+02  0.29999965995E+02 0.  0.
        -12    1    1    2    0    0 -0.40110346004E+02 -0.49851900337E+01  0.44130047875E+01  0.40659151337E+02  0.00000000000E+00 0.  1.
         11    1    3    3    0    0  0.22871159815E+02 -0.36382584271E+01 -0.51422038948E+01  0.23722755675E+02  0.51100000000E-03 0. -1.
        -11    1    3    3    0    0  0.21016143820E+02  0.87139749635E+01  0.19530836735E+01  0.22834758523E+02  0.51100000000E-03 0.  1.
         12    1    3    3    0    0 -0.37769576311E+01 -0.90526502653E-01 -0.12238845662E+01  0.39713344641E+01  0.00000000000E+00 0. -1.
</event>
<event>
 7    1  0.2817603E-011  0.5052883E+02  0.7816164E-02  0.1300439E+00
        -11   -1    0    0    0    0  0.00000000000E+00  0.00000000000E+00  0.45593999997E+02  0.45594000000E+02  0.51100000000E-03 0. -1.
         11   -1    0    0    0    0 -0.00000000000E+00 -0.00000000000E+00 -0.45593999997E+02  0.45594000000E+02  0.51100000000E-03 0.  1.
    9900012    2    1    2    0    0  0.15875075970E+02 -0.62408837259E+01  0.36908010817E+02  0.50528832163E+02  0.29999915842E+02 0.  0.
        -12    1    1    2    0    0 -0.15875075970E+02  0.62408837259E+01 -0.36908010817E+02  0.40659167837E+02  0.00000000000E+00 0.  1.
         11    1    3    3    0    0 -0.29450690306E+00  0.28308493116E+01  0.19003868718E+00  0.28524650927E+01  0.51100000000E-03 0.  1.
        -11    1    3    3    0    0 -0.58234511097E+01 -0.55588126226E+01  0.81924716459E+01  0.11486059922E+02  0.51100000000E-03 0. -1.
        -12    1    3    3    0    0  0.21993033983E+02 -0.35129204150E+01  0.28525500484E+02  0.36190307148E+02  0.00000000000E+00 0.  1.
</event>
<event>
 7    1  0.2817603E-011  0.5052886E+02  0.7816164E-02  0.1300439E+00
        -11   -1    0    0    0    0  0.00000000000E+00  0.00000000000E+00  0.45593999997E+02  0.45594000000E+02  0.51100000000E-03 0.  1.
         11   -1    0    0    0    0 -0.00000000000E+00 -0.00000000000E+00 -0.45593999997E+02  0.45594000000E+02  0.51100000000E-03 0. -1.
    9900012    2    1    2    0    0  0.90037290387E+00 -0.40517568922E+02 -0.32683268203E+01  0.50528855606E+02  0.29999987099E+02 0.  0.
        -12    1    1    2    0    0 -0.90037290387E+00  0.40517568922E+02  0.32683268203E+01  0.40659144394E+02  0.00000000000E+00 0.  1.
         11    1    3    3    0    0 -0.57290591600E+01 -0.16530369055E+02 -0.11035144595E+02  0.20684526499E+02  0.51100000000E-03 0. -1.
        -11    1    3    3    0    0  0.98385818971E+00  0.19654443696E+01  0.99635998949E-01  0.22001991048E+01  0.51100000000E-03 0.  1.
         12    1    3    3    0    0  0.56455738742E+01 -0.25952644236E+02  0.76671817761E+01  0.27644130002E+02  0.00000000000E+00 0. -1.
</event>
<event>
 7    1  0.2817603E-011  0.5052886E+02  0.7816164E-02  0.1300439E+00
        -11   -1    0    0    0    0  0.00000000000E+00  0.00000000000E+00  0.45593999997E+02  0.45594000000E+02  0.51100000000E-03 0. -1.
         11   -1    0    0    0    0 -0.00000000000E+00 -0.00000000000E+00 -0.45593999997E+02  0.45594000000E+02  0.51100000000E-03 0.  1.
    9900012    2    1    2    0    0 -0.30245733910E+02  0.24494470567E+02  0.11763589636E+02  0.50528861431E+02  0.30000004805E+02 0.  0.
        -12    1    1    2    0    0  0.30245733910E+02 -0.24494470567E+02 -0.11763589636E+02  0.40659138569E+02  0.00000000000E+00 0.  1.
         11    1    3    3    0    0  0.18182435606E+01  0.34709497913E+01  0.19401829547E+01  0.43723920522E+01  0.51100000000E-03 0. -1.
        -11    1    3    3    0    0  0.37210004622E+01  0.31796633585E+01  0.25298522453E+01  0.55096511829E+01  0.51100000000E-03 0.  1.
         12    1    3    3    0    0 -0.35784977932E+02  0.17843857417E+02  0.72935544356E+01  0.40646818196E+02  0.00000000000E+00 0. -1.
</event>
<event>
 7    1  0.2817603E-011  0.5052886E+02  0.7816164E-02  0.1300439E+00
        -11   -1    0    0    0    0  0.00000000000E+00  0.00000000000E+00  0.45593999997E+02  0.45594000000E+02  0.51100000000E-03 0. -1.
         11   -1    0    0    0    0 -0.00000000000E+00 -0.00000000000E+00 -0.45593999997E+02  0.45594000000E+02  0.51100000000E-03 0.  1.
    9900012    2    1    2    0    0 -0.38738226136E+02 -0.11149298896E+01  0.12299281227E+02  0.50528861402E+02  0.30000004718E+02 0.  0.
        -12    1    1    2    0    0  0.38738226136E+02  0.11149298896E+01 -0.12299281227E+02  0.40659138598E+02  0.00000000000E+00 0.  1.
         11    1    3    3    0    0 -0.10839581593E+02 -0.69197314657E+01  0.10276644554E+02  0.16461732479E+02  0.51100000000E-03 0. -1.
        -11    1    3    3    0    0  0.26288191467E+01  0.12689570231E+00 -0.11143489504E+01  0.28580704102E+01  0.51100000000E-03 0.  1.
        -12    1    3    3    0    0 -0.30527463690E+02  0.56779058738E+01  0.31369856236E+01  0.31209058513E+02  0.00000000000E+00 0.  1.
</event>
<event>
 7    1  0.2817603E-011  0.5052887E+02  0.7816164E-02  0.1300439E+00
        -11   -1    0    0    0    0  0.00000000000E+00  0.00000000000E+00  0.45593999997E+02  0.45594000000E+02  0.51100000000E-03 0. -1.
         11   -1    0    0    0    0 -0.00000000000E+00 -0.00000000000E+00 -0.45593999997E+02  0.45594000000E+02  0.51100000000E-03 0.  1.
    9900012    2    1    2    0    0  0.89018198157E+01 -0.11094348545E+02  0.38089871149E+02  0.50528865112E+02  0.30000015995E+02 0.  0.
        -12    1    1    2    0    0 -0.89018198157E+01  0.11094348545E+02 -0.38089871149E+02  0.40659134888E+02  0.00000000000E+00 0.  1.
         11    1    3    3    0    0 -0.11073117721E+01 -0.55813860160E+00  0.11790838544E+02  0.11855864873E+02  0.51100000000E-03 0. -1.
        -11    1    3    3    0    0 -0.43964378164E+01 -0.11524037914E+02  0.18575986172E+02  0.22297968020E+02  0.51100000000E-03 0.  1.
         12    1    3    3    0    0  0.14405569404E+02  0.98782797053E+00  0.77230464337E+01  0.16375032219E+02  0.00000000000E+00 0. -1.
</event>
<event>
 7    1  0.2817603E-011  0.5052886E+02  0.7816164E-02  0.1300439E+00
        -11   -1    0    0    0    0  0.00000000000E+00  0.00000000000E+00  0.45593999997E+02  0.45594000000E+02  0.51100000000E-03 0. -1.
         11   -1    0    0    0    0 -0.00000000000E+00 -0.00000000000E+00 -0.45593999997E+02  0.45594000000E+02  0.51100000000E-03 0.  1.
    9900012    2    1    2    0    0 -0.34999810895E+02  0.20652664129E+02  0.12829740519E+01  0.50528864240E+02  0.30000013344E+02 0.  0.
        -12    1    1    2    0    0  0.34999810895E+02 -0.20652664129E+02 -0.12829740519E+01  0.40659135760E+02  0.00000000000E+00 0.  1.
         11    1    3    3    0    0 -0.84242789586E+01  0.13915307786E+01  0.69606519224E+01  0.11016147663E+02  0.51100000000E-03 0. -1.
        -11    1    3    3    0    0 -0.92078723684E+01  0.12428588670E+02  0.69719182366E+01  0.16966507420E+02  0.51100000000E-03 0.  1.
        -12    1    3    3    0    0 -0.17367659568E+02  0.68325446799E+01 -0.12649596107E+02  0.22546209157E+02  0.00000000000E+00 0.  1.
</event>
<event>
 7    1  0.2817603E-011  0.5052888E+02  0.7816164E-02  0.1300439E+00
        -11   -1    0    0    0    0  0.00000000000E+00  0.00000000000E+00  0.45593999997E+02  0.45594000000E+02  0.51100000000E-03 0. -1.
         11   -1    0    0    0    0 -0.00000000000E+00 -0.00000000000E+00 -0.45593999997E+02  0.45594000000E+02  0.51100000000E-03 0.  1.
    9900012    2    1    2    0    0 -0.98737918153E+01  0.38693433763E+02  0.76479289746E+01  0.50528875577E+02  0.30000047805E+02 0.  0.
        -12    1    1    2    0    0  0.98737918153E+01 -0.38693433763E+02 -0.76479289746E+01  0.40659124423E+02  0.00000000000E+00 0.  1.
         11    1    3    3    0    0 -0.44828239142E+01  0.19742476264E+02  0.10837908011E+00  0.20245316139E+02  0.51100000000E-03 0. -1.
        -11    1    3    3    0    0  0.94571514910E+00  0.21991095699E+02  0.38494255715E+01  0.22345486002E+02  0.51100000000E-03 0.  1.
        -12    1    3    3    0    0 -0.63366830502E+01 -0.30401381998E+01  0.36901243230E+01  0.79380734358E+01  0.00000000000E+00 0.  1.
</event>
<event>
 7    1  0.2817603E-011  0.5052886E+02  0.7816164E-02  0.1300439E+00
        -11   -1    0    0    0    0  0.00000000000E+00  0.00000000000E+00  0.45593999997E+02  0.45594000000E+02  0.51100000000E-03 0.  1.
         11   -1    0    0    0    0 -0.00000000000E+00 -0.00000000000E+00 -0.45593999997E+02  0.45594000000E+02  0.51100000000E-03 0. -1.
    9900012    2    1    2    0    0 -0.13743600370E+02  0.18321995639E+02 -0.33594392178E+02  0.50528864974E+02  0.30000015574E+02 0.  0.
        -12    1    1    2    0    0  0.13743600370E+02 -0.18321995639E+02  0.33594392178E+02  0.40659135026E+02  0.00000000000E+00 0.  1.
         11    1    3    3    0    0 -0.49837710081E+01  0.54774645074E+01 -0.59174955531E+01  0.94793114082E+01  0.51100000000E-03 0. -1.
        -11    1    3    3    0    0 -0.61557721502E+01  0.98015469291E+01  0.14354952023E+01  0.11662954159E+02  0.51100000000E-03 0.  1.
        -12    1    3    3    0    0 -0.26040572113E+01  0.30429842023E+01 -0.29112391827E+02  0.29386599407E+02  0.00000000000E+00 0.  1.
</event>
<event>
 7    1  0.2817603E-011  0.5052886E+02  0.7816164E-02  0.1300439E+00
        -11   -1    0    0    0    0  0.00000000000E+00  0.00000000000E+00  0.45593999997E+02  0.45594000000E+02  0.51100000000E-03 0. -1.
         11   -1    0    0    0    0 -0.00000000000E+00 -0.00000000000E+00 -0.45593999997E+02  0.45594000000E+02  0.51100000000E-03 0.  1.
    9900012    2    1    2    0    0  0.20204939195E+02  0.57617710941E+01  0.34809879479E+02  0.50528864700E+02  0.30000014742E+02 0.  0.
        -12    1    1    2    0    0 -0.20204939195E+02 -0.57617710941E+01 -0.34809879479E+02  0.40659135300E+02  0.00000000000E+00 0.  1.
         11    1    3    3    0    0  0.16680733777E+02 -0.19770375647E+01  0.26693586714E+02  0.31538914515E+02  0.51100000000E-03 0. -1.
        -11    1    3    3    0    0  0.76202981821E+01  0.39345839016E+00  0.72665153055E+01  0.10536887531E+02  0.51100000000E-03 0.  1.
        -12    1    3    3    0    0 -0.40960927639E+01  0.73453502686E+01  0.84977745927E+00  0.84530626539E+01  0.00000000000E+00 0.  1.
</event>
<event>
 7    1  0.2817603E-011  0.5052886E+02  0.7816164E-02  0.1300439E+00
        -11   -1    0    0    0    0  0.00000000000E+00  0.00000000000E+00  0.45593999997E+02  0.45594000000E+02  0.51100000000E-03 0. -1.
         11   -1    0    0    0    0 -0.00000000000E+00 -0.00000000000E+00 -0.45593999997E+02  0.45594000000E+02  0.51100000000E-03 0.  1.
    9900012    2    1    2    0    0  0.17798617869E+02  0.50591233238E+01  0.36204697309E+02  0.50528860387E+02  0.30000001633E+02 0.  0.
        -12    1    1    2    0    0 -0.17798617869E+02 -0.50591233238E+01 -0.36204697309E+02  0.40659139613E+02  0.00000000000E+00 0.  1.
         11    1    3    3    0    0 -0.91869216246E+00 -0.42209267842E+01  0.17246862250E+02  0.17779608430E+02  0.51100000000E-03 0. -1.
        -11    1    3    3    0    0 -0.15709018017E+01  0.12075677466E+01  0.81466611482E+01  0.83841541289E+01  0.51100000000E-03 0.  1.
        -12    1    3    3    0    0  0.20288211833E+02  0.80724823613E+01  0.10811173911E+02  0.24365097828E+02  0.00000000000E+00 0.  1.
</event>
<event>
 7    1  0.2817603E-011  0.5052885E+02  0.7816164E-02  0.1300439E+00
        -11   -1    0    0    0    0  0.00000000000E+00  0.00000000000E+00  0.45593999997E+02  0.45594000000E+02  0.51100000000E-03 0. -1.
         11   -1    0    0    0    0 -0.00000000000E+00 -0.00000000000E+00 -0.45593999997E+02  0.45594000000E+02  0.51100000000E-03 0.  1.
    9900012    2    1    2    0    0  0.14493424566E+02 -0.33102832837E+01  0.37843745981E+02  0.50528850465E+02  0.29999971473E+02 0.  0.
        -12    1    1    2    0    0 -0.14493424566E+02  0.33102832837E+01 -0.37843745981E+02  0.40659149535E+02  0.00000000000E+00 0.  1.
         11    1    3    3    0    0  0.11843315128E+02  0.30541369970E+01  0.25486394377E+02  0.28269208772E+02  0.51100000000E-03 0. -1.
        -11    1    3    3    0    0  0.70901155431E+01  0.62821659380E+00  0.12020241746E+02  0.13969631577E+02  0.51100000000E-03 0.  1.
        -12    1    3    3    0    0 -0.44400061041E+01 -0.69926368745E+01  0.33710985785E+00  0.82900101158E+01  0.00000000000E+00 0.  1.
</event>
<event>
 7    1  0.2817603E-011  0.5052886E+02  0.7816164E-02  0.1300439E+00
        -11   -1    0    0    0    0  0.00000000000E+00  0.00000000000E+00  0.45593999997E+02  0.45594000000E+02  0.51100000000E-03 0.  1.
         11   -1    0    0    0    0 -0.00000000000E+00 -0.00000000000E+00 -0.45593999997E+02  0.45594000000E+02  0.51100000000E-03 0. -1.
    9900012    2    1    2    0    0  0.15423966262E+02 -0.29163004175E+02 -0.23765232607E+02  0.50528857995E+02  0.29999994362E+02 0.  0.
        -12    1    1    2    0    0 -0.15423966262E+02  0.29163004175E+02  0.23765232607E+02  0.40659142005E+02  0.00000000000E+00 0.  1.
         11    1    3    3    0    0  0.87387221147E+01 -0.12822769811E+02 -0.24011610178E+02  0.28589265703E+02  0.51100000000E-03 0. -1.
        -11    1    3    3    0    0  0.38674097057E+01 -0.55029539026E+00 -0.37444564810E+01  0.54111586049E+01  0.51100000000E-03 0.  1.
         12    1    3    3    0    0  0.28178344411E+01 -0.15789938973E+02  0.39908340525E+01  0.16528433687E+02  0.00000000000E+00 0. -1.
</event>
<event>
 7    1  0.2817603E-011  0.5052886E+02  0.7816164E-02  0.1300439E+00
        -11   -1    0    0    0    0  0.00000000000E+00  0.00000000000E+00  0.45593999997E+02  0.45594000000E+02  0.51100000000E-03 0. -1.
         11   -1    0    0    0    0 -0.00000000000E+00 -0.00000000000E+00 -0.45593999997E+02  0.45594000000E+02  0.51100000000E-03 0.  1.
    9900012    2    1    2    0    0 -0.26174495798E+02 -0.17713395008E+02  0.25579231167E+02  0.50528860067E+02  0.30000000659E+02 0.  0.
        -12    1    1    2    0    0  0.26174495798E+02  0.17713395008E+02 -0.25579231167E+02  0.40659139933E+02  0.00000000000E+00 0.  1.
         11    1    3    3    0    0 -0.21816260890E+02 -0.98914060511E+01  0.37452519940E+01  0.24244918347E+02  0.51100000000E-03 0. -1.
        -11    1    3    3    0    0 -0.22507797254E+01 -0.45013189922E+00 -0.76522103788E+00  0.24195436754E+01  0.51100000000E-03 0.  1.
        -12    1    3    3    0    0 -0.21074551826E+01 -0.73718570577E+01  0.22599200211E+02  0.23864398044E+02  0.00000000000E+00 0.  1.
</event>
<event>
 7    1  0.2817603E-011  0.5052886E+02  0.7816164E-02  0.1300439E+00
        -11   -1    0    0    0    0  0.00000000000E+00  0.00000000000E+00  0.45593999997E+02  0.45594000000E+02  0.51100000000E-03 0.  1.
         11   -1    0    0    0    0 -0.00000000000E+00 -0.00000000000E+00 -0.45593999997E+02  0.45594000000E+02  0.51100000000E-03 0. -1.
    9900012    2    1    2    0    0  0.14154020043E+02 -0.18566839377E+02 -0.33288163306E+02  0.50528860509E+02  0.30000002004E+02 0.  0.
        -12    1    1    2    0    0 -0.14154020043E+02  0.18566839377E+02  0.33288163306E+02  0.40659139491E+02  0.00000000000E+00 0.  1.
         11    1    3    3    0    0  0.81527784951E+00 -0.10740689167E+02 -0.97768794772E+01  0.14546974061E+02  0.51100000000E-03 0. -1.
        -11    1    3    3    0    0 -0.58699378794E+01 -0.43279526363E+01 -0.37442873242E+01  0.81979895436E+01  0.51100000000E-03 0.  1.
        -12    1    3    3    0    0  0.19208680073E+02 -0.34981975742E+01 -0.19766996505E+02  0.27783896905E+02  0.00000000000E+00 0.  1.
</event>
<event>
 7    1  0.2817603E-011  0.5052885E+02  0.7816164E-02  0.1300439E+00
        -11   -1    0    0    0    0  0.00000000000E+00  0.00000000000E+00  0.45593999997E+02  0.45594000000E+02  0.51100000000E-03 0.  1.
         11   -1    0    0    0    0 -0.00000000000E+00 -0.00000000000E+00 -0.45593999997E+02  0.45594000000E+02  0.51100000000E-03 0. -1.
    9900012    2    1    2    0    0  0.44982864208E+01  0.23054730813E+02 -0.33187515197E+02  0.50528851478E+02  0.29999974553E+02 0.  0.
        -12    1    1    2    0    0 -0.44982864208E+01 -0.23054730813E+02  0.33187515197E+02  0.40659148522E+02  0.00000000000E+00 0.  1.
         11    1    3    3    0    0 -0.77376005220E+01  0.83903760678E+01 -0.15867988280E+02  0.19546404394E+02  0.51100000000E-03 0. -1.
        -11    1    3    3    0    0  0.61097815454E+01  0.62726652580E+01  0.20581428439E+01  0.89950937848E+01  0.51100000000E-03 0.  1.
         12    1    3    3    0    0  0.61261053975E+01  0.83916894874E+01 -0.19377669760E+02  0.21987353300E+02  0.00000000000E+00 0. -1.
</event>
<event>
 7    1  0.2817603E-011  0.5052886E+02  0.7816164E-02  0.1300439E+00
        -11   -1    0    0    0    0  0.00000000000E+00  0.00000000000E+00  0.45593999997E+02  0.45594000000E+02  0.51100000000E-03 0.  1.
         11   -1    0    0    0    0 -0.00000000000E+00 -0.00000000000E+00 -0.45593999997E+02  0.45594000000E+02  0.51100000000E-03 0. -1.
    9900012    2    1    2    0    0  0.29891995095E+02 -0.20970055752E+02 -0.17885507711E+02  0.50528855948E+02  0.29999988138E+02 0.  0.
        -12    1    1    2    0    0 -0.29891995095E+02  0.20970055752E+02  0.17885507711E+02  0.40659144052E+02  0.00000000000E+00 0.  1.
         11    1    3    3    0    0  0.11072737493E+02 -0.56211107958E+01 -0.14167167953E+02  0.18839083052E+02  0.51100000000E-03 0. -1.
        -11    1    3    3    0    0  0.20050839429E+02 -0.50713292931E+01  0.25924640384E-01  0.20682243953E+02  0.51100000000E-03 0.  1.
         12    1    3    3    0    0 -0.12315818274E+01 -0.10277615664E+02 -0.37442643980E+01  0.11007528942E+02  0.00000000000E+00 0. -1.
</event>
<event>
 7    1  0.2817603E-011  0.5052887E+02  0.7816164E-02  0.1300439E+00
        -11   -1    0    0    0    0  0.00000000000E+00  0.00000000000E+00  0.45593999997E+02  0.45594000000E+02  0.51100000000E-03 0. -1.
         11   -1    0    0    0    0 -0.00000000000E+00 -0.00000000000E+00 -0.45593999997E+02  0.45594000000E+02  0.51100000000E-03 0.  1.
    9900012    2    1    2    0    0  0.29844849975E+02  0.21263876286E+01  0.27530498313E+02  0.50528869024E+02  0.30000027886E+02 0.  0.
        -12    1    1    2    0    0 -0.29844849975E+02 -0.21263876286E+01 -0.27530498313E+02  0.40659130976E+02  0.00000000000E+00 0.  1.
         11    1    3    3    0    0  0.73432519324E+01  0.12808713017E+01  0.17047714360E+02  0.18606142679E+02  0.51100000000E-03 0. -1.
        -11    1    3    3    0    0  0.21194980473E+02 -0.10432049011E+01  0.30046326275E-01  0.21220659197E+02  0.51100000000E-03 0.  1.
         12    1    3    3    0    0  0.13066175696E+01  0.18887212280E+01  0.10452737627E+02  0.10702067149E+02  0.00000000000E+00 0. -1.
</event>
<event>
 7    1  0.2817603E-011  0.5052885E+02  0.7816164E-02  0.1300439E+00
        -11   -1    0    0    0    0  0.00000000000E+00  0.00000000000E+00  0.45593999997E+02  0.45594000000E+02  0.51100000000E-03 0.  1.
         11   -1    0    0    0    0 -0.00000000000E+00 -0.00000000000E+00 -0.45593999997E+02  0.45594000000E+02  0.51100000000E-03 0. -1.
    9900012    2    1    2    0    0 -0.17737315400E+02  0.25907654936E+02 -0.25833070572E+02  0.50528850021E+02  0.29999970123E+02 0.  0.
        -12    1    1    2    0    0  0.17737315400E+02 -0.25907654936E+02  0.25833070572E+02  0.40659149979E+02  0.00000000000E+00 0.  1.
         11    1    3    3    0    0  0.66961275451E+01  0.11725075592E+01 -0.89734794707E+01  0.11257718781E+02  0.51100000000E-03 0. -1.
        -11    1    3    3    0    0 -0.13091113185E+02  0.15392524183E+02 -0.62653927447E+01  0.21155665711E+02  0.51100000000E-03 0.  1.
        -12    1    3    3    0    0 -0.11342329760E+02  0.93426231938E+01 -0.10594198357E+02  0.18115465529E+02  0.00000000000E+00 0.  1.
</event>
<event>
 7    1  0.2817603E-011  0.5052887E+02  0.7816164E-02  0.1300439E+00
        -11   -1    0    0    0    0  0.00000000000E+00  0.00000000000E+00  0.45593999997E+02  0.45594000000E+02  0.51100000000E-03 0.  1.
         11   -1    0    0    0    0 -0.00000000000E+00 -0.00000000000E+00 -0.45593999997E+02  0.45594000000E+02  0.51100000000E-03 0. -1.
    9900012    2    1    2    0    0  0.34775012761E+02 -0.19525503975E+02 -0.79131712852E+01  0.50528866982E+02  0.30000021678E+02 0.  0.
        -12    1    1    2    0    0 -0.34775012761E+02  0.19525503975E+02  0.79131712852E+01  0.40659133018E+02  0.00000000000E+00 0.  1.
         11    1    3    3    0    0  0.26778697134E+02 -0.47043478932E+01 -0.61309575809E+01  0.27871457630E+02  0.51100000000E-03 0. -1.
        -11    1    3    3    0    0  0.21824802035E+01 -0.26662604452E+00 -0.60307267946E+01  0.64190322650E+01  0.51100000000E-03 0.  1.
        -12    1    3    3    0    0  0.58138354232E+01 -0.14554530037E+02  0.42485130903E+01  0.16238377087E+02  0.00000000000E+00 0.  1.
</event>
<event>
 7    1  0.2817603E-011  0.5052890E+02  0.7816164E-02  0.1300439E+00
        -11   -1    0    0    0    0  0.00000000000E+00  0.00000000000E+00  0.45593999997E+02  0.45594000000E+02  0.51100000000E-03 0. -1.
         11   -1    0    0    0    0 -0.00000000000E+00 -0.00000000000E+00 -0.45593999997E+02  0.45594000000E+02  0.51100000000E-03 0.  1.
    9900012    2    1    2    0    0  0.36208412454E+02  0.62535854632E+01  0.17407070149E+02  0.50528898255E+02  0.30000116736E+02 0.  0.
        -12    1    1    2    0    0 -0.36208412454E+02 -0.62535854632E+01 -0.17407070149E+02  0.40659101745E+02  0.00000000000E+00 0.  1.
         11    1    3    3    0    0  0.19866180805E+02  0.33326800868E+01  0.59116831550E+01  0.20993329758E+02  0.51100000000E-03 0. -1.
        -11    1    3    3    0    0  0.14592723825E+02  0.44242991341E+01 -0.24119326331E+01  0.15438245715E+02  0.51100000000E-03 0.  1.
        -12    1    3    3    0    0  0.17495078230E+01 -0.15033937578E+01  0.13907319627E+02  0.14097322782E+02  0.00000000000E+00 0.  1.
</event>
<event>
 7    1  0.2817603E-011  0.5052886E+02  0.7816164E-02  0.1300439E+00
        -11   -1    0    0    0    0  0.00000000000E+00  0.00000000000E+00  0.45593999997E+02  0.45594000000E+02  0.51100000000E-03 0.  1.
         11   -1    0    0    0    0 -0.00000000000E+00 -0.00000000000E+00 -0.45593999997E+02  0.45594000000E+02  0.51100000000E-03 0. -1.
    9900012    2    1    2    0    0  0.29581505776E+02  0.10359273358E+02 -0.25899531995E+02  0.50528858518E+02  0.29999995953E+02 0.  0.
        -12    1    1    2    0    0 -0.29581505776E+02 -0.10359273358E+02  0.25899531995E+02  0.40659141482E+02  0.00000000000E+00 0.  1.
         11    1    3    3    0    0  0.17207632285E+02  0.98905012052E+01 -0.15064829124E+02  0.24917337333E+02  0.51100000000E-03 0. -1.
        -11    1    3    3    0    0  0.17159853919E+02  0.31392786103E+01 -0.64720761504E+01  0.18606542577E+02  0.51100000000E-03 0.  1.
        -12    1    3    3    0    0 -0.47859804286E+01 -0.26705064579E+01 -0.43626267202E+01  0.70049786084E+01  0.00000000000E+00 0.  1.
</event>
<event>
 7    1  0.2817603E-011  0.5052886E+02  0.7816164E-02  0.1300439E+00
        -11   -1    0    0    0    0  0.00000000000E+00  0.00000000000E+00  0.45593999997E+02  0.45594000000E+02  0.51100000000E-03 0. -1.
         11   -1    0    0    0    0 -0.00000000000E+00 -0.00000000000E+00 -0.45593999997E+02  0.45594000000E+02  0.51100000000E-03 0.  1.
    9900012    2    1    2    0    0 -0.23830480831E+02  0.32773654567E+02 -0.33409003223E+01  0.50528857544E+02  0.29999992992E+02 0.  0.
        -12    1    1    2    0    0  0.23830480831E+02 -0.32773654567E+02  0.33409003223E+01  0.40659142456E+02  0.00000000000E+00 0.  1.
         11    1    3    3    0    0 -0.53771027775E+01  0.82397375770E+01 -0.35354050929E+01  0.10454931805E+02  0.51100000000E-03 0. -1.
        -11    1    3    3    0    0  0.45281622692E+01  0.75858955127E+00  0.48528394373E+01  0.66805510632E+01  0.51100000000E-03 0.  1.
         12    1    3    3    0    0 -0.22981540322E+02  0.23775327438E+02 -0.46583346667E+01  0.33393374676E+02  0.00000000000E+00 0. -1.
</event>
<event>
 7    1  0.2817603E-011  0.5052886E+02  0.7816164E-02  0.1300439E+00
        -11   -1    0    0    0    0  0.00000000000E+00  0.00000000000E+00  0.45593999997E+02  0.45594000000E+02  0.51100000000E-03 0. -1.
         11   -1    0    0    0    0 -0.00000000000E+00 -0.00000000000E+00 -0.45593999997E+02  0.45594000000E+02  0.51100000000E-03 0.  1.
    9900012    2    1    2    0    0  0.40064809268E+01  0.40323335710E+02 -0.33379744868E+01  0.50528863685E+02  0.30000011657E+02 0.  0.
        -12    1    1    2    0    0 -0.40064809268E+01 -0.40323335710E+02  0.33379744868E+01  0.40659136315E+02  0.00000000000E+00 0.  1.
         11    1    3    3    0    0 -0.22776391627E+01 -0.51705677441E+00  0.24945341687E+01  0.34172633559E+01  0.51100000000E-03 0. -1.
        -11    1    3    3    0    0 -0.50817467073E+00 -0.21160475655E+01  0.19601503071E+01  0.29288373603E+01  0.51100000000E-03 0.  1.
         12    1    3    3    0    0  0.67922947603E+01  0.42956440050E+02 -0.77926589626E+01  0.44182762969E+02  0.00000000000E+00 0. -1.
</event>
<event>
 7    1  0.2817603E-011  0.5052887E+02  0.7816164E-02  0.1300439E+00
        -11   -1    0    0    0    0  0.00000000000E+00  0.00000000000E+00  0.45593999997E+02  0.45594000000E+02  0.51100000000E-03 0. -1.
         11   -1    0    0    0    0 -0.00000000000E+00 -0.00000000000E+00 -0.45593999997E+02  0.45594000000E+02  0.51100000000E-03 0.  1.
    9900012    2    1    2    0    0 -0.18646950011E+02  0.15834874712E+02  0.32476339637E+02  0.50528872635E+02  0.30000038862E+02 0.  0.
        -12    1    1    2    0    0  0.18646950011E+02 -0.15834874712E+02 -0.32476339637E+02  0.40659127365E+02  0.00000000000E+00 0.  1.
         11    1    3    3    0    0  0.64538717567E+00 -0.35187747947E-02 -0.34240999293E+00  0.73060375901E+00  0.51100000000E-03 0.  1.
        -11    1    3    3    0    0 -0.13481091599E+02  0.17430871862E+02  0.36573313491E+02  0.42698739847E+02  0.51100000000E-03 0. -1.
        -12    1    3    3    0    0 -0.58112455877E+01 -0.15924783744E+01 -0.37545638608E+01  0.70995290293E+01  0.00000000000E+00 0.  1.
</event>
<event>
 7    1  0.2817603E-011  0.5052887E+02  0.7816164E-02  0.1300439E+00
        -11   -1    0    0    0    0  0.00000000000E+00  0.00000000000E+00  0.45593999997E+02  0.45594000000E+02  0.51100000000E-03 0. -1.
         11   -1    0    0    0    0 -0.00000000000E+00 -0.00000000000E+00 -0.45593999997E+02  0.45594000000E+02  0.51100000000E-03 0.  1.
    9900012    2    1    2    0    0  0.19284977518E+02 -0.35782565835E+02 -0.92870093263E+00  0.50528869893E+02  0.30000030528E+02 0.  0.
        -12    1    1    2    0    0 -0.19284977518E+02  0.35782565835E+02  0.92870093263E+00  0.40659130107E+02  0.00000000000E+00 0.  1.
         11    1    3    3    0    0  0.84544215556E+01 -0.13508421127E+02  0.71714748805E+00  0.15952084063E+02  0.51100000000E-03 0. -1.
        -11    1    3    3    0    0  0.83198831276E+01 -0.18805775665E+02  0.94885331017E+01  0.22647514528E+02  0.51100000000E-03 0.  1.
        -12    1    3    3    0    0  0.25106728349E+01 -0.34683690425E+01 -0.11134381522E+02  0.11929271302E+02  0.00000000000E+00 0.  1.
</event>
<event>
 7    1  0.2817603E-011  0.5052888E+02  0.7816164E-02  0.1300439E+00
        -11   -1    0    0    0    0  0.00000000000E+00  0.00000000000E+00  0.45593999997E+02  0.45594000000E+02  0.51100000000E-03 0.  1.
         11   -1    0    0    0    0 -0.00000000000E+00 -0.00000000000E+00 -0.45593999997E+02  0.45594000000E+02  0.51100000000E-03 0. -1.
    9900012    2    1    2    0    0  0.18787640715E+02 -0.32321181640E+01 -0.35912981506E+02  0.50528877135E+02  0.30000052540E+02 0.  0.
        -12    1    1    2    0    0 -0.18787640715E+02  0.32321181640E+01  0.35912981506E+02  0.40659122865E+02  0.00000000000E+00 0.  1.
         11    1    3    3    0    0  0.11473125555E+02 -0.96933182254E+01 -0.61211423843E+01  0.16219168060E+02  0.51100000000E-03 0. -1.
        -11    1    3    3    0    0 -0.82668099658E+00  0.20315230717E+01  0.80774154896E+00  0.23372920511E+01  0.51100000000E-03 0.  1.
         12    1    3    3    0    0  0.81411961567E+01  0.44296769897E+01 -0.30599580671E+02  0.31972417024E+02  0.00000000000E+00 0. -1.
</event>
<event>
 7    1  0.2817603E-011  0.5052886E+02  0.7816164E-02  0.1300439E+00
        -11   -1    0    0    0    0  0.00000000000E+00  0.00000000000E+00  0.45593999997E+02  0.45594000000E+02  0.51100000000E-03 0. -1.
         11   -1    0    0    0    0 -0.00000000000E+00 -0.00000000000E+00 -0.45593999997E+02  0.45594000000E+02  0.51100000000E-03 0.  1.
    9900012    2    1    2    0    0  0.15610843143E+02  0.32337323116E+02  0.19072618108E+02  0.50528860174E+02  0.30000000984E+02 0.  0.
        -12    1    1    2    0    0 -0.15610843143E+02 -0.32337323116E+02 -0.19072618108E+02  0.40659139826E+02  0.00000000000E+00 0.  1.
         11    1    3    3    0    0  0.42059796018E+01  0.17532260155E+02  0.12179448547E+02  0.21757972739E+02  0.51100000000E-03 0.  1.
        -11    1    3    3    0    0  0.15239307675E+01  0.14067847460E+02  0.11121872667E+02  0.17997854011E+02  0.51100000000E-03 0. -1.
        -12    1    3    3    0    0  0.98809327740E+01  0.73721550154E+00 -0.42287031061E+01  0.10773033423E+02  0.00000000000E+00 0.  1.
</event>
<event>
 7    1  0.2817603E-011  0.5052885E+02  0.7816164E-02  0.1300439E+00
        -11   -1    0    0    0    0  0.00000000000E+00  0.00000000000E+00  0.45593999997E+02  0.45594000000E+02  0.51100000000E-03 0. -1.
         11   -1    0    0    0    0 -0.00000000000E+00 -0.00000000000E+00 -0.45593999997E+02  0.45594000000E+02  0.51100000000E-03 0.  1.
    9900012    2    1    2    0    0 -0.26206403481E+02  0.30756113702E+02 -0.45223917661E+01  0.50528854156E+02  0.29999982692E+02 0.  0.
        -12    1    1    2    0    0  0.26206403481E+02 -0.30756113702E+02  0.45223917661E+01  0.40659145844E+02  0.00000000000E+00 0.  1.
         11    1    3    3    0    0 -0.74578090105E+01 -0.34539363699E+01  0.84636259993E+00  0.82622588676E+01  0.51100000000E-03 0. -1.
        -11    1    3    3    0    0 -0.11469006695E+01  0.65466116750E+01 -0.67182882834E+01  0.94503387923E+01  0.51100000000E-03 0.  1.
        -12    1    3    3    0    0 -0.17601693802E+02  0.27663438397E+02  0.13495339174E+01  0.32816256496E+02  0.00000000000E+00 0.  1.
</event>
<event>
 7    1  0.2817603E-011  0.5052886E+02  0.7816164E-02  0.1300439E+00
        -11   -1    0    0    0    0  0.00000000000E+00  0.00000000000E+00  0.45593999997E+02  0.45594000000E+02  0.51100000000E-03 0. -1.
         11   -1    0    0    0    0 -0.00000000000E+00 -0.00000000000E+00 -0.45593999997E+02  0.45594000000E+02  0.51100000000E-03 0.  1.
    9900012    2    1    2    0    0  0.28476832243E+02  0.27453674520E+02 -0.94091219628E+01  0.50528858404E+02  0.29999995603E+02 0.  0.
        -12    1    1    2    0    0 -0.28476832243E+02 -0.27453674520E+02  0.94091219628E+01  0.40659141596E+02  0.00000000000E+00 0.  1.
         11    1    3    3    0    0  0.23549055472E+01 -0.29307224861E+01 -0.83990828091E+00  0.38522929027E+01  0.51100000000E-03 0. -1.
        -11    1    3    3    0    0  0.54135053265E+00 -0.29682394358E+01 -0.30373097013E+01  0.42812096690E+01  0.51100000000E-03 0.  1.
         12    1    3    3    0    0  0.25580576163E+02  0.33352636442E+02 -0.55319039806E+01  0.42395355832E+02  0.00000000000E+00 0. -1.
</event>
<event>
 7    1  0.2817603E-011  0.5052883E+02  0.7816164E-02  0.1300439E+00
        -11   -1    0    0    0    0  0.00000000000E+00  0.00000000000E+00  0.45593999997E+02  0.45594000000E+02  0.51100000000E-03 0.  1.
         11   -1    0    0    0    0 -0.00000000000E+00 -0.00000000000E+00 -0.45593999997E+02  0.45594000000E+02  0.51100000000E-03 0. -1.
    9900012    2    1    2    0    0  0.14621411059E+02  0.21875503759E+02 -0.30997492610E+02  0.50528832839E+02  0.29999917899E+02 0.  0.
        -12    1    1    2    0    0 -0.14621411059E+02 -0.21875503759E+02  0.30997492610E+02  0.40659167161E+02  0.00000000000E+00 0.  1.
         11    1    3    3    0    0 -0.16742044926E+01 -0.18484754503E+01  0.14615929986E+01  0.28906878988E+01  0.51100000000E-03 0. -1.
        -11    1    3    3    0    0 -0.16220479768E+01 -0.22844032611E+01 -0.78712996443E+00  0.29101738333E+01  0.51100000000E-03 0.  1.
         12    1    3    3    0    0  0.17917663528E+02  0.26008382470E+02 -0.31671955645E+02  0.44727971107E+02  0.00000000000E+00 0. -1.
</event>
<event>
 7    1  0.2817603E-011  0.5052887E+02  0.7816164E-02  0.1300439E+00
        -11   -1    0    0    0    0  0.00000000000E+00  0.00000000000E+00  0.45593999997E+02  0.45594000000E+02  0.51100000000E-03 0. -1.
         11   -1    0    0    0    0 -0.00000000000E+00 -0.00000000000E+00 -0.45593999997E+02  0.45594000000E+02  0.51100000000E-03 0.  1.
    9900012    2    1    2    0    0  0.27071939243E+02 -0.21419555101E+02 -0.21482036989E+02  0.50528866361E+02  0.30000019790E+02 0.  0.
        -12    1    1    2    0    0 -0.27071939243E+02  0.21419555101E+02  0.21482036989E+02  0.40659133639E+02  0.00000000000E+00 0.  1.
         11    1    3    3    0    0  0.16380457764E+02 -0.11924104186E+02 -0.77739803652E+01  0.21701115828E+02  0.51100000000E-03 0. -1.
        -11    1    3    3    0    0  0.13096481436E+02 -0.10998769580E+02 -0.17249456113E+02  0.24290625655E+02  0.51100000000E-03 0.  1.
         12    1    3    3    0    0 -0.24049999571E+01  0.15033186656E+01  0.35413994895E+01  0.45371248769E+01  0.00000000000E+00 0. -1.
</event>
<event>
 7    1  0.2817603E-011  0.5052886E+02  0.7816164E-02  0.1300439E+00
        -11   -1    0    0    0    0  0.00000000000E+00  0.00000000000E+00  0.45593999997E+02  0.45594000000E+02  0.51100000000E-03 0. -1.
         11   -1    0    0    0    0 -0.00000000000E+00 -0.00000000000E+00 -0.45593999997E+02  0.45594000000E+02  0.51100000000E-03 0.  1.
    9900012    2    1    2    0    0 -0.25394333570E+02 -0.31538629790E+02  0.36889371082E+01  0.50528860763E+02  0.30000002776E+02 0.  0.
        -12    1    1    2    0    0  0.25394333570E+02  0.31538629790E+02 -0.36889371082E+01  0.40659139237E+02  0.00000000000E+00 0.  1.
         11    1    3    3    0    0 -0.17371867060E+01  0.24640713273E+01 -0.14177928135E+01  0.33316065014E+01  0.51100000000E-03 0. -1.
        -11    1    3    3    0    0  0.89493865370E+00 -0.67810222109E+01 -0.57817756055E+01  0.89561211935E+01  0.51100000000E-03 0.  1.
         12    1    3    3    0    0 -0.24552085517E+02 -0.27221678907E+02  0.10888505527E+02  0.38241133068E+02  0.00000000000E+00 0. -1.
</event>
<event>
 7    1  0.2817603E-011  0.5052886E+02  0.7816164E-02  0.1300439E+00
        -11   -1    0    0    0    0  0.00000000000E+00  0.00000000000E+00  0.45593999997E+02  0.45594000000E+02  0.51100000000E-03 0.  1.
         11   -1    0    0    0    0 -0.00000000000E+00 -0.00000000000E+00 -0.45593999997E+02  0.45594000000E+02  0.51100000000E-03 0. -1.
    9900012    2    1    2    0    0  0.23466497386E+02  0.12515119111E+02 -0.30754859187E+02  0.50528855032E+02  0.29999985356E+02 0.  0.
        -12    1    1    2    0    0 -0.23466497386E+02 -0.12515119111E+02  0.30754859187E+02  0.40659144968E+02  0.00000000000E+00 0.  1.
         11    1    3    3    0    0  0.10037027959E+02  0.92322709399E+01 -0.25794349947E+02  0.29177478410E+02  0.51100000000E-03 0. -1.
        -11    1    3    3    0    0  0.13685043045E+02  0.51850369836E+01 -0.87875514082E+01  0.17070034320E+02  0.51100000000E-03 0.  1.
        -12    1    3    3    0    0 -0.25557361813E+00 -0.19021888129E+01  0.38270421680E+01  0.42813423023E+01  0.00000000000E+00 0.  1.
</event>
<event>
 7    1  0.2817603E-011  0.5052885E+02  0.7816164E-02  0.1300439E+00
        -11   -1    0    0    0    0  0.00000000000E+00  0.00000000000E+00  0.45593999997E+02  0.45594000000E+02  0.51100000000E-03 0. -1.
         11   -1    0    0    0    0 -0.00000000000E+00 -0.00000000000E+00 -0.45593999997E+02  0.45594000000E+02  0.51100000000E-03 0.  1.
    9900012    2    1    2    0    0 -0.19888917827E+02  0.46703083325E+01  0.35153739574E+02  0.50528852957E+02  0.29999979048E+02 0.  0.
        -12    1    1    2    0    0  0.19888917827E+02 -0.46703083325E+01 -0.35153739574E+02  0.40659147043E+02  0.00000000000E+00 0.  1.
         11    1    3    3    0    0  0.46137885669E+00  0.76371792531E+00  0.28408930825E+00  0.93639869448E+00  0.51100000000E-03 0. -1.
        -11    1    3    3    0    0 -0.57368371313E+01  0.14875708428E+02  0.10331329467E+02  0.18998272825E+02  0.51100000000E-03 0.  1.
         12    1    3    3    0    0 -0.14613459552E+02 -0.10969118021E+02  0.24538320799E+02  0.30594181438E+02  0.00000000000E+00 0. -1.
</event>
<event>
 7    1  0.2817603E-011  0.5052886E+02  0.7816164E-02  0.1300439E+00
        -11   -1    0    0    0    0  0.00000000000E+00  0.00000000000E+00  0.45593999997E+02  0.45594000000E+02  0.51100000000E-03 0.  1.
         11   -1    0    0    0    0 -0.00000000000E+00 -0.00000000000E+00 -0.45593999997E+02  0.45594000000E+02  0.51100000000E-03 0. -1.
    9900012    2    1    2    0    0  0.15598852191E+01 -0.40543967130E+02 -0.26303900661E+01  0.50528862473E+02  0.30000007973E+02 0.  0.
        -12    1    1    2    0    0 -0.15598852191E+01  0.40543967130E+02  0.26303900661E+01  0.40659137527E+02  0.00000000000E+00 0.  1.
         11    1    3    3    0    0  0.38224947016E+01 -0.18205599969E+01  0.12096812454E+01  0.44033207267E+01  0.51100000000E-03 0. -1.
        -11    1    3    3    0    0 -0.13181195550E+02 -0.20132952859E+02  0.77861991302E+00  0.24076668295E+02  0.51100000000E-03 0.  1.
         12    1    3    3    0    0  0.10918586068E+02 -0.18590454274E+02 -0.46186912245E+01  0.22048873451E+02  0.00000000000E+00 0. -1.
</event>
<event>
 7    1  0.2817603E-011  0.5052887E+02  0.7816164E-02  0.1300439E+00
        -11   -1    0    0    0    0  0.00000000000E+00  0.00000000000E+00  0.45593999997E+02  0.45594000000E+02  0.51100000000E-03 0.  1.
         11   -1    0    0    0    0 -0.00000000000E+00 -0.00000000000E+00 -0.45593999997E+02  0.45594000000E+02  0.51100000000E-03 0. -1.
    9900012    2    1    2    0    0 -0.29244902584E+02 -0.13458711968E+02 -0.24834719849E+02  0.50528873534E+02  0.30000041594E+02 0.  0.
        -12    1    1    2    0    0  0.29244902584E+02  0.13458711968E+02  0.24834719849E+02  0.40659126466E+02  0.00000000000E+00 0.  1.
         11    1    3    3    0    0 -0.20242536819E+02 -0.12574257440E+02 -0.18587097393E+02  0.30221721274E+02  0.51100000000E-03 0. -1.
        -11    1    3    3    0    0  0.26431037897E+01 -0.17390677545E+01 -0.79037594571E+01  0.85135050428E+01  0.51100000000E-03 0.  1.
         12    1    3    3    0    0 -0.11645469555E+02  0.85461322573E+00  0.16561370009E+01  0.11793647217E+02  0.00000000000E+00 0. -1.
</event>
<event>
 7    1  0.2817603E-011  0.5052886E+02  0.7816164E-02  0.1300439E+00
        -11   -1    0    0    0    0  0.00000000000E+00  0.00000000000E+00  0.45593999997E+02  0.45594000000E+02  0.51100000000E-03 0. -1.
         11   -1    0    0    0    0 -0.00000000000E+00 -0.00000000000E+00 -0.45593999997E+02  0.45594000000E+02  0.51100000000E-03 0.  1.
    9900012    2    1    2    0    0  0.18971925925E+02  0.31282206230E+02 -0.17738520508E+02  0.50528861916E+02  0.30000006281E+02 0.  0.
        -12    1    1    2    0    0 -0.18971925925E+02 -0.31282206230E+02  0.17738520508E+02  0.40659138084E+02  0.00000000000E+00 0.  1.
         11    1    3    3    0    0  0.35296756413E+01  0.98789170426E+00 -0.10915364142E+01  0.38243943516E+01  0.51100000000E-03 0. -1.
        -11    1    3    3    0    0  0.19223086572E+02  0.83377511606E+01 -0.49045750755E+01  0.21519758565E+02  0.51100000000E-03 0.  1.
         12    1    3    3    0    0 -0.37808362884E+01  0.21956563365E+02 -0.11742409018E+02  0.25184708999E+02  0.00000000000E+00 0. -1.
</event>
<event>
 7    1  0.2817603E-011  0.5052885E+02  0.7816164E-02  0.1300439E+00
        -11   -1    0    0    0    0  0.00000000000E+00  0.00000000000E+00  0.45593999997E+02  0.45594000000E+02  0.51100000000E-03 0.  1.
         11   -1    0    0    0    0 -0.00000000000E+00 -0.00000000000E+00 -0.45593999997E+02  0.45594000000E+02  0.51100000000E-03 0. -1.
    9900012    2    1    2    0    0 -0.13242941253E+01  0.18243883400E+02 -0.36312164877E+02  0.50528851528E+02  0.29999974705E+02 0.  0.
        -12    1    1    2    0    0  0.13242941253E+01 -0.18243883400E+02  0.36312164877E+02  0.40659148472E+02  0.00000000000E+00 0.  1.
         11    1    3    3    0    0 -0.73817416615E+00  0.51926036210E+01 -0.90372447620E+01  0.10448915093E+02  0.51100000000E-03 0. -1.
        -11    1    3    3    0    0 -0.63562827787E+01  0.18669127641E+02 -0.12786890650E+02  0.23504110925E+02  0.51100000000E-03 0.  1.
        -12    1    3    3    0    0  0.57701628195E+01 -0.56178478622E+01 -0.14488029465E+02  0.16575825510E+02  0.00000000000E+00 0.  1.
</event>
<event>
 7    1  0.2817603E-011  0.5052886E+02  0.7816164E-02  0.1300439E+00
        -11   -1    0    0    0    0  0.00000000000E+00  0.00000000000E+00  0.45593999997E+02  0.45594000000E+02  0.51100000000E-03 0.  1.
         11   -1    0    0    0    0 -0.00000000000E+00 -0.00000000000E+00 -0.45593999997E+02  0.45594000000E+02  0.51100000000E-03 0. -1.
    9900012    2    1    2    0    0 -0.28183383631E+02 -0.22003522795E+02 -0.19357374187E+02  0.50528855103E+02  0.29999985572E+02 0.  0.
        -12    1    1    2    0    0  0.28183383631E+02  0.22003522795E+02  0.19357374187E+02  0.40659144897E+02  0.00000000000E+00 0.  1.
         11    1    3    3    0    0 -0.13220892982E+02 -0.56850943255E+01 -0.19164228965E+01  0.14518436063E+02  0.51100000000E-03 0. -1.
        -11    1    3    3    0    0 -0.33158472173E+01 -0.20724566830E+01  0.54078369120E+01  0.66734263913E+01  0.51100000000E-03 0.  1.
         12    1    3    3    0    0 -0.11646643432E+02 -0.14245971787E+02 -0.22848788202E+02  0.29336992649E+02  0.00000000000E+00 0. -1.
</event>
<event>
 7    1  0.2817603E-011  0.5052886E+02  0.7816164E-02  0.1300439E+00
        -11   -1    0    0    0    0  0.00000000000E+00  0.00000000000E+00  0.45593999997E+02  0.45594000000E+02  0.51100000000E-03 0. -1.
         11   -1    0    0    0    0 -0.00000000000E+00 -0.00000000000E+00 -0.45593999997E+02  0.45594000000E+02  0.51100000000E-03 0.  1.
    9900012    2    1    2    0    0 -0.65743286575E+01 -0.20104064815E+02  0.34724206673E+02  0.50528858980E+02  0.29999997356E+02 0.  0.
        -12    1    1    2    0    0  0.65743286575E+01  0.20104064815E+02 -0.34724206673E+02  0.40659141020E+02  0.00000000000E+00 0.  1.
         11    1    3    3    0    0  0.43310298040E+01  0.41282405405E+01  0.44337170677E+01  0.74470152693E+01  0.51100000000E-03 0. -1.
        -11    1    3    3    0    0 -0.23968490337E+01 -0.60251744664E+01 -0.28746736517E+00  0.64907819551E+01  0.51100000000E-03 0.  1.
         12    1    3    3    0    0 -0.85085094279E+01 -0.18207130889E+02  0.30577956971E+02  0.36591061756E+02  0.00000000000E+00 0. -1.
</event>
<event>
 7    1  0.2817603E-011  0.5052886E+02  0.7816164E-02  0.1300439E+00
        -11   -1    0    0    0    0  0.00000000000E+00  0.00000000000E+00  0.45593999997E+02  0.45594000000E+02  0.51100000000E-03 0.  1.
         11   -1    0    0    0    0 -0.00000000000E+00 -0.00000000000E+00 -0.45593999997E+02  0.45594000000E+02  0.51100000000E-03 0. -1.
    9900012    2    1    2    0    0  0.30989989539E+02 -0.25867396753E+02  0.48645780893E+01  0.50528858514E+02  0.29999995939E+02 0.  0.
        -12    1    1    2    0    0 -0.30989989539E+02  0.25867396753E+02 -0.48645780893E+01  0.40659141486E+02  0.00000000000E+00 0.  1.
         11    1    3    3    0    0  0.27959562189E+02 -0.26238555862E+02 -0.34883065024E+00  0.38344759937E+02  0.51100000000E-03 0. -1.
        -11    1    3    3    0    0  0.55175683489E+01 -0.34081424128E+01  0.29349330926E+01  0.71184849308E+01  0.51100000000E-03 0.  1.
        -12    1    3    3    0    0 -0.24871409991E+01  0.37793015214E+01  0.22784756469E+01  0.50656136463E+01  0.00000000000E+00 0.  1.
</event>
<event>
 7    1  0.2817603E-011  0.5052886E+02  0.7816164E-02  0.1300439E+00
        -11   -1    0    0    0    0  0.00000000000E+00  0.00000000000E+00  0.45593999997E+02  0.45594000000E+02  0.51100000000E-03 0.  1.
         11   -1    0    0    0    0 -0.00000000000E+00 -0.00000000000E+00 -0.45593999997E+02  0.45594000000E+02  0.51100000000E-03 0. -1.
    9900012    2    1    2    0    0  0.16604145601E+02  0.87001649162E+01 -0.36080119447E+02  0.50528861543E+02  0.30000005147E+02 0.  0.
        -12    1    1    2    0    0 -0.16604145601E+02 -0.87001649162E+01  0.36080119447E+02  0.40659138457E+02  0.00000000000E+00 0.  1.
         11    1    3    3    0    0  0.69000894559E+01 -0.83869433055E+01 -0.13175205005E+02  0.17074486221E+02  0.51100000000E-03 0. -1.
        -11    1    3    3    0    0  0.53343827815E+01 -0.12197633262E+01 -0.40017335187E+01  0.67791838481E+01  0.51100000000E-03 0.  1.
        -12    1    3    3    0    0  0.43696733636E+01  0.18306871548E+02 -0.18903180923E+02  0.26675191474E+02  0.00000000000E+00 0.  1.
</event>
<event>
 7    1  0.2817603E-011  0.5052886E+02  0.7816164E-02  0.1300439E+00
        -11   -1    0    0    0    0  0.00000000000E+00  0.00000000000E+00  0.45593999997E+02  0.45594000000E+02  0.51100000000E-03 0.  1.
         11   -1    0    0    0    0 -0.00000000000E+00 -0.00000000000E+00 -0.45593999997E+02  0.45594000000E+02  0.51100000000E-03 0. -1.
    9900012    2    1    2    0    0  0.20332941642E+02  0.28671854032E+02  0.20436781629E+02  0.50528858681E+02  0.29999996446E+02 0.  0.
        -12    1    1    2    0    0 -0.20332941642E+02 -0.28671854032E+02 -0.20436781629E+02  0.40659141319E+02  0.00000000000E+00 0.  1.
         11    1    3    3    0    0  0.65722162836E+01  0.10168086219E+02 -0.36099262706E+01  0.12633905658E+02  0.51100000000E-03 0. -1.
        -11    1    3    3    0    0 -0.85460383164E+00  0.29037257819E+01 -0.24187140980E+01  0.38745514933E+01  0.51100000000E-03 0.  1.
        -12    1    3    3    0    0  0.14615329190E+02  0.15600042032E+02  0.26465421998E+02  0.34020401530E+02  0.00000000000E+00 0.  1.
</event>
<event>
 7    1  0.2817603E-011  0.5052886E+02  0.7816164E-02  0.1300439E+00
        -11   -1    0    0    0    0  0.00000000000E+00  0.00000000000E+00  0.45593999997E+02  0.45594000000E+02  0.51100000000E-03 0. -1.
         11   -1    0    0    0    0 -0.00000000000E+00 -0.00000000000E+00 -0.45593999997E+02  0.45594000000E+02  0.51100000000E-03 0.  1.
    9900012    2    1    2    0    0 -0.37677824913E+02 -0.15195481643E+02 -0.16261411802E+01  0.50528862187E+02  0.30000007103E+02 0.  0.
        -12    1    1    2    0    0  0.37677824913E+02  0.15195481643E+02  0.16261411802E+01  0.40659137813E+02  0.00000000000E+00 0.  1.
         11    1    3    3    0    0 -0.67447893557E+01 -0.11678951740E+02  0.39981868637E+01  0.14066826069E+02  0.51100000000E-03 0.  1.
        -11    1    3    3    0    0 -0.17708807175E+02 -0.80844346937E+01  0.34719301401E+01  0.19774079878E+02  0.51100000000E-03 0. -1.
        -12    1    3    3    0    0 -0.13224228383E+02  0.45679047908E+01 -0.90962581839E+01  0.16687956239E+02  0.00000000000E+00 0.  1.
</event>
<event>
 7    1  0.2817603E-011  0.5052886E+02  0.7816164E-02  0.1300439E+00
        -11   -1    0    0    0    0  0.00000000000E+00  0.00000000000E+00  0.45593999997E+02  0.45594000000E+02  0.51100000000E-03 0. -1.
         11   -1    0    0    0    0 -0.00000000000E+00 -0.00000000000E+00 -0.45593999997E+02  0.45594000000E+02  0.51100000000E-03 0.  1.
    9900012    2    1    2    0    0 -0.75821543969E+01  0.39942100665E+02  0.55247458991E+00  0.50528859589E+02  0.29999999206E+02 0.  0.
        -12    1    1    2    0    0  0.75821543969E+01 -0.39942100665E+02 -0.55247458991E+00  0.40659140411E+02  0.00000000000E+00 0.  1.
         11    1    3    3    0    0 -0.89441842218E+00  0.21447448998E+01 -0.14301574653E+01  0.27286014066E+01  0.51100000000E-03 0.  1.
        -11    1    3    3    0    0 -0.11566595093E+02  0.22682315752E+02  0.12884660835E+02  0.28535732950E+02  0.51100000000E-03 0. -1.
         12    1    3    3    0    0  0.48788591180E+01  0.15115040013E+02 -0.10902028780E+02  0.19264525232E+02  0.00000000000E+00 0. -1.
</event>
<event>
 7    1  0.2817603E-011  0.5052886E+02  0.7816164E-02  0.1300439E+00
        -11   -1    0    0    0    0  0.00000000000E+00  0.00000000000E+00  0.45593999997E+02  0.45594000000E+02  0.51100000000E-03 0.  1.
         11   -1    0    0    0    0 -0.00000000000E+00 -0.00000000000E+00 -0.45593999997E+02  0.45594000000E+02  0.51100000000E-03 0. -1.
    9900012    2    1    2    0    0  0.27215585425E+02  0.24343174971E+02  0.17885393829E+02  0.50528861174E+02  0.30000004025E+02 0.  0.
        -12    1    1    2    0    0 -0.27215585425E+02 -0.24343174971E+02 -0.17885393829E+02  0.40659138826E+02  0.00000000000E+00 0.  1.
         11    1    3    3    0    0  0.18372627617E+02  0.15889693740E+02 -0.42777212336E+00  0.24294419152E+02  0.51100000000E-03 0. -1.
        -11    1    3    3    0    0  0.70648652089E+01 -0.24570838260E+01  0.95333960928E+01  0.12117558445E+02  0.51100000000E-03 0.  1.
        -12    1    3    3    0    0  0.17780925990E+01  0.10910565056E+02  0.87797698593E+01  0.14116883577E+02  0.00000000000E+00 0.  1.
</event>
<event>
 7    1  0.2817603E-011  0.5052885E+02  0.7816164E-02  0.1300439E+00
        -11   -1    0    0    0    0  0.00000000000E+00  0.00000000000E+00  0.45593999997E+02  0.45594000000E+02  0.51100000000E-03 0.  1.
         11   -1    0    0    0    0 -0.00000000000E+00 -0.00000000000E+00 -0.45593999997E+02  0.45594000000E+02  0.51100000000E-03 0. -1.
    9900012    2    1    2    0    0 -0.21857858990E+02  0.29892236459E+02 -0.16788532042E+02  0.50528848407E+02  0.29999965218E+02 0.  0.
        -12    1    1    2    0    0  0.21857858990E+02 -0.29892236459E+02  0.16788532042E+02  0.40659151593E+02  0.00000000000E+00 0.  1.
         11    1    3    3    0    0 -0.12627342727E+02  0.10504959183E+02 -0.15248762396E+02  0.22412690750E+02  0.51100000000E-03 0. -1.
        -11    1    3    3    0    0 -0.12153778089E+02  0.56779247873E+01 -0.37416915697E+01  0.13926715614E+02  0.51100000000E-03 0.  1.
        -12    1    3    3    0    0  0.29232618255E+01  0.13709352488E+02  0.22019219237E+01  0.14189442043E+02  0.00000000000E+00 0.  1.
</event>
<event>
 7    1  0.2817603E-011  0.5052886E+02  0.7816164E-02  0.1300439E+00
        -11   -1    0    0    0    0  0.00000000000E+00  0.00000000000E+00  0.45593999997E+02  0.45594000000E+02  0.51100000000E-03 0.  1.
         11   -1    0    0    0    0 -0.00000000000E+00 -0.00000000000E+00 -0.45593999997E+02  0.45594000000E+02  0.51100000000E-03 0. -1.
    9900012    2    1    2    0    0 -0.35616658545E+02  0.15891329798E+02  0.11492834844E+02  0.50528856116E+02  0.29999988649E+02 0.  0.
        -12    1    1    2    0    0  0.35616658545E+02 -0.15891329798E+02 -0.11492834844E+02  0.40659143884E+02  0.00000000000E+00 0.  1.
         11    1    3    3    0    0 -0.15558250025E+02  0.21354770250E+01  0.14355493024E+02  0.21276738147E+02  0.51100000000E-03 0. -1.
        -11    1    3    3    0    0  0.54461453467E+00 -0.21528810024E+01  0.17361043432E+01  0.28187870004E+01  0.51100000000E-03 0.  1.
        -12    1    3    3    0    0 -0.20603023054E+02  0.15908733776E+02 -0.45987625229E+01  0.26433330968E+02  0.00000000000E+00 0.  1.
</event>
<event>
 7    1  0.2817603E-011  0.5052886E+02  0.7816164E-02  0.1300439E+00
        -11   -1    0    0    0    0  0.00000000000E+00  0.00000000000E+00  0.45593999997E+02  0.45594000000E+02  0.51100000000E-03 0.  1.
         11   -1    0    0    0    0 -0.00000000000E+00 -0.00000000000E+00 -0.45593999997E+02  0.45594000000E+02  0.51100000000E-03 0. -1.
    9900012    2    1    2    0    0 -0.30202253549E+02  0.22476875255E+02 -0.15355114311E+02  0.50528861099E+02  0.30000003796E+02 0.  0.
        -12    1    1    2    0    0  0.30202253549E+02 -0.22476875255E+02  0.15355114311E+02  0.40659138901E+02  0.00000000000E+00 0.  1.
         11    1    3    3    0    0 -0.98437780205E+01  0.56027931442E+01  0.11338809131E+01  0.11383186853E+02  0.51100000000E-03 0.  1.
        -11    1    3    3    0    0 -0.17766816035E+02  0.13138312999E+02 -0.57808777457E-01  0.22097021577E+02  0.51100000000E-03 0. -1.
        -12    1    3    3    0    0 -0.25916594941E+01  0.37357691119E+01 -0.16431186447E+02  0.17048652669E+02  0.00000000000E+00 0.  1.
</event>
<event>
 7    1  0.2817603E-011  0.5052885E+02  0.7816164E-02  0.1300439E+00
        -11   -1    0    0    0    0  0.00000000000E+00  0.00000000000E+00  0.45593999997E+02  0.45594000000E+02  0.51100000000E-03 0.  1.
         11   -1    0    0    0    0 -0.00000000000E+00 -0.00000000000E+00 -0.45593999997E+02  0.45594000000E+02  0.51100000000E-03 0. -1.
    9900012    2    1    2    0    0  0.43483013680E+01  0.17244341168E+02 -0.36563526588E+02  0.50528849694E+02  0.29999969129E+02 0.  0.
        -12    1    1    2    0    0 -0.43483013680E+01 -0.17244341168E+02  0.36563526588E+02  0.40659150306E+02  0.00000000000E+00 0.  1.
         11    1    3    3    0    0  0.51827024485E+01 -0.39277878320E+01 -0.96009063895E+01  0.11595918492E+02  0.51100000000E-03 0. -1.
        -11    1    3    3    0    0  0.49073186518E+01  0.54160718082E+01 -0.19023128089E+02  0.20378788304E+02  0.51100000000E-03 0.  1.
        -12    1    3    3    0    0 -0.57417197324E+01  0.15756057192E+02 -0.79394921095E+01  0.18554142898E+02  0.00000000000E+00 0.  1.
</event>
<event>
 7    1  0.2817603E-011  0.5052887E+02  0.7816164E-02  0.1300439E+00
        -11   -1    0    0    0    0  0.00000000000E+00  0.00000000000E+00  0.45593999997E+02  0.45594000000E+02  0.51100000000E-03 0.  1.
         11   -1    0    0    0    0 -0.00000000000E+00 -0.00000000000E+00 -0.45593999997E+02  0.45594000000E+02  0.51100000000E-03 0. -1.
    9900012    2    1    2    0    0  0.25556946908E+00  0.99622053927E+01 -0.39418955302E+02  0.50528869547E+02  0.30000029476E+02 0.  0.
        -12    1    1    2    0    0 -0.25556946908E+00 -0.99622053927E+01  0.39418955302E+02  0.40659130453E+02  0.00000000000E+00 0.  1.
         11    1    3    3    0    0  0.30030485992E+01 -0.10157854429E+01 -0.22559722285E+02  0.22781378158E+02  0.51100000000E-03 0. -1.
        -11    1    3    3    0    0  0.73344177617E+01  0.44295836041E+01 -0.23102293483E+01  0.88742354437E+01  0.51100000000E-03 0.  1.
         12    1    3    3    0    0 -0.10081896892E+02  0.65484072316E+01 -0.14549003669E+02  0.18873255945E+02  0.00000000000E+00 0. -1.
</event>
<event>
 7    1  0.2817603E-011  0.5052885E+02  0.7816164E-02  0.1300439E+00
        -11   -1    0    0    0    0  0.00000000000E+00  0.00000000000E+00  0.45593999997E+02  0.45594000000E+02  0.51100000000E-03 0. -1.
         11   -1    0    0    0    0 -0.00000000000E+00 -0.00000000000E+00 -0.45593999997E+02  0.45594000000E+02  0.51100000000E-03 0.  1.
    9900012    2    1    2    0    0 -0.23936950816E+02 -0.30868561821E+02  0.11283644824E+02  0.50528851413E+02  0.29999974356E+02 0.  0.
        -12    1    1    2    0    0  0.23936950816E+02  0.30868561821E+02 -0.11283644824E+02  0.40659148587E+02  0.00000000000E+00 0.  1.
         11    1    3    3    0    0 -0.44338868356E+01 -0.22128533560E+01  0.76518398451E+01  0.91162890324E+01  0.51100000000E-03 0. -1.
        -11    1    3    3    0    0 -0.92124336453E+01 -0.18418065515E+02  0.12796769927E+02  0.24245646863E+02  0.51100000000E-03 0.  1.
        -12    1    3    3    0    0 -0.10290630335E+02 -0.10237642950E+02 -0.91649649487E+01  0.17166915517E+02  0.00000000000E+00 0.  1.
</event>
<event>
 7    1  0.2817603E-011  0.5052886E+02  0.7816164E-02  0.1300439E+00
        -11   -1    0    0    0    0  0.00000000000E+00  0.00000000000E+00  0.45593999997E+02  0.45594000000E+02  0.51100000000E-03 0.  1.
         11   -1    0    0    0    0 -0.00000000000E+00 -0.00000000000E+00 -0.45593999997E+02  0.45594000000E+02  0.51100000000E-03 0. -1.
    9900012    2    1    2    0    0 -0.27475542579E+02  0.20973562947E+02 -0.21409574815E+02  0.50528859865E+02  0.30000000047E+02 0.  0.
        -12    1    1    2    0    0  0.27475542579E+02 -0.20973562947E+02  0.21409574815E+02  0.40659140135E+02  0.00000000000E+00 0.  1.
         11    1    3    3    0    0 -0.37295110870E+01 -0.13770489243E+01 -0.35831599586E+01  0.53520605601E+01  0.51100000000E-03 0. -1.
        -11    1    3    3    0    0 -0.10600661796E+02 -0.62311470710E+00  0.35048943742E+01  0.11182423141E+02  0.51100000000E-03 0.  1.
         12    1    3    3    0    0 -0.13145369696E+02  0.22973726578E+02 -0.21331309231E+02  0.33994376165E+02  0.00000000000E+00 0. -1.
</event>
<event>
 7    1  0.2817603E-011  0.5052885E+02  0.7816164E-02  0.1300439E+00
        -11   -1    0    0    0    0  0.00000000000E+00  0.00000000000E+00  0.45593999997E+02  0.45594000000E+02  0.51100000000E-03 0.  1.
         11   -1    0    0    0    0 -0.00000000000E+00 -0.00000000000E+00 -0.45593999997E+02  0.45594000000E+02  0.51100000000E-03 0. -1.
    9900012    2    1    2    0    0 -0.38059909851E+01  0.16220758129E+02 -0.37088647985E+02  0.50528851324E+02  0.29999974084E+02 0.  0.
        -12    1    1    2    0    0  0.38059909851E+01 -0.16220758129E+02  0.37088647985E+02  0.40659148676E+02  0.00000000000E+00 0.  1.
         11    1    3    3    0    0 -0.34301481807E+00 -0.31594080335E+01 -0.67388547852E+01  0.74506162406E+01  0.51100000000E-03 0. -1.
        -11    1    3    3    0    0 -0.51428338907E+01 -0.39182423466E+01 -0.10939493950E+02  0.12707237766E+02  0.51100000000E-03 0.  1.
         12    1    3    3    0    0  0.16798577237E+01  0.23298408509E+02 -0.19410299251E+02  0.30370997317E+02  0.00000000000E+00 0. -1.
</event>
<event>
 7    1  0.2817603E-011  0.5052886E+02  0.7816164E-02  0.1300439E+00
        -11   -1    0    0    0    0  0.00000000000E+00  0.00000000000E+00  0.45593999997E+02  0.45594000000E+02  0.51100000000E-03 0.  1.
         11   -1    0    0    0    0 -0.00000000000E+00 -0.00000000000E+00 -0.45593999997E+02  0.45594000000E+02  0.51100000000E-03 0. -1.
    9900012    2    1    2    0    0 -0.37045668573E+02 -0.15131634161E+01 -0.16688155283E+02  0.50528858957E+02  0.29999997287E+02 0.  0.
        -12    1    1    2    0    0  0.37045668573E+02  0.15131634161E+01  0.16688155283E+02  0.40659141043E+02  0.00000000000E+00 0.  1.
         11    1    3    3    0    0 -0.97450126346E+01  0.26381599085E+01  0.24765541799E+01  0.10395118076E+02  0.51100000000E-03 0. -1.
        -11    1    3    3    0    0 -0.13345841818E+02 -0.64559221197E+01  0.17047073914E+01  0.14923017516E+02  0.51100000000E-03 0.  1.
        -12    1    3    3    0    0 -0.13954814121E+02  0.23045987951E+01 -0.20869416854E+02  0.25210723365E+02  0.00000000000E+00 0.  1.
</event>
<event>
 7    1  0.2817603E-011  0.5052887E+02  0.7816164E-02  0.1300439E+00
        -11   -1    0    0    0    0  0.00000000000E+00  0.00000000000E+00  0.45593999997E+02  0.45594000000E+02  0.51100000000E-03 0.  1.
         11   -1    0    0    0    0 -0.00000000000E+00 -0.00000000000E+00 -0.45593999997E+02  0.45594000000E+02  0.51100000000E-03 0. -1.
    9900012    2    1    2    0    0  0.41579576639E+01 -0.52512875049E+01 -0.40103622059E+02  0.50528866529E+02  0.30000020301E+02 0.  0.
        -12    1    1    2    0    0 -0.41579576639E+01  0.52512875049E+01  0.40103622059E+02  0.40659133471E+02  0.00000000000E+00 0.  1.
         11    1    3    3    0    0  0.27727480718E+01 -0.75152102643E+01 -0.35251474731E+02  0.36150145064E+02  0.51100000000E-03 0. -1.
        -11    1    3    3    0    0  0.41449017919E+01 -0.45664475341E+01 -0.21070271655E+01  0.65170712504E+01  0.51100000000E-03 0.  1.
         12    1    3    3    0    0 -0.27596921998E+01  0.68303702935E+01 -0.27451201623E+01  0.78616502141E+01  0.00000000000E+00 0. -1.
</event>
<event>
 7    1  0.2817603E-011  0.5052886E+02  0.7816164E-02  0.1300439E+00
        -11   -1    0    0    0    0  0.00000000000E+00  0.00000000000E+00  0.45593999997E+02  0.45594000000E+02  0.51100000000E-03 0.  1.
         11   -1    0    0    0    0 -0.00000000000E+00 -0.00000000000E+00 -0.45593999997E+02  0.45594000000E+02  0.51100000000E-03 0. -1.
    9900012    2    1    2    0    0 -0.20907255745E+02  0.34870649965E+02 -0.30044167566E+00  0.50528857892E+02  0.29999994048E+02 0.  0.
        -12    1    1    2    0    0  0.20907255745E+02 -0.34870649965E+02  0.30044167566E+00  0.40659142108E+02  0.00000000000E+00 0.  1.
         11    1    3    3    0    0 -0.14252928267E+02  0.25854917055E+02  0.45236671499E+01  0.29867813191E+02  0.51100000000E-03 0. -1.
        -11    1    3    3    0    0 -0.54509603996E+01 -0.19867095106E+01  0.35325257194E+01  0.67925490191E+01  0.51100000000E-03 0.  1.
        -12    1    3    3    0    0 -0.12033670789E+01  0.11002442421E+02 -0.83566345449E+01  0.13868495681E+02  0.00000000000E+00 0.  1.
</event>
<event>
 7    1  0.2817603E-011  0.5052883E+02  0.7816164E-02  0.1300439E+00
        -11   -1    0    0    0    0  0.00000000000E+00  0.00000000000E+00  0.45593999997E+02  0.45594000000E+02  0.51100000000E-03 0.  1.
         11   -1    0    0    0    0 -0.00000000000E+00 -0.00000000000E+00 -0.45593999997E+02  0.45594000000E+02  0.51100000000E-03 0. -1.
    9900012    2    1    2    0    0 -0.10163623995E+02 -0.35088595193E+02 -0.17851036403E+02  0.50528828021E+02  0.29999903253E+02 0.  0.
        -12    1    1    2    0    0  0.10163623995E+02  0.35088595193E+02  0.17851036403E+02  0.40659171979E+02  0.00000000000E+00 0.  1.
         11    1    3    3    0    0 -0.35319525915E+01 -0.23897758614E+01  0.70784701591E+00  0.43228191537E+01  0.51100000000E-03 0. -1.
        -11    1    3    3    0    0  0.44479415316E+01 -0.23734125992E+01  0.43168817990E+01  0.66372238144E+01  0.51100000000E-03 0.  1.
         12    1    3    3    0    0 -0.11079612936E+02 -0.30325406732E+02 -0.22875765218E+02  0.39568785053E+02  0.00000000000E+00 0. -1.
</event>
<event>
 7    1  0.2817603E-011  0.5052886E+02  0.7816164E-02  0.1300439E+00
        -11   -1    0    0    0    0  0.00000000000E+00  0.00000000000E+00  0.45593999997E+02  0.45594000000E+02  0.51100000000E-03 0.  1.
         11   -1    0    0    0    0 -0.00000000000E+00 -0.00000000000E+00 -0.45593999997E+02  0.45594000000E+02  0.51100000000E-03 0. -1.
    9900012    2    1    2    0    0 -0.27520986299E+02  0.43179941230E+01 -0.29616146434E+02  0.50528857243E+02  0.29999992077E+02 0.  0.
        -12    1    1    2    0    0  0.27520986299E+02 -0.43179941230E+01  0.29616146434E+02  0.40659142757E+02  0.00000000000E+00 0.  1.
         11    1    3    3    0    0 -0.13560343734E+01 -0.73952138059E+00  0.25660145262E+01  0.29950211860E+01  0.51100000000E-03 0. -1.
        -11    1    3    3    0    0  0.18473193358E+01 -0.38255562303E+01 -0.95157982825E+01  0.10421030967E+02  0.51100000000E-03 0.  1.
         12    1    3    3    0    0 -0.28012271261E+02  0.88830717339E+01 -0.22666362677E+02  0.37112805090E+02  0.00000000000E+00 0. -1.
</event>
<event>
 7    1  0.2817603E-011  0.5052886E+02  0.7816164E-02  0.1300439E+00
        -11   -1    0    0    0    0  0.00000000000E+00  0.00000000000E+00  0.45593999997E+02  0.45594000000E+02  0.51100000000E-03 0.  1.
         11   -1    0    0    0    0 -0.00000000000E+00 -0.00000000000E+00 -0.45593999997E+02  0.45594000000E+02  0.51100000000E-03 0. -1.
    9900012    2    1    2    0    0  0.29538958271E+02  0.15161209895E+02 -0.23468137258E+02  0.50528858253E+02  0.29999995147E+02 0.  0.
        -12    1    1    2    0    0 -0.29538958271E+02 -0.15161209895E+02  0.23468137258E+02  0.40659141747E+02  0.00000000000E+00 0.  1.
         11    1    3    3    0    0  0.96761039921E+01  0.56991059193E+01  0.29647820978E+01  0.11614505151E+02  0.51100000000E-03 0. -1.
        -11    1    3    3    0    0  0.87201831358E+01 -0.30055568502E+01 -0.22170763347E+01  0.94863266672E+01  0.51100000000E-03 0.  1.
         12    1    3    3    0    0  0.11142671143E+02  0.12467660825E+02 -0.24215843022E+02  0.29428026436E+02  0.00000000000E+00 0. -1.
</event>
<event>
 7    1  0.2817603E-011  0.5052886E+02  0.7816164E-02  0.1300439E+00
        -11   -1    0    0    0    0  0.00000000000E+00  0.00000000000E+00  0.45593999997E+02  0.45594000000E+02  0.51100000000E-03 0.  1.
         11   -1    0    0    0    0 -0.00000000000E+00 -0.00000000000E+00 -0.45593999997E+02  0.45594000000E+02  0.51100000000E-03 0. -1.
    9900012    2    1    2    0    0 -0.17104748323E+02 -0.23492522623E+02 -0.28437550087E+02  0.50528864626E+02  0.30000014518E+02 0.  0.
        -12    1    1    2    0    0  0.17104748323E+02  0.23492522623E+02  0.28437550087E+02  0.40659135374E+02  0.00000000000E+00 0.  1.
         11    1    3    3    0    0 -0.23496535465E+01 -0.14607789509E+02 -0.74738620063E+01  0.16576097239E+02  0.51100000000E-03 0. -1.
        -11    1    3    3    0    0 -0.15351490464E+02 -0.12758201021E+02 -0.22189422187E+02  0.29846447193E+02  0.51100000000E-03 0.  1.
        -12    1    3    3    0    0  0.59639568815E+00  0.38734679066E+01  0.12257341063E+01  0.41063201945E+01  0.00000000000E+00 0.  1.
</event>
<event>
 7    1  0.2817603E-011  0.5052885E+02  0.7816164E-02  0.1300439E+00
        -11   -1    0    0    0    0  0.00000000000E+00  0.00000000000E+00  0.45593999997E+02  0.45594000000E+02  0.51100000000E-03 0.  1.
         11   -1    0    0    0    0 -0.00000000000E+00 -0.00000000000E+00 -0.45593999997E+02  0.45594000000E+02  0.51100000000E-03 0. -1.
    9900012    2    1    2    0    0  0.16884172702E+02 -0.29763067841E+02 -0.21960216168E+02  0.50528848640E+02  0.29999965927E+02 0.  0.
        -12    1    1    2    0    0 -0.16884172702E+02  0.29763067841E+02  0.21960216168E+02  0.40659151360E+02  0.00000000000E+00 0.  1.
         11    1    3    3    0    0  0.15212246238E+02 -0.58264455136E+01 -0.10552944482E+02  0.19409393098E+02  0.51100000000E-03 0. -1.
        -11    1    3    3    0    0  0.28926678368E+01  0.16534374803E+01 -0.14382885198E+01  0.36290572940E+01  0.51100000000E-03 0.  1.
         12    1    3    3    0    0 -0.12207413733E+01 -0.25590059808E+02 -0.99689831658E+01  0.27490398248E+02  0.00000000000E+00 0. -1.
</event>
<event>
 7    1  0.2817603E-011  0.5052885E+02  0.7816164E-02  0.1300439E+00
        -11   -1    0    0    0    0  0.00000000000E+00  0.00000000000E+00  0.45593999997E+02  0.45594000000E+02  0.51100000000E-03 0.  1.
         11   -1    0    0    0    0 -0.00000000000E+00 -0.00000000000E+00 -0.45593999997E+02  0.45594000000E+02  0.51100000000E-03 0. -1.
    9900012    2    1    2    0    0 -0.24845262898E+01 -0.34820598786E+02  0.20845124379E+02  0.50528853660E+02  0.29999981185E+02 0.  0.
        -12    1    1    2    0    0  0.24845262898E+01  0.34820598786E+02 -0.20845124379E+02  0.40659146340E+02  0.00000000000E+00 0.  1.
         11    1    3    3    0    0  0.76397551555E+00  0.39417012930E+01  0.28808166819E+01  0.49416366406E+01  0.51100000000E-03 0. -1.
        -11    1    3    3    0    0  0.26889890394E+01 -0.89330389200E+00 -0.75012059281E+00  0.29310979278E+01  0.51100000000E-03 0.  1.
         12    1    3    3    0    0 -0.59374908448E+01 -0.37868996187E+02  0.18714428290E+02  0.42656119092E+02  0.00000000000E+00 0. -1.
</event>
<event>
 7    1  0.2817603E-011  0.5052884E+02  0.7816164E-02  0.1300439E+00
        -11   -1    0    0    0    0  0.00000000000E+00  0.00000000000E+00  0.45593999997E+02  0.45594000000E+02  0.51100000000E-03 0. -1.
         11   -1    0    0    0    0 -0.00000000000E+00 -0.00000000000E+00 -0.45593999997E+02  0.45594000000E+02  0.51100000000E-03 0.  1.
    9900012    2    1    2    0    0 -0.73370035531E+01  0.13810411048E+01  0.39967839672E+02  0.50528842315E+02  0.29999946699E+02 0.  0.
        -12    1    1    2    0    0  0.73370035531E+01 -0.13810411048E+01 -0.39967839672E+02  0.40659157685E+02  0.00000000000E+00 0.  1.
         11    1    3    3    0    0  0.33848185075E+01 -0.48398113091E+01  0.28388815214E+01  0.65528633734E+01  0.51100000000E-03 0.  1.
        -11    1    3    3    0    0 -0.12633532672E+02  0.92509472233E+01  0.15430683931E+02  0.21983907276E+02  0.51100000000E-03 0. -1.
         12    1    3    3    0    0  0.19117106113E+01 -0.30300948093E+01  0.21698274219E+02  0.21992071665E+02  0.00000000000E+00 0. -1.
</event>
<event>
 7    1  0.2817603E-011  0.5052885E+02  0.7816164E-02  0.1300439E+00
        -11   -1    0    0    0    0  0.00000000000E+00  0.00000000000E+00  0.45593999997E+02  0.45594000000E+02  0.51100000000E-03 0. -1.
         11   -1    0    0    0    0 -0.00000000000E+00 -0.00000000000E+00 -0.45593999997E+02  0.45594000000E+02  0.51100000000E-03 0.  1.
    9900012    2    1    2    0    0 -0.72108090677E+01  0.12470036595E+02  0.38021949959E+02  0.50528852705E+02  0.29999978282E+02 0.  0.
        -12    1    1    2    0    0  0.72108090677E+01 -0.12470036595E+02 -0.38021949959E+02  0.40659147295E+02  0.00000000000E+00 0.  1.
         11    1    3    3    0    0  0.58990327736E+01  0.10870369596E+01  0.11589922573E+02  0.13050154885E+02  0.51100000000E-03 0. -1.
        -11    1    3    3    0    0  0.43177064744E+01  0.73433637109E+01  0.10519274799E+02  0.13535978810E+02  0.51100000000E-03 0.  1.
        -12    1    3    3    0    0 -0.17427548316E+02  0.40396359246E+01  0.15912752586E+02  0.23942719009E+02  0.00000000000E+00 0.  1.
</event>
<event>
 7    1  0.2817603E-011  0.5052889E+02  0.7816164E-02  0.1300439E+00
        -11   -1    0    0    0    0  0.00000000000E+00  0.00000000000E+00  0.45593999997E+02  0.45594000000E+02  0.51100000000E-03 0. -1.
         11   -1    0    0    0    0 -0.00000000000E+00 -0.00000000000E+00 -0.45593999997E+02  0.45594000000E+02  0.51100000000E-03 0.  1.
    9900012    2    1    2    0    0 -0.23578561982E+01  0.73855417797E+01  0.39913122703E+02  0.50528891830E+02  0.30000097207E+02 0.  0.
        -12    1    1    2    0    0  0.23578561982E+01 -0.73855417797E+01 -0.39913122703E+02  0.40659108170E+02  0.00000000000E+00 0.  1.
         11    1    3    3    0    0  0.30971958419E+00 -0.39533552856E+01  0.21632627198E+02  0.21993078547E+02  0.51100000000E-03 0. -1.
        -11    1    3    3    0    0  0.49130147872E+01 -0.27646939339E+01  0.68032351236E+01  0.88354544453E+01  0.51100000000E-03 0.  1.
         12    1    3    3    0    0 -0.75805905697E+01  0.14103590999E+02  0.11477260382E+02  0.19700358837E+02  0.00000000000E+00 0. -1.
</event>
<event>
 7    1  0.2817603E-011  0.5052886E+02  0.7816164E-02  0.1300439E+00
        -11   -1    0    0    0    0  0.00000000000E+00  0.00000000000E+00  0.45593999997E+02  0.45594000000E+02  0.51100000000E-03 0.  1.
         11   -1    0    0    0    0 -0.00000000000E+00 -0.00000000000E+00 -0.45593999997E+02  0.45594000000E+02  0.51100000000E-03 0. -1.
    9900012    2    1    2    0    0  0.26654239787E+02 -0.84374338863E+01 -0.29521631055E+02  0.50528862166E+02  0.30000007041E+02 0.  0.
        -12    1    1    2    0    0 -0.26654239787E+02  0.84374338863E+01  0.29521631055E+02  0.40659137834E+02  0.00000000000E+00 0.  1.
         11    1    3    3    0    0  0.21376413712E+02 -0.93955389500E+01 -0.71575419693E+01  0.24422481910E+02  0.51100000000E-03 0. -1.
        -11    1    3    3    0    0  0.18351113359E+00  0.45646376574E+01 -0.23414527478E+01  0.51334193780E+01  0.51100000000E-03 0.  1.
        -12    1    3    3    0    0  0.50943149418E+01 -0.36065325937E+01 -0.20022636338E+02  0.20972960878E+02  0.00000000000E+00 0.  1.
</event>
<event>
 7    1  0.2817603E-011  0.5052884E+02  0.7816164E-02  0.1300439E+00
        -11   -1    0    0    0    0  0.00000000000E+00  0.00000000000E+00  0.45593999997E+02  0.45594000000E+02  0.51100000000E-03 0. -1.
         11   -1    0    0    0    0 -0.00000000000E+00 -0.00000000000E+00 -0.45593999997E+02  0.45594000000E+02  0.51100000000E-03 0.  1.
    9900012    2    1    2    0    0 -0.15171610730E+02  0.34665003836E+02  0.14877050387E+02  0.50528844926E+02  0.29999954638E+02 0.  0.
        -12    1    1    2    0    0  0.15171610730E+02 -0.34665003836E+02 -0.14877050387E+02  0.40659155074E+02  0.00000000000E+00 0.  1.
         11    1    3    3    0    0 -0.15129958912E+02  0.68366197232E+01  0.77528051301E+01  0.18323782731E+02  0.51100000000E-03 0.  1.
        -11    1    3    3    0    0 -0.28066012532E+01  0.24987737463E+02  0.13241170407E+01  0.25179700560E+02  0.51100000000E-03 0. -1.
        -12    1    3    3    0    0  0.27649494360E+01  0.28406466502E+01  0.58001282166E+01  0.70253616351E+01  0.00000000000E+00 0.  1.
</event>
<event>
 7    1  0.2817603E-011  0.5052886E+02  0.7816164E-02  0.1300439E+00
        -11   -1    0    0    0    0  0.00000000000E+00  0.00000000000E+00  0.45593999997E+02  0.45594000000E+02  0.51100000000E-03 0. -1.
         11   -1    0    0    0    0 -0.00000000000E+00 -0.00000000000E+00 -0.45593999997E+02  0.45594000000E+02  0.51100000000E-03 0.  1.
    9900012    2    1    2    0    0  0.28332860255E+02 -0.45074527536E+01  0.28811413055E+02  0.50528860526E+02  0.30000002054E+02 0.  0.
        -12    1    1    2    0    0 -0.28332860255E+02  0.45074527536E+01 -0.28811413055E+02  0.40659139474E+02  0.00000000000E+00 0.  1.
         11    1    3    3    0    0  0.15477027728E+02  0.21053973946E+01  0.74028707106E+01  0.17285068137E+02  0.51100000000E-03 0. -1.
        -11    1    3    3    0    0  0.10370031464E+02  0.60421065837E+01  0.69490664620E+01  0.13868458079E+02  0.51100000000E-03 0.  1.
        -12    1    3    3    0    0  0.24858010632E+01 -0.12654956732E+02  0.14459475883E+02  0.19375334310E+02  0.00000000000E+00 0.  1.
</event>
<event>
 7    1  0.2817603E-011  0.5052885E+02  0.7816164E-02  0.1300439E+00
        -11   -1    0    0    0    0  0.00000000000E+00  0.00000000000E+00  0.45593999997E+02  0.45594000000E+02  0.51100000000E-03 0. -1.
         11   -1    0    0    0    0 -0.00000000000E+00 -0.00000000000E+00 -0.45593999997E+02  0.45594000000E+02  0.51100000000E-03 0.  1.
    9900012    2    1    2    0    0  0.34089779441E+02  0.21731862012E+02  0.43335756681E+01  0.50528846456E+02  0.29999959286E+02 0.  0.
        -12    1    1    2    0    0 -0.34089779441E+02 -0.21731862012E+02 -0.43335756681E+01  0.40659153544E+02  0.00000000000E+00 0.  1.
         11    1    3    3    0    0  0.87052178461E+01  0.14002436561E+02  0.11597672689E+01  0.16528584567E+02  0.51100000000E-03 0. -1.
        -11    1    3    3    0    0  0.81776727282E+01  0.13400095581E+02  0.68878144652E+00  0.15713411882E+02  0.51100000000E-03 0.  1.
         12    1    3    3    0    0  0.17206888867E+02 -0.56706701302E+01  0.24850269527E+01  0.18286850007E+02  0.00000000000E+00 0. -1.
</event>
<event>
 7    1  0.2817603E-011  0.5052891E+02  0.7816164E-02  0.1300439E+00
        -11   -1    0    0    0    0  0.00000000000E+00  0.00000000000E+00  0.45593999997E+02  0.45594000000E+02  0.51100000000E-03 0.  1.
         11   -1    0    0    0    0 -0.00000000000E+00 -0.00000000000E+00 -0.45593999997E+02  0.45594000000E+02  0.51100000000E-03 0. -1.
    9900012    2    1    2    0    0 -0.21663710699E+02 -0.91234951199E+01 -0.33175404673E+02  0.50528905080E+02  0.30000137481E+02 0.  0.
        -12    1    1    2    0    0  0.21663710699E+02  0.91234951199E+01  0.33175404673E+02  0.40659094920E+02  0.00000000000E+00 0.  1.
         11    1    3    3    0    0 -0.35920654281E+01 -0.12967722727E+02 -0.23820607019E+02  0.27358473748E+02  0.51100000000E-03 0. -1.
        -11    1    3    3    0    0  0.12607555781E+01 -0.51651099609E+00 -0.83973433184E+00  0.16004506384E+01  0.51100000000E-03 0.  1.
         12    1    3    3    0    0 -0.19332400849E+02  0.43607386035E+01 -0.85150633223E+01  0.21569980694E+02  0.00000000000E+00 0. -1.
</event>
<event>
 7    1  0.2817603E-011  0.5052886E+02  0.7816164E-02  0.1300439E+00
        -11   -1    0    0    0    0  0.00000000000E+00  0.00000000000E+00  0.45593999997E+02  0.45594000000E+02  0.51100000000E-03 0.  1.
         11   -1    0    0    0    0 -0.00000000000E+00 -0.00000000000E+00 -0.45593999997E+02  0.45594000000E+02  0.51100000000E-03 0. -1.
    9900012    2    1    2    0    0 -0.25749294781E+02 -0.20716267890E+02 -0.23684930212E+02  0.50528857656E+02  0.29999993332E+02 0.  0.
        -12    1    1    2    0    0  0.25749294781E+02  0.20716267890E+02  0.23684930212E+02  0.40659142344E+02  0.00000000000E+00 0.  1.
         11    1    3    3    0    0 -0.17080491790E+01 -0.13856182045E+02 -0.17131292804E+02  0.22099601948E+02  0.51100000000E-03 0. -1.
        -11    1    3    3    0    0 -0.32716905727E+01  0.21632950283E+01 -0.40636947040E+01  0.56477800498E+01  0.51100000000E-03 0.  1.
         12    1    3    3    0    0 -0.20769555029E+02 -0.90233808739E+01 -0.24899427034E+01  0.22781475658E+02  0.00000000000E+00 0. -1.
</event>
<event>
 7    1  0.2817603E-011  0.5052886E+02  0.7816164E-02  0.1300439E+00
        -11   -1    0    0    0    0  0.00000000000E+00  0.00000000000E+00  0.45593999997E+02  0.45594000000E+02  0.51100000000E-03 0. -1.
         11   -1    0    0    0    0 -0.00000000000E+00 -0.00000000000E+00 -0.45593999997E+02  0.45594000000E+02  0.51100000000E-03 0.  1.
    9900012    2    1    2    0    0 -0.62981152650E+01 -0.36816010610E+02  0.16064888345E+02  0.50528861658E+02  0.30000005497E+02 0.  0.
        -12    1    1    2    0    0  0.62981152650E+01  0.36816010610E+02 -0.16064888345E+02  0.40659138342E+02  0.00000000000E+00 0.  1.
         11    1    3    3    0    0 -0.78324338515E+01 -0.19870898961E+02  0.11252342360E+02  0.24141558658E+02  0.51100000000E-03 0. -1.
        -11    1    3    3    0    0  0.58740520085E+00 -0.20963717018E+02  0.64566104325E+01  0.21943342832E+02  0.51100000000E-03 0.  1.
        -12    1    3    3    0    0  0.94691338565E+00  0.40186053696E+01 -0.16440644475E+01  0.44439601690E+01  0.00000000000E+00 0.  1.
</event>
<event>
 7    1  0.2817603E-011  0.5052885E+02  0.7816164E-02  0.1300439E+00
        -11   -1    0    0    0    0  0.00000000000E+00  0.00000000000E+00  0.45593999997E+02  0.45594000000E+02  0.51100000000E-03 0.  1.
         11   -1    0    0    0    0 -0.00000000000E+00 -0.00000000000E+00 -0.45593999997E+02  0.45594000000E+02  0.51100000000E-03 0. -1.
    9900012    2    1    2    0    0 -0.39976798453E+01  0.32168716109E+02  0.24542999299E+02  0.50528849064E+02  0.29999967215E+02 0.  0.
        -12    1    1    2    0    0  0.39976798453E+01 -0.32168716109E+02 -0.24542999299E+02  0.40659150936E+02  0.00000000000E+00 0.  1.
         11    1    3    3    0    0 -0.10691694527E+02  0.97590833040E+01  0.11797299950E+02  0.18674269066E+02  0.51100000000E-03 0. -1.
        -11    1    3    3    0    0 -0.26976210528E+01  0.16602043225E+01  0.79796555378E+01  0.85853561662E+01  0.51100000000E-03 0.  1.
         12    1    3    3    0    0  0.93916357342E+01  0.20749428483E+02  0.47660438117E+01  0.23269223832E+02  0.00000000000E+00 0. -1.
</event>
<event>
 7    1  0.2817603E-011  0.5052886E+02  0.7816164E-02  0.1300439E+00
        -11   -1    0    0    0    0  0.00000000000E+00  0.00000000000E+00  0.45593999997E+02  0.45594000000E+02  0.51100000000E-03 0. -1.
         11   -1    0    0    0    0 -0.00000000000E+00 -0.00000000000E+00 -0.45593999997E+02  0.45594000000E+02  0.51100000000E-03 0.  1.
    9900012    2    1    2    0    0 -0.16755924271E+02 -0.89508489348E+01  0.35948395962E+02  0.50528857521E+02  0.29999992922E+02 0.  0.
        -12    1    1    2    0    0  0.16755924271E+02  0.89508489348E+01 -0.35948395962E+02  0.40659142479E+02  0.00000000000E+00 0.  1.
         11    1    3    3    0    0 -0.18535831331E+02 -0.99195594962E+01  0.16073280977E+02  0.26463655555E+02  0.51100000000E-03 0. -1.
        -11    1    3    3    0    0 -0.49823664257E+01 -0.22263787972E+01  0.49352098555E+01  0.73577873255E+01  0.51100000000E-03 0.  1.
        -12    1    3    3    0    0  0.67622734852E+01  0.31950893586E+01  0.14939905129E+02  0.16707414640E+02  0.00000000000E+00 0.  1.
</event>
<event>
 7    1  0.2817603E-011  0.5052880E+02  0.7816164E-02  0.1300439E+00
        -11   -1    0    0    0    0  0.00000000000E+00  0.00000000000E+00  0.45593999997E+02  0.45594000000E+02  0.51100000000E-03 0. -1.
         11   -1    0    0    0    0 -0.00000000000E+00 -0.00000000000E+00 -0.45593999997E+02  0.45594000000E+02  0.51100000000E-03 0.  1.
    9900012    2    1    2    0    0 -0.14585545086E+02 -0.71253656528E+01  0.37278161391E+02  0.50528803281E+02  0.29999828052E+02 0.  0.
        -12    1    1    2    0    0  0.14585545086E+02  0.71253656528E+01 -0.37278161391E+02  0.40659196719E+02  0.00000000000E+00 0.  1.
         11    1    3    3    0    0 -0.15681001810E+02 -0.50590749633E+01  0.16357648350E+02  0.23217681130E+02  0.51100000000E-03 0. -1.
        -11    1    3    3    0    0 -0.42773468650E+01 -0.21049500834E+01 -0.88909422580E+00  0.48494329422E+01  0.51100000000E-03 0.  1.
        -12    1    3    3    0    0  0.53728035891E+01  0.38659393940E-01  0.21809607267E+02  0.22461689209E+02  0.00000000000E+00 0.  1.
</event>
<event>
 7    1  0.2817603E-011  0.5052886E+02  0.7816164E-02  0.1300439E+00
        -11   -1    0    0    0    0  0.00000000000E+00  0.00000000000E+00  0.45593999997E+02  0.45594000000E+02  0.51100000000E-03 0.  1.
         11   -1    0    0    0    0 -0.00000000000E+00 -0.00000000000E+00 -0.45593999997E+02  0.45594000000E+02  0.51100000000E-03 0. -1.
    9900012    2    1    2    0    0 -0.15786747365E+01  0.29860715830E+02 -0.27550156449E+02  0.50528859771E+02  0.29999999761E+02 0.  0.
        -12    1    1    2    0    0  0.15786747365E+01 -0.29860715830E+02  0.27550156449E+02  0.40659140229E+02  0.00000000000E+00 0.  1.
         11    1    3    3    0    0  0.54807477916E+01  0.91594176829E+01 -0.72471253709E+01  0.12901719073E+02  0.51100000000E-03 0. -1.
        -11    1    3    3    0    0  0.32412579821E+01  0.91234841355E+01 -0.19893990201E+02  0.22124975988E+02  0.51100000000E-03 0.  1.
        -12    1    3    3    0    0 -0.10300680510E+02  0.11577814011E+02 -0.40904087636E+00  0.15502164710E+02  0.00000000000E+00 0.  1.
</event>
<event>
 7    1  0.2817603E-011  0.5052886E+02  0.7816164E-02  0.1300439E+00
        -11   -1    0    0    0    0  0.00000000000E+00  0.00000000000E+00  0.45593999997E+02  0.45594000000E+02  0.51100000000E-03 0. -1.
         11   -1    0    0    0    0 -0.00000000000E+00 -0.00000000000E+00 -0.45593999997E+02  0.45594000000E+02  0.51100000000E-03 0.  1.
    9900012    2    1    2    0    0 -0.95698627774E+01 -0.37950295018E+02 -0.11016295922E+02  0.50528856608E+02  0.29999990147E+02 0.  0.
        -12    1    1    2    0    0  0.95698627774E+01  0.37950295018E+02  0.11016295922E+02  0.40659143392E+02  0.00000000000E+00 0.  1.
         11    1    3    3    0    0  0.83298880518E+00 -0.19605353994E+01 -0.48225224537E+01  0.52720292563E+01  0.51100000000E-03 0.  1.
        -11    1    3    3    0    0 -0.60277145592E+01 -0.15396920398E+02 -0.15105459304E+02  0.22395834470E+02  0.51100000000E-03 0. -1.
        -12    1    3    3    0    0 -0.43751370234E+01 -0.20592839220E+02  0.89116858361E+01  0.22860992882E+02  0.00000000000E+00 0.  1.
</event>
<event>
 7    1  0.2817603E-011  0.5052884E+02  0.7816164E-02  0.1300439E+00
        -11   -1    0    0    0    0  0.00000000000E+00  0.00000000000E+00  0.45593999997E+02  0.45594000000E+02  0.51100000000E-03 0.  1.
         11   -1    0    0    0    0 -0.00000000000E+00 -0.00000000000E+00 -0.45593999997E+02  0.45594000000E+02  0.51100000000E-03 0. -1.
    9900012    2    1    2    0    0 -0.36346086385E+02  0.16819432654E+02 -0.70168166573E+01  0.50528843266E+02  0.29999949592E+02 0.  0.
        -12    1    1    2    0    0  0.36346086385E+02 -0.16819432654E+02  0.70168166573E+01  0.40659156734E+02  0.00000000000E+00 0.  1.
         11    1    3    3    0    0 -0.97176648992E+01  0.48089233932E+01 -0.10683459127E+02  0.15221532593E+02  0.51100000000E-03 0. -1.
        -11    1    3    3    0    0  0.28317093260E+01  0.12903369162E+01  0.24033687826E+01  0.39318861670E+01  0.51100000000E-03 0.  1.
        -12    1    3    3    0    0 -0.29460130812E+02  0.10720172345E+02  0.12632736870E+01  0.31375424506E+02  0.00000000000E+00 0.  1.
</event>
<event>
 7    1  0.2817603E-011  0.5052886E+02  0.7816164E-02  0.1300439E+00
        -11   -1    0    0    0    0  0.00000000000E+00  0.00000000000E+00  0.45593999997E+02  0.45594000000E+02  0.51100000000E-03 0.  1.
         11   -1    0    0    0    0 -0.00000000000E+00 -0.00000000000E+00 -0.45593999997E+02  0.45594000000E+02  0.51100000000E-03 0. -1.
    9900012    2    1    2    0    0 -0.30185631031E+02 -0.19305362168E+02 -0.19217076593E+02  0.50528863733E+02  0.30000011804E+02 0.  0.
        -12    1    1    2    0    0  0.30185631031E+02  0.19305362168E+02  0.19217076593E+02  0.40659136267E+02  0.00000000000E+00 0.  1.
         11    1    3    3    0    0 -0.26506802573E+01 -0.23547138574E+01 -0.23903774650E+00  0.35535788273E+01  0.51100000000E-03 0. -1.
        -11    1    3    3    0    0 -0.28020557690E+02 -0.16676979669E+02 -0.50033640293E+01  0.32989497662E+02  0.51100000000E-03 0.  1.
         12    1    3    3    0    0  0.48560691571E+00 -0.27366864205E+00 -0.13974674817E+02  0.13985787244E+02  0.00000000000E+00 0. -1.
</event>
<event>
 7    1  0.2817603E-011  0.5052886E+02  0.7816164E-02  0.1300439E+00
        -11   -1    0    0    0    0  0.00000000000E+00  0.00000000000E+00  0.45593999997E+02  0.45594000000E+02  0.51100000000E-03 0.  1.
         11   -1    0    0    0    0 -0.00000000000E+00 -0.00000000000E+00 -0.45593999997E+02  0.45594000000E+02  0.51100000000E-03 0. -1.
    9900012    2    1    2    0    0 -0.69797706504E+01  0.32038411382E+02 -0.24041399464E+02  0.50528857235E+02  0.29999992052E+02 0.  0.
        -12    1    1    2    0    0  0.69797706504E+01 -0.32038411382E+02  0.24041399464E+02  0.40659142765E+02  0.00000000000E+00 0.  1.
         11    1    3    3    0    0 -0.19015930517E+01  0.89484351906E+01  0.53152605692E+01  0.10580290340E+02  0.51100000000E-03 0. -1.
        -11    1    3    3    0    0  0.19335976916E+01  0.22914468998E+01  0.34399064938E+00  0.30179229208E+01  0.51100000000E-03 0.  1.
         12    1    3    3    0    0 -0.70117752903E+01  0.20798529291E+02 -0.29700650683E+02  0.36930643974E+02  0.00000000000E+00 0. -1.
</event>
<event>
 7    1  0.2817603E-011  0.5052886E+02  0.7816164E-02  0.1300439E+00
        -11   -1    0    0    0    0  0.00000000000E+00  0.00000000000E+00  0.45593999997E+02  0.45594000000E+02  0.51100000000E-03 0. -1.
         11   -1    0    0    0    0 -0.00000000000E+00 -0.00000000000E+00 -0.45593999997E+02  0.45594000000E+02  0.51100000000E-03 0.  1.
    9900012    2    1    2    0    0 -0.28583217156E+02  0.26162617442E+02  0.12315953219E+02  0.50528861322E+02  0.30000004474E+02 0.  0.
        -12    1    1    2    0    0  0.28583217156E+02 -0.26162617442E+02 -0.12315953219E+02  0.40659138678E+02  0.00000000000E+00 0.  1.
         11    1    3    3    0    0 -0.62034034232E+01  0.12743366458E+02  0.24525218229E+01  0.14383687506E+02  0.51100000000E-03 0. -1.
        -11    1    3    3    0    0 -0.26328164708E+02  0.14662145377E+02  0.65406958393E+01  0.30837176691E+02  0.51100000000E-03 0.  1.
        -12    1    3    3    0    0  0.39483509756E+01 -0.12428943936E+01  0.33227355564E+01  0.53079971249E+01  0.00000000000E+00 0.  1.
</event>
<event>
 7    1  0.2817603E-011  0.5052886E+02  0.7816164E-02  0.1300439E+00
        -11   -1    0    0    0    0  0.00000000000E+00  0.00000000000E+00  0.45593999997E+02  0.45594000000E+02  0.51100000000E-03 0.  1.
         11   -1    0    0    0    0 -0.00000000000E+00 -0.00000000000E+00 -0.45593999997E+02  0.45594000000E+02  0.51100000000E-03 0. -1.
    9900012    2    1    2    0    0  0.15639628685E+02 -0.16388550993E+02 -0.33763636297E+02  0.50528859268E+02  0.29999998232E+02 0.  0.
        -12    1    1    2    0    0 -0.15639628685E+02  0.16388550993E+02  0.33763636297E+02  0.40659140732E+02  0.00000000000E+00 0.  1.
         11    1    3    3    0    0  0.74786007525E+00 -0.14723754025E+02 -0.15905786759E+02  0.21687376051E+02  0.51100000000E-03 0. -1.
        -11    1    3    3    0    0  0.43541266065E+01 -0.33131704935E+01  0.23788457144E+01  0.59661063030E+01  0.51100000000E-03 0.  1.
         12    1    3    3    0    0  0.10537642003E+02  0.16483735253E+01 -0.20236695252E+02  0.22875376915E+02  0.00000000000E+00 0. -1.
</event>
<event>
 7    1  0.2817603E-011  0.5052885E+02  0.7816164E-02  0.1300439E+00
        -11   -1    0    0    0    0  0.00000000000E+00  0.00000000000E+00  0.45593999997E+02  0.45594000000E+02  0.51100000000E-03 0. -1.
         11   -1    0    0    0    0 -0.00000000000E+00 -0.00000000000E+00 -0.45593999997E+02  0.45594000000E+02  0.51100000000E-03 0.  1.
    9900012    2    1    2    0    0 -0.18815599134E+02  0.30947077736E+02  0.18477504774E+02  0.50528848830E+02  0.29999966504E+02 0.  0.
        -12    1    1    2    0    0  0.18815599134E+02 -0.30947077736E+02 -0.18477504774E+02  0.40659151170E+02  0.00000000000E+00 0.  1.
         11    1    3    3    0    0 -0.56134480264E+01  0.73838348967E+01  0.21995842161E+01  0.95325750725E+01  0.51100000000E-03 0. -1.
        -11    1    3    3    0    0 -0.63898892706E+01  0.14085693133E+02 -0.53942593711E+01  0.16380948396E+02  0.51100000000E-03 0.  1.
        -12    1    3    3    0    0 -0.68122618366E+01  0.94775497070E+01  0.21672179929E+02  0.24615325362E+02  0.00000000000E+00 0.  1.
</event>
<event>
 7    1  0.2817603E-011  0.5052897E+02  0.7816164E-02  0.1300438E+00
        -11   -1    0    0    0    0  0.00000000000E+00  0.00000000000E+00  0.45593999997E+02  0.45594000000E+02  0.51100000000E-03 0.  1.
         11   -1    0    0    0    0 -0.00000000000E+00 -0.00000000000E+00 -0.45593999997E+02  0.45594000000E+02  0.51100000000E-03 0. -1.
    9900012    2    1    2    0    0 -0.19288901598E+02  0.35738123995E+02 -0.19702041096E+01  0.50528967353E+02  0.30000326766E+02 0.  0.
        -12    1    1    2    0    0  0.19288901598E+02 -0.35738123995E+02  0.19702041096E+01  0.40659032647E+02  0.00000000000E+00 0.  1.
         11    1    3    3    0    0 -0.28813224340E+01  0.16527077806E+02  0.35654005946E+01  0.17151046657E+02  0.51100000000E-03 0. -1.
        -11    1    3    3    0    0 -0.12047241657E+02  0.23738221990E+02 -0.41556088072E+01  0.26942685457E+02  0.51100000000E-03 0.  1.
        -12    1    3    3    0    0 -0.43603375070E+01 -0.45271758016E+01 -0.13799958969E+01  0.64352352396E+01  0.00000000000E+00 0.  1.
</event>
<event>
 7    1  0.2817603E-011  0.5052886E+02  0.7816164E-02  0.1300439E+00
        -11   -1    0    0    0    0  0.00000000000E+00  0.00000000000E+00  0.45593999997E+02  0.45594000000E+02  0.51100000000E-03 0.  1.
         11   -1    0    0    0    0 -0.00000000000E+00 -0.00000000000E+00 -0.45593999997E+02  0.45594000000E+02  0.51100000000E-03 0. -1.
    9900012    2    1    2    0    0 -0.13921703511E+01 -0.18540249894E+02 -0.36159185734E+02  0.50528859363E+02  0.29999998519E+02 0.  0.
        -12    1    1    2    0    0  0.13921703511E+01  0.18540249894E+02  0.36159185734E+02  0.40659140637E+02  0.00000000000E+00 0.  1.
         11    1    3    3    0    0 -0.32423957012E+01 -0.77031252624E+01  0.11295179481E+01  0.84336871976E+01  0.51100000000E-03 0.  1.
        -11    1    3    3    0    0  0.50719296970E+01 -0.11806841188E+02 -0.15900077132E+02  0.20443542323E+02  0.51100000000E-03 0. -1.
        -12    1    3    3    0    0 -0.32217043469E+01  0.96971655569E+00 -0.21388626550E+02  0.21651629842E+02  0.00000000000E+00 0.  1.
</event>
<event>
 7    1  0.2817603E-011  0.5052886E+02  0.7816164E-02  0.1300439E+00
        -11   -1    0    0    0    0  0.00000000000E+00  0.00000000000E+00  0.45593999997E+02  0.45594000000E+02  0.51100000000E-03 0.  1.
         11   -1    0    0    0    0 -0.00000000000E+00 -0.00000000000E+00 -0.45593999997E+02  0.45594000000E+02  0.51100000000E-03 0. -1.
    9900012    2    1    2    0    0  0.65565389622E+00 -0.46032762605E+01 -0.40392396253E+02  0.50528859461E+02  0.29999998816E+02 0.  0.
        -12    1    1    2    0    0 -0.65565389622E+00  0.46032762605E+01  0.40392396253E+02  0.40659140539E+02  0.00000000000E+00 0.  1.
         11    1    3    3    0    0 -0.50626756807E+00  0.53192429901E+01 -0.58444102655E+01  0.79188246888E+01  0.51100000000E-03 0. -1.
        -11    1    3    3    0    0 -0.41155818865E+01  0.22989205713E+01 -0.26791201347E+02  0.27202785151E+02  0.51100000000E-03 0.  1.
        -12    1    3    3    0    0  0.52775033508E+01 -0.12221439822E+02 -0.77567846398E+01  0.15407249621E+02  0.00000000000E+00 0.  1.
</event>
<event>
 7    1  0.2817603E-011  0.5052886E+02  0.7816164E-02  0.1300439E+00
        -11   -1    0    0    0    0  0.00000000000E+00  0.00000000000E+00  0.45593999997E+02  0.45594000000E+02  0.51100000000E-03 0.  1.
         11   -1    0    0    0    0 -0.00000000000E+00 -0.00000000000E+00 -0.45593999997E+02  0.45594000000E+02  0.51100000000E-03 0. -1.
    9900012    2    1    2    0    0  0.34694893505E+01 -0.77052563909E+01 -0.39771316267E+02  0.50528856748E+02  0.29999990570E+02 0.  0.
        -12    1    1    2    0    0 -0.34694893505E+01  0.77052563909E+01  0.39771316267E+02  0.40659143252E+02  0.00000000000E+00 0.  1.
         11    1    3    3    0    0  0.44854408896E-01  0.10884013380E+01 -0.25311009144E+02  0.25334439279E+02  0.51100000000E-03 0. -1.
        -11    1    3    3    0    0 -0.20412016109E+01  0.48161870741E+01 -0.70031733354E+01  0.87410868304E+01  0.51100000000E-03 0.  1.
        -12    1    3    3    0    0  0.54658365525E+01 -0.13609844803E+02 -0.74571337873E+01  0.16453330639E+02  0.00000000000E+00 0.  1.
</event>
<event>
 7    1  0.2817603E-011  0.5052886E+02  0.7816164E-02  0.1300439E+00
        -11   -1    0    0    0    0  0.00000000000E+00  0.00000000000E+00  0.45593999997E+02  0.45594000000E+02  0.51100000000E-03 0. -1.
         11   -1    0    0    0    0 -0.00000000000E+00 -0.00000000000E+00 -0.45593999997E+02  0.45594000000E+02  0.51100000000E-03 0.  1.
    9900012    2    1    2    0    0  0.36195290432E+02 -0.32422099919E+01 -0.18236086868E+02  0.50528857863E+02  0.29999993961E+02 0.  0.
        -12    1    1    2    0    0 -0.36195290432E+02  0.32422099919E+01  0.18236086868E+02  0.40659142137E+02  0.00000000000E+00 0.  1.
         11    1    3    3    0    0  0.36203688854E+00  0.55846245845E+01  0.96468901374E+00  0.56788843634E+01  0.51100000000E-03 0. -1.
        -11    1    3    3    0    0  0.27388227169E+01 -0.62359112724E+01 -0.61643254570E+01  0.91862205434E+01  0.51100000000E-03 0.  1.
         12    1    3    3    0    0  0.33094430826E+02 -0.25909233039E+01 -0.13036450424E+02  0.35663752956E+02  0.00000000000E+00 0. -1.
</event>
<event>
 7    1  0.2817603E-011  0.5052888E+02  0.7816164E-02  0.1300439E+00
        -11   -1    0    0    0    0  0.00000000000E+00  0.00000000000E+00  0.45593999997E+02  0.45594000000E+02  0.51100000000E-03 0. -1.
         11   -1    0    0    0    0 -0.00000000000E+00 -0.00000000000E+00 -0.45593999997E+02  0.45594000000E+02  0.51100000000E-03 0.  1.
    9900012    2    1    2    0    0 -0.23356888418E+02 -0.26300498978E+02  0.20393712675E+02  0.50528880484E+02  0.30000062720E+02 0.  0.
        -12    1    1    2    0    0  0.23356888418E+02  0.26300498978E+02 -0.20393712675E+02  0.40659119516E+02  0.00000000000E+00 0.  1.
         11    1    3    3    0    0 -0.59716783389E+01 -0.20141400547E+02  0.16565652202E+02  0.26753650055E+02  0.51100000000E-03 0.  1.
        -11    1    3    3    0    0  0.35565975493E+00 -0.37015096615E+01 -0.28242008092E+01  0.46694515853E+01  0.51100000000E-03 0. -1.
        -12    1    3    3    0    0 -0.17740869834E+02 -0.24575887704E+01  0.66522612831E+01  0.19105778844E+02  0.00000000000E+00 0.  1.
</event>
<event>
 7    1  0.2817603E-011  0.5052886E+02  0.7816164E-02  0.1300439E+00
        -11   -1    0    0    0    0  0.00000000000E+00  0.00000000000E+00  0.45593999997E+02  0.45594000000E+02  0.51100000000E-03 0. -1.
         11   -1    0    0    0    0 -0.00000000000E+00 -0.00000000000E+00 -0.45593999997E+02  0.45594000000E+02  0.51100000000E-03 0.  1.
    9900012    2    1    2    0    0  0.33043810562E+02  0.19806942576E+02 -0.12998354775E+02  0.50528860591E+02  0.30000002251E+02 0.  0.
        -12    1    1    2    0    0 -0.33043810562E+02 -0.19806942576E+02  0.12998354775E+02  0.40659139409E+02  0.00000000000E+00 0.  1.
         11    1    3    3    0    0  0.15889171834E+02  0.63884077175E+01 -0.38866174908E+00  0.17129757528E+02  0.51100000000E-03 0. -1.
        -11    1    3    3    0    0  0.20687632243E+02  0.43294001519E+01 -0.94104410525E+01  0.23136080795E+02  0.51100000000E-03 0.  1.
         12    1    3    3    0    0 -0.35329935149E+01  0.90891347064E+01 -0.31992519733E+01  0.10263022268E+02  0.00000000000E+00 0. -1.
</event>
<event>
 7    1  0.2817603E-011  0.5052886E+02  0.7816164E-02  0.1300439E+00
        -11   -1    0    0    0    0  0.00000000000E+00  0.00000000000E+00  0.45593999997E+02  0.45594000000E+02  0.51100000000E-03 0.  1.
         11   -1    0    0    0    0 -0.00000000000E+00 -0.00000000000E+00 -0.45593999997E+02  0.45594000000E+02  0.51100000000E-03 0. -1.
    9900012    2    1    2    0    0 -0.26465756794E+02  0.29484939572E+02 -0.91305920336E+01  0.50528860128E+02  0.30000000846E+02 0.  0.
        -12    1    1    2    0    0  0.26465756794E+02 -0.29484939572E+02  0.91305920336E+01  0.40659139872E+02  0.00000000000E+00 0.  1.
         11    1    3    3    0    0  0.40985821270E+01  0.54128916134E+01 -0.23293194813E+01  0.71779872233E+01  0.51100000000E-03 0. -1.
        -11    1    3    3    0    0 -0.42182296296E+01  0.12438705293E+02  0.18854522469E+01  0.13269128871E+02  0.51100000000E-03 0.  1.
         12    1    3    3    0    0 -0.26346109291E+02  0.11633342666E+02 -0.86867247993E+01  0.30081744034E+02  0.00000000000E+00 0. -1.
</event>
<event>
 7    1  0.2817603E-011  0.5052893E+02  0.7816164E-02  0.1300439E+00
        -11   -1    0    0    0    0  0.00000000000E+00  0.00000000000E+00  0.45593999997E+02  0.45594000000E+02  0.51100000000E-03 0. -1.
         11   -1    0    0    0    0 -0.00000000000E+00 -0.00000000000E+00 -0.45593999997E+02  0.45594000000E+02  0.51100000000E-03 0.  1.
    9900012    2    1    2    0    0 -0.89879282000E+01  0.39646143780E+02 -0.74835170305E+00  0.50528934587E+02  0.30000227171E+02 0.  0.
        -12    1    1    2    0    0  0.89879282000E+01 -0.39646143780E+02  0.74835170305E+00  0.40659065413E+02  0.00000000000E+00 0.  1.
         11    1    3    3    0    0 -0.40558732125E+01  0.40988155874E+01 -0.12842183594E+01  0.59075895077E+01  0.51100000000E-03 0.  1.
        -11    1    3    3    0    0 -0.77751379221E+01  0.39622849947E+01 -0.79371288255E+01  0.11796206439E+02  0.51100000000E-03 0. -1.
         12    1    3    3    0    0  0.28430829346E+01  0.31585043198E+02  0.84729954819E+01  0.32825138641E+02  0.00000000000E+00 0. -1.
</event>
<event>
 7    1  0.2817603E-011  0.5052886E+02  0.7816164E-02  0.1300439E+00
        -11   -1    0    0    0    0  0.00000000000E+00  0.00000000000E+00  0.45593999997E+02  0.45594000000E+02  0.51100000000E-03 0.  1.
         11   -1    0    0    0    0 -0.00000000000E+00 -0.00000000000E+00 -0.45593999997E+02  0.45594000000E+02  0.51100000000E-03 0. -1.
    9900012    2    1    2    0    0 -0.22624004826E+02 -0.16706139955E+02 -0.29363664882E+02  0.50528861767E+02  0.30000005827E+02 0.  0.
        -12    1    1    2    0    0  0.22624004826E+02  0.16706139955E+02  0.29363664882E+02  0.40659138233E+02  0.00000000000E+00 0.  1.
         11    1    3    3    0    0 -0.10007722064E+02  0.39364099784E+01 -0.14808907698E+01  0.10855545227E+02  0.51100000000E-03 0. -1.
        -11    1    3    3    0    0 -0.70913738041E+01 -0.12025458382E+02 -0.53974731458E+01  0.14967696828E+02  0.51100000000E-03 0.  1.
        -12    1    3    3    0    0 -0.55249089571E+01 -0.86170915514E+01 -0.22485300967E+02  0.24705619712E+02  0.00000000000E+00 0.  1.
</event>
<event>
 7    1  0.2817603E-011  0.5052886E+02  0.7816164E-02  0.1300439E+00
        -11   -1    0    0    0    0  0.00000000000E+00  0.00000000000E+00  0.45593999997E+02  0.45594000000E+02  0.51100000000E-03 0.  1.
         11   -1    0    0    0    0 -0.00000000000E+00 -0.00000000000E+00 -0.45593999997E+02  0.45594000000E+02  0.51100000000E-03 0. -1.
    9900012    2    1    2    0    0  0.11494736492E+02  0.21510728485E+02 -0.32531912560E+02  0.50528859063E+02  0.29999997607E+02 0.  0.
        -12    1    1    2    0    0 -0.11494736492E+02 -0.21510728485E+02  0.32531912560E+02  0.40659140937E+02  0.00000000000E+00 0.  1.
         11    1    3    3    0    0 -0.23820521266E+01 -0.41522455298E+01 -0.85675530722E+01  0.98141877493E+01  0.51100000000E-03 0. -1.
        -11    1    3    3    0    0  0.32341966077E+01 -0.41922101915E+00  0.62711976686E+00  0.33210018704E+01  0.51100000000E-03 0.  1.
         12    1    3    3    0    0  0.10642592011E+02  0.26082195034E+02 -0.24591479254E+02  0.37393669443E+02  0.00000000000E+00 0. -1.
</event>
<event>
 7    1  0.2817603E-011  0.5052885E+02  0.7816164E-02  0.1300439E+00
        -11   -1    0    0    0    0  0.00000000000E+00  0.00000000000E+00  0.45593999997E+02  0.45594000000E+02  0.51100000000E-03 0.  1.
         11   -1    0    0    0    0 -0.00000000000E+00 -0.00000000000E+00 -0.45593999997E+02  0.45594000000E+02  0.51100000000E-03 0. -1.
    9900012    2    1    2    0    0  0.27969934394E+02 -0.28939828705E+02 -0.57736637053E+01  0.50528854558E+02  0.29999983915E+02 0.  0.
        -12    1    1    2    0    0 -0.27969934394E+02  0.28939828705E+02  0.57736637053E+01  0.40659145442E+02  0.00000000000E+00 0.  1.
         11    1    3    3    0    0  0.19041177762E+02 -0.88829622230E+01 -0.42246620016E+01  0.21431781021E+02  0.51100000000E-03 0. -1.
        -11    1    3    3    0    0  0.11794848620E+02 -0.39621756810E+01 -0.26153006224E+01  0.12714444058E+02  0.51100000000E-03 0.  1.
        -12    1    3    3    0    0 -0.28660919887E+01 -0.16094690801E+02  0.10662989187E+01  0.16382629479E+02  0.00000000000E+00 0.  1.
</event>
<event>
 7    1  0.2817603E-011  0.5052885E+02  0.7816164E-02  0.1300439E+00
        -11   -1    0    0    0    0  0.00000000000E+00  0.00000000000E+00  0.45593999997E+02  0.45594000000E+02  0.51100000000E-03 0.  1.
         11   -1    0    0    0    0 -0.00000000000E+00 -0.00000000000E+00 -0.45593999997E+02  0.45594000000E+02  0.51100000000E-03 0. -1.
    9900012    2    1    2    0    0  0.23047601248E+02 -0.93030198559E+01 -0.32178067591E+02  0.50528854220E+02  0.29999982886E+02 0.  0.
        -12    1    1    2    0    0 -0.23047601248E+02  0.93030198559E+01  0.32178067591E+02  0.40659145780E+02  0.00000000000E+00 0.  1.
         11    1    3    3    0    0 -0.73606171985E+00  0.53562068782E+01 -0.60246261579E+00  0.54400092318E+01  0.51100000000E-03 0. -1.
        -11    1    3    3    0    0 -0.18471521902E+01 -0.34884641071E+01 -0.21360878435E+01  0.44882317873E+01  0.51100000000E-03 0.  1.
         12    1    3    3    0    0  0.25630815158E+02 -0.11170762627E+02 -0.29439517131E+02  0.40600613201E+02  0.00000000000E+00 0. -1.
</event>
<event>
 7    1  0.2817603E-011  0.5052886E+02  0.7816164E-02  0.1300439E+00
        -11   -1    0    0    0    0  0.00000000000E+00  0.00000000000E+00  0.45593999997E+02  0.45594000000E+02  0.51100000000E-03 0.  1.
         11   -1    0    0    0    0 -0.00000000000E+00 -0.00000000000E+00 -0.45593999997E+02  0.45594000000E+02  0.51100000000E-03 0. -1.
    9900012    2    1    2    0    0 -0.13188353604E+02 -0.38383824309E+02  0.24320539147E+01  0.50528861721E+02  0.30000005686E+02 0.  0.
        -12    1    1    2    0    0  0.13188353604E+02  0.38383824309E+02 -0.24320539147E+01  0.40659138279E+02  0.00000000000E+00 0.  1.
         11    1    3    3    0    0 -0.11200840397E+02 -0.18634988981E+02 -0.11804115279E+02  0.24739821699E+02  0.51100000000E-03 0. -1.
        -11    1    3    3    0    0 -0.29314890564E+01 -0.47248739616E+01  0.81216880082E+00  0.56194021447E+01  0.51100000000E-03 0.  1.
        -12    1    3    3    0    0  0.94397584977E+00 -0.15023961366E+02  0.13424000393E+02  0.20169637877E+02  0.00000000000E+00 0.  1.
</event>
<event>
 7    1  0.2817603E-011  0.5052886E+02  0.7816164E-02  0.1300439E+00
        -11   -1    0    0    0    0  0.00000000000E+00  0.00000000000E+00  0.45593999997E+02  0.45594000000E+02  0.51100000000E-03 0.  1.
         11   -1    0    0    0    0 -0.00000000000E+00 -0.00000000000E+00 -0.45593999997E+02  0.45594000000E+02  0.51100000000E-03 0. -1.
    9900012    2    1    2    0    0 -0.17930957674E+01 -0.40295566915E+02  0.51203557672E+01  0.50528856519E+02  0.29999989874E+02 0.  0.
        -12    1    1    2    0    0  0.17930957674E+01  0.40295566915E+02 -0.51203557672E+01  0.40659143481E+02  0.00000000000E+00 0.  1.
         11    1    3    3    0    0 -0.62953241921E+01 -0.30243943339E+02  0.14602259491E+02  0.34169477577E+02  0.51100000000E-03 0. -1.
        -11    1    3    3    0    0 -0.62361051546E+00 -0.29796818211E+01  0.51165061571E+00  0.30869370651E+01  0.51100000000E-03 0.  1.
        -12    1    3    3    0    0  0.51258389402E+01 -0.70719417551E+01 -0.99935543394E+01  0.13272441876E+02  0.00000000000E+00 0.  1.
</event>
<event>
 7    1  0.2817603E-011  0.5052887E+02  0.7816164E-02  0.1300439E+00
        -11   -1    0    0    0    0  0.00000000000E+00  0.00000000000E+00  0.45593999997E+02  0.45594000000E+02  0.51100000000E-03 0.  1.
         11   -1    0    0    0    0 -0.00000000000E+00 -0.00000000000E+00 -0.45593999997E+02  0.45594000000E+02  0.51100000000E-03 0. -1.
    9900012    2    1    2    0    0  0.37570732067E+02  0.12200005104E+02 -0.96314694927E+01  0.50528865268E+02  0.30000016468E+02 0.  0.
        -12    1    1    2    0    0 -0.37570732067E+02 -0.12200005104E+02  0.96314694927E+01  0.40659134732E+02  0.00000000000E+00 0.  1.
         11    1    3    3    0    0  0.21403801745E+00 -0.26478782528E+01 -0.22790729220E+00  0.26662733373E+01  0.51100000000E-03 0. -1.
        -11    1    3    3    0    0  0.63214596806E+00 -0.26179283956E+01  0.41931052355E+01  0.49835017194E+01  0.51100000000E-03 0.  1.
         12    1    3    3    0    0  0.36724548082E+02  0.17465811752E+02 -0.13596667436E+02  0.42879090211E+02  0.00000000000E+00 0. -1.
</event>
<event>
 7    1  0.2817603E-011  0.5052887E+02  0.7816164E-02  0.1300439E+00
        -11   -1    0    0    0    0  0.00000000000E+00  0.00000000000E+00  0.45593999997E+02  0.45594000000E+02  0.51100000000E-03 0. -1.
         11   -1    0    0    0    0 -0.00000000000E+00 -0.00000000000E+00 -0.45593999997E+02  0.45594000000E+02  0.51100000000E-03 0.  1.
    9900012    2    1    2    0    0 -0.28161052438E+01 -0.29805718102E+02  0.27510976765E+02  0.50528866673E+02  0.30000020740E+02 0.  0.
        -12    1    1    2    0    0  0.28161052438E+01  0.29805718102E+02 -0.27510976765E+02  0.40659133327E+02  0.00000000000E+00 0.  1.
         11    1    3    3    0    0  0.83069974803E+01 -0.11446687532E+02  0.61484363005E+01  0.15421936707E+02  0.51100000000E-03 0.  1.
        -11    1    3    3    0    0 -0.26356047222E+01 -0.14041814389E+01 -0.30017594964E+01  0.42342293397E+01  0.51100000000E-03 0. -1.
         12    1    3    3    0    0 -0.84874980019E+01 -0.16954849132E+02  0.24364299961E+02  0.30872700627E+02  0.00000000000E+00 0. -1.
</event>
<event>
 7    1  0.2817603E-011  0.5052891E+02  0.7816164E-02  0.1300439E+00
        -11   -1    0    0    0    0  0.00000000000E+00  0.00000000000E+00  0.45593999997E+02  0.45594000000E+02  0.51100000000E-03 0. -1.
         11   -1    0    0    0    0 -0.00000000000E+00 -0.00000000000E+00 -0.45593999997E+02  0.45594000000E+02  0.51100000000E-03 0.  1.
    9900012    2    1    2    0    0  0.35036823445E+02 -0.47195229626E+01  0.20082553729E+02  0.50528906818E+02  0.30000142764E+02 0.  0.
        -12    1    1    2    0    0 -0.35036823445E+02  0.47195229626E+01 -0.20082553729E+02  0.40659093182E+02  0.00000000000E+00 0.  1.
         11    1    3    3    0    0  0.25432663603E+01 -0.30170588043E+00 -0.16599121671E+01  0.30519729490E+01  0.51100000000E-03 0. -1.
        -11    1    3    3    0    0  0.64256581895E+01 -0.43592395895E+01 -0.56958384464E+01  0.96298820779E+01  0.51100000000E-03 0.  1.
         12    1    3    3    0    0  0.26067898895E+02 -0.58577492721E-01  0.27438304342E+02  0.37847051791E+02  0.00000000000E+00 0. -1.
</event>
<event>
 7    1  0.2817603E-011  0.5052885E+02  0.7816164E-02  0.1300439E+00
        -11   -1    0    0    0    0  0.00000000000E+00  0.00000000000E+00  0.45593999997E+02  0.45594000000E+02  0.51100000000E-03 0.  1.
         11   -1    0    0    0    0 -0.00000000000E+00 -0.00000000000E+00 -0.45593999997E+02  0.45594000000E+02  0.51100000000E-03 0. -1.
    9900012    2    1    2    0    0 -0.28626481877E+02  0.25779295599E+02 -0.13004563143E+02  0.50528853319E+02  0.29999980149E+02 0.  0.
        -12    1    1    2    0    0  0.28626481877E+02 -0.25779295599E+02  0.13004563143E+02  0.40659146681E+02  0.00000000000E+00 0.  1.
         11    1    3    3    0    0 -0.31828182245E+02  0.11596060558E+02 -0.81558726732E+01  0.34842790715E+02  0.51100000000E-03 0. -1.
        -11    1    3    3    0    0  0.83251599258E+00  0.10696874920E+01 -0.13400392701E+01  0.19060481933E+01  0.51100000000E-03 0.  1.
         12    1    3    3    0    0  0.23691843750E+01  0.13113547549E+02 -0.35086511997E+01  0.13780014411E+02  0.00000000000E+00 0. -1.
</event>
<event>
 7    1  0.2817603E-011  0.5052887E+02  0.7816164E-02  0.1300439E+00
        -11   -1    0    0    0    0  0.00000000000E+00  0.00000000000E+00  0.45593999997E+02  0.45594000000E+02  0.51100000000E-03 0. -1.
         11   -1    0    0    0    0 -0.00000000000E+00 -0.00000000000E+00 -0.45593999997E+02  0.45594000000E+02  0.51100000000E-03 0.  1.
    9900012    2    1    2    0    0 -0.38108643107E+02  0.40635455426E+01  0.13578800641E+02  0.50528869308E+02  0.30000028747E+02 0.  0.
        -12    1    1    2    0    0  0.38108643107E+02 -0.40635455426E+01 -0.13578800641E+02  0.40659130692E+02  0.00000000000E+00 0.  1.
         11    1    3    3    0    0 -0.12472827905E+02 -0.37612207362E+01  0.70454297828E+01  0.14810681904E+02  0.51100000000E-03 0. -1.
        -11    1    3    3    0    0 -0.26217882492E+02  0.55353964791E+01  0.12301834347E+02  0.29484794473E+02  0.51100000000E-03 0.  1.
        -12    1    3    3    0    0  0.58206729069E+00  0.22893697997E+01 -0.57684634884E+01  0.62333929306E+01  0.00000000000E+00 0.  1.
</event>
<event>
 7    1  0.2817603E-011  0.5052886E+02  0.7816164E-02  0.1300439E+00
        -11   -1    0    0    0    0  0.00000000000E+00  0.00000000000E+00  0.45593999997E+02  0.45594000000E+02  0.51100000000E-03 0. -1.
         11   -1    0    0    0    0 -0.00000000000E+00 -0.00000000000E+00 -0.45593999997E+02  0.45594000000E+02  0.51100000000E-03 0.  1.
    9900012    2    1    2    0    0  0.37739540167E+02 -0.81237901411E+01 -0.12763089591E+02  0.50528864320E+02  0.30000013588E+02 0.  0.
        -12    1    1    2    0    0 -0.37739540167E+02  0.81237901411E+01  0.12763089591E+02  0.40659135680E+02  0.00000000000E+00 0.  1.
         11    1    3    3    0    0  0.14744207127E+02 -0.74890149969E+01 -0.10546829361E+02  0.19614091854E+02  0.51100000000E-03 0. -1.
        -11    1    3    3    0    0  0.81617185521E+01 -0.99895014650E+01 -0.33923580027E+01  0.13338361306E+02  0.51100000000E-03 0.  1.
         12    1    3    3    0    0  0.14833614488E+02  0.93547263207E+01  0.11760977723E+01  0.17576411161E+02  0.00000000000E+00 0. -1.
</event>
<event>
 7    1  0.2817603E-011  0.5052885E+02  0.7816164E-02  0.1300439E+00
        -11   -1    0    0    0    0  0.00000000000E+00  0.00000000000E+00  0.45593999997E+02  0.45594000000E+02  0.51100000000E-03 0. -1.
         11   -1    0    0    0    0 -0.00000000000E+00 -0.00000000000E+00 -0.45593999997E+02  0.45594000000E+02  0.51100000000E-03 0.  1.
    9900012    2    1    2    0    0  0.31365230895E+02 -0.34917368020E+00  0.25870184699E+02  0.50528854809E+02  0.29999984676E+02 0.  0.
        -12    1    1    2    0    0 -0.31365230895E+02  0.34917368020E+00 -0.25870184699E+02  0.40659145191E+02  0.00000000000E+00 0.  1.
         11    1    3    3    0    0 -0.26970904647E+01 -0.16399875630E+01 -0.14471907223E+01  0.34724944103E+01  0.51100000000E-03 0. -1.
        -11    1    3    3    0    0  0.19841823251E+02  0.83519726021E+01  0.10583047410E+02  0.23988628327E+02  0.51100000000E-03 0.  1.
         12    1    3    3    0    0  0.14220498108E+02 -0.70611587193E+01  0.16734328011E+02  0.23067732071E+02  0.00000000000E+00 0. -1.
</event>
<event>
 7    1  0.2817603E-011  0.5052886E+02  0.7816164E-02  0.1300439E+00
        -11   -1    0    0    0    0  0.00000000000E+00  0.00000000000E+00  0.45593999997E+02  0.45594000000E+02  0.51100000000E-03 0.  1.
         11   -1    0    0    0    0 -0.00000000000E+00 -0.00000000000E+00 -0.45593999997E+02  0.45594000000E+02  0.51100000000E-03 0. -1.
    9900012    2    1    2    0    0  0.39574583481E+02  0.88419852787E+00 -0.92863586709E+01  0.50528856845E+02  0.29999990865E+02 0.  0.
        -12    1    1    2    0    0 -0.39574583481E+02 -0.88419852787E+00  0.92863586709E+01  0.40659143155E+02  0.00000000000E+00 0.  1.
         11    1    3    3    0    0 -0.22968417072E+01  0.96352406983E+00  0.23084506644E+00  0.25014296246E+01  0.51100000000E-03 0. -1.
        -11    1    3    3    0    0  0.28842009156E+00 -0.30766855271E+01 -0.52851939281E+01  0.61222916543E+01  0.51100000000E-03 0.  1.
         12    1    3    3    0    0  0.41583005097E+02  0.29973599851E+01 -0.42320098093E+01  0.41905135566E+02  0.00000000000E+00 0. -1.
</event>
<event>
 7    1  0.2817603E-011  0.5052889E+02  0.7816164E-02  0.1300439E+00
        -11   -1    0    0    0    0  0.00000000000E+00  0.00000000000E+00  0.45593999997E+02  0.45594000000E+02  0.51100000000E-03 0.  1.
         11   -1    0    0    0    0 -0.00000000000E+00 -0.00000000000E+00 -0.45593999997E+02  0.45594000000E+02  0.51100000000E-03 0. -1.
    9900012    2    1    2    0    0 -0.28443066331E+02 -0.25844956967E+02 -0.13273788054E+02  0.50528889432E+02  0.30000089916E+02 0.  0.
        -12    1    1    2    0    0  0.28443066331E+02  0.25844956967E+02  0.13273788054E+02  0.40659110568E+02  0.00000000000E+00 0.  1.
         11    1    3    3    0    0 -0.16736007533E+02 -0.35714023478E+01 -0.97833214149E+00  0.17140770021E+02  0.51100000000E-03 0. -1.
        -11    1    3    3    0    0 -0.46377669470E+01 -0.16548431211E+02  0.10715072224E+01  0.17219395628E+02  0.51100000000E-03 0.  1.
         12    1    3    3    0    0 -0.70692918507E+01 -0.57251234082E+01 -0.13366963135E+02  0.16168723783E+02  0.00000000000E+00 0. -1.
</event>
<event>
 7    1  0.2817603E-011  0.5052883E+02  0.7816164E-02  0.1300439E+00
        -11   -1    0    0    0    0  0.00000000000E+00  0.00000000000E+00  0.45593999997E+02  0.45594000000E+02  0.51100000000E-03 0. -1.
         11   -1    0    0    0    0 -0.00000000000E+00 -0.00000000000E+00 -0.45593999997E+02  0.45594000000E+02  0.51100000000E-03 0.  1.
    9900012    2    1    2    0    0  0.33664066449E+02  0.95133727579E+01  0.20721838387E+02  0.50528828621E+02  0.29999905076E+02 0.  0.
        -12    1    1    2    0    0 -0.33664066449E+02 -0.95133727579E+01 -0.20721838387E+02  0.40659171379E+02  0.00000000000E+00 0.  1.
         11    1    3    3    0    0  0.61221517992E+01  0.17709969997E+01 -0.22789719902E+01  0.67683740011E+01  0.51100000000E-03 0. -1.
        -11    1    3    3    0    0  0.16581406655E+02  0.16351103084E+02  0.14088356057E+02  0.27217336302E+02  0.51100000000E-03 0.  1.
         12    1    3    3    0    0  0.10960507995E+02 -0.86087273257E+01  0.89124543197E+01  0.16543118318E+02  0.00000000000E+00 0. -1.
</event>
<event>
 7    1  0.2817603E-011  0.5052886E+02  0.7816164E-02  0.1300439E+00
        -11   -1    0    0    0    0  0.00000000000E+00  0.00000000000E+00  0.45593999997E+02  0.45594000000E+02  0.51100000000E-03 0.  1.
         11   -1    0    0    0    0 -0.00000000000E+00 -0.00000000000E+00 -0.45593999997E+02  0.45594000000E+02  0.51100000000E-03 0. -1.
    9900012    2    1    2    0    0  0.22172829910E+01 -0.20773825465E+02 -0.34881187591E+02  0.50528863068E+02  0.30000009782E+02 0.  0.
        -12    1    1    2    0    0 -0.22172829910E+01  0.20773825465E+02  0.34881187591E+02  0.40659136932E+02  0.00000000000E+00 0.  1.
         11    1    3    3    0    0  0.64838927845E+01 -0.15905675264E+02 -0.54293288936E+01  0.18014132889E+02  0.51100000000E-03 0. -1.
        -11    1    3    3    0    0 -0.22152175393E+01 -0.89065167716E+01 -0.18137134507E+02  0.20327047944E+02  0.51100000000E-03 0.  1.
        -12    1    3    3    0    0 -0.20513922543E+01  0.40383665715E+01 -0.11314724190E+02  0.12187682235E+02  0.00000000000E+00 0.  1.
</event>
<event>
 7    1  0.2817603E-011  0.5052887E+02  0.7816164E-02  0.1300439E+00
        -11   -1    0    0    0    0  0.00000000000E+00  0.00000000000E+00  0.45593999997E+02  0.45594000000E+02  0.51100000000E-03 0.  1.
         11   -1    0    0    0    0 -0.00000000000E+00 -0.00000000000E+00 -0.45593999997E+02  0.45594000000E+02  0.51100000000E-03 0. -1.
    9900012    2    1    2    0    0 -0.40524450376E+02 -0.29343787281E+01 -0.15241724883E+01  0.50528871153E+02  0.30000034358E+02 0.  0.
        -12    1    1    2    0    0  0.40524450376E+02  0.29343787281E+01  0.15241724883E+01  0.40659128847E+02  0.00000000000E+00 0.  1.
         11    1    3    3    0    0 -0.23443339367E+02 -0.37646553093E+01  0.23310946377E+01  0.23857845518E+02  0.51100000000E-03 0. -1.
        -11    1    3    3    0    0 -0.11009907357E+01 -0.76407881145E+01  0.13798817618E+01  0.78420595221E+01  0.51100000000E-03 0.  1.
        -12    1    3    3    0    0 -0.15980120273E+02  0.84710646957E+01 -0.52351488879E+01  0.18828966113E+02  0.00000000000E+00 0.  1.
</event>
<event>
 7    1  0.2817603E-011  0.5052886E+02  0.7816164E-02  0.1300439E+00
        -11   -1    0    0    0    0  0.00000000000E+00  0.00000000000E+00  0.45593999997E+02  0.45594000000E+02  0.51100000000E-03 0.  1.
         11   -1    0    0    0    0 -0.00000000000E+00 -0.00000000000E+00 -0.45593999997E+02  0.45594000000E+02  0.51100000000E-03 0. -1.
    9900012    2    1    2    0    0 -0.33871312134E+02  0.20462144082E+02 -0.93381362654E+01  0.50528856932E+02  0.29999991129E+02 0.  0.
        -12    1    1    2    0    0  0.33871312134E+02 -0.20462144082E+02  0.93381362654E+01  0.40659143068E+02  0.00000000000E+00 0.  1.
         11    1    3    3    0    0 -0.12031090821E+02 -0.37556626379E+01 -0.41025134017E+01  0.13254537512E+02  0.51100000000E-03 0. -1.
        -11    1    3    3    0    0 -0.66152159459E+01 -0.22007231758E+00  0.30865610273E+01  0.73031755472E+01  0.51100000000E-03 0.  1.
         12    1    3    3    0    0 -0.15225005368E+02  0.24437879038E+02 -0.83221838910E+01  0.29971143872E+02  0.00000000000E+00 0. -1.
</event>
<event>
 7    1  0.2817603E-011  0.5052887E+02  0.7816164E-02  0.1300439E+00
        -11   -1    0    0    0    0  0.00000000000E+00  0.00000000000E+00  0.45593999997E+02  0.45594000000E+02  0.51100000000E-03 0. -1.
         11   -1    0    0    0    0 -0.00000000000E+00 -0.00000000000E+00 -0.45593999997E+02  0.45594000000E+02  0.51100000000E-03 0.  1.
    9900012    2    1    2    0    0  0.46003791663E+00  0.78962570410E+01  0.39882360209E+02  0.50528866143E+02  0.30000019128E+02 0.  0.
        -12    1    1    2    0    0 -0.46003791663E+00 -0.78962570410E+01 -0.39882360209E+02  0.40659133857E+02  0.00000000000E+00 0.  1.
         11    1    3    3    0    0 -0.28955925633E+01 -0.17972840321E+01 -0.10743854785E+01  0.35733724410E+01  0.51100000000E-03 0. -1.
        -11    1    3    3    0    0  0.16339435390E+01 -0.64852638922E+01  0.11435768717E+02  0.13247838527E+02  0.51100000000E-03 0.  1.
         12    1    3    3    0    0  0.17216869410E+01  0.16178804965E+02  0.29520976971E+02  0.33707655174E+02  0.00000000000E+00 0. -1.
</event>
<event>
 7    1  0.2817603E-011  0.5052886E+02  0.7816164E-02  0.1300439E+00
        -11   -1    0    0    0    0  0.00000000000E+00  0.00000000000E+00  0.45593999997E+02  0.45594000000E+02  0.51100000000E-03 0.  1.
         11   -1    0    0    0    0 -0.00000000000E+00 -0.00000000000E+00 -0.45593999997E+02  0.45594000000E+02  0.51100000000E-03 0. -1.
    9900012    2    1    2    0    0  0.20915606757E+02 -0.12824134400E+02 -0.32422907720E+02  0.50528856205E+02  0.29999988920E+02 0.  0.
        -12    1    1    2    0    0 -0.20915606757E+02  0.12824134400E+02  0.32422907720E+02  0.40659143795E+02  0.00000000000E+00 0.  1.
         11    1    3    3    0    0 -0.38782935084E+01 -0.36677805162E+01 -0.87084413564E+01  0.10214241312E+02  0.51100000000E-03 0. -1.
        -11    1    3    3    0    0  0.84245284837E+01  0.50571175969E+01 -0.28608378032E+01  0.10233841496E+02  0.51100000000E-03 0.  1.
         12    1    3    3    0    0  0.16369371782E+02 -0.14213471481E+02 -0.20853628561E+02  0.30080773398E+02  0.00000000000E+00 0. -1.
</event>
<event>
 7    1  0.2817603E-011  0.5052886E+02  0.7816164E-02  0.1300439E+00
        -11   -1    0    0    0    0  0.00000000000E+00  0.00000000000E+00  0.45593999997E+02  0.45594000000E+02  0.51100000000E-03 0. -1.
         11   -1    0    0    0    0 -0.00000000000E+00 -0.00000000000E+00 -0.45593999997E+02  0.45594000000E+02  0.51100000000E-03 0.  1.
    9900012    2    1    2    0    0 -0.29290153745E+02 -0.18169031901E+02  0.21567070576E+02  0.50528863760E+02  0.30000011884E+02 0.  0.
        -12    1    1    2    0    0  0.29290153745E+02  0.18169031901E+02 -0.21567070576E+02  0.40659136240E+02  0.00000000000E+00 0.  1.
         11    1    3    3    0    0 -0.39571207403E+01  0.38789843659E+01  0.88530904190E+01  0.10444258446E+02  0.51100000000E-03 0. -1.
        -11    1    3    3    0    0 -0.71903619950E+01  0.43338227097E+00  0.80827521202E+01  0.10826818919E+02  0.51100000000E-03 0.  1.
        -12    1    3    3    0    0 -0.18142671009E+02 -0.22481398537E+02  0.46312280369E+01  0.29257786394E+02  0.00000000000E+00 0.  1.
</event>
<event>
 7    1  0.2817603E-011  0.5052886E+02  0.7816164E-02  0.1300439E+00
        -11   -1    0    0    0    0  0.00000000000E+00  0.00000000000E+00  0.45593999997E+02  0.45594000000E+02  0.51100000000E-03 0. -1.
         11   -1    0    0    0    0 -0.00000000000E+00 -0.00000000000E+00 -0.45593999997E+02  0.45594000000E+02  0.51100000000E-03 0.  1.
    9900012    2    1    2    0    0  0.29933678142E+02 -0.20456488423E+02  0.18403060095E+02  0.50528860480E+02  0.30000001914E+02 0.  0.
        -12    1    1    2    0    0 -0.29933678142E+02  0.20456488423E+02 -0.18403060095E+02  0.40659139520E+02  0.00000000000E+00 0.  1.
         11    1    3    3    0    0  0.90526828688E+01 -0.93421423063E+01  0.13507614080E+01  0.13078656148E+02  0.51100000000E-03 0. -1.
        -11    1    3    3    0    0  0.17858412891E+02 -0.17865962846E+02  0.16187487178E+02  0.30002504575E+02  0.51100000000E-03 0.  1.
        -12    1    3    3    0    0  0.30225823817E+01  0.67516167292E+01  0.86481150900E+00  0.74476997562E+01  0.00000000000E+00 0.  1.
</event>
<event>
 7    1  0.2817603E-011  0.5052887E+02  0.7816164E-02  0.1300439E+00
        -11   -1    0    0    0    0  0.00000000000E+00  0.00000000000E+00  0.45593999997E+02  0.45594000000E+02  0.51100000000E-03 0.  1.
         11   -1    0    0    0    0 -0.00000000000E+00 -0.00000000000E+00 -0.45593999997E+02  0.45594000000E+02  0.51100000000E-03 0. -1.
    9900012    2    1    2    0    0 -0.21995624372E+02  0.31208052871E+01 -0.34053162216E+02  0.50528870963E+02  0.30000033780E+02 0.  0.
        -12    1    1    2    0    0  0.21995624372E+02 -0.31208052871E+01  0.34053162216E+02  0.40659129037E+02  0.00000000000E+00 0.  1.
         11    1    3    3    0    0 -0.11816876110E+02  0.90480301103E+01 -0.21470140115E+02  0.26124171311E+02  0.51100000000E-03 0. -1.
        -11    1    3    3    0    0 -0.58238391315E+01 -0.16267448786E+00 -0.15541609640E+02  0.16597746705E+02  0.51100000000E-03 0.  1.
        -12    1    3    3    0    0 -0.43549091299E+01 -0.57645503353E+01  0.29585875391E+01  0.78069529475E+01  0.00000000000E+00 0.  1.
</event>
<event>
 7    1  0.2817603E-011  0.5052887E+02  0.7816164E-02  0.1300439E+00
        -11   -1    0    0    0    0  0.00000000000E+00  0.00000000000E+00  0.45593999997E+02  0.45594000000E+02  0.51100000000E-03 0.  1.
         11   -1    0    0    0    0 -0.00000000000E+00 -0.00000000000E+00 -0.45593999997E+02  0.45594000000E+02  0.51100000000E-03 0. -1.
    9900012    2    1    2    0    0 -0.20280635870E+02  0.10802696831E+01 -0.35223476711E+02  0.50528874512E+02  0.30000044565E+02 0.  0.
        -12    1    1    2    0    0  0.20280635870E+02 -0.10802696831E+01  0.35223476711E+02  0.40659125488E+02  0.00000000000E+00 0.  1.
         11    1    3    3    0    0 -0.15669581438E+02 -0.44764191603E+01 -0.14083042420E+02  0.21538481725E+02  0.51100000000E-03 0. -1.
        -11    1    3    3    0    0 -0.11497662539E+02  0.27267063698E+01 -0.16212682360E+02  0.20061960050E+02  0.51100000000E-03 0.  1.
        -12    1    3    3    0    0  0.68866081079E+01  0.28299824736E+01 -0.49277519309E+01  0.89284327362E+01  0.00000000000E+00 0.  1.
</event>
<event>
 7    1  0.2817603E-011  0.5052886E+02  0.7816164E-02  0.1300439E+00
        -11   -1    0    0    0    0  0.00000000000E+00  0.00000000000E+00  0.45593999997E+02  0.45594000000E+02  0.51100000000E-03 0.  1.
         11   -1    0    0    0    0 -0.00000000000E+00 -0.00000000000E+00 -0.45593999997E+02  0.45594000000E+02  0.51100000000E-03 0. -1.
    9900012    2    1    2    0    0  0.32427150969E+01 -0.17663882816E+02 -0.36477909389E+02  0.50528857968E+02  0.29999994280E+02 0.  0.
        -12    1    1    2    0    0 -0.32427150969E+01  0.17663882816E+02  0.36477909389E+02  0.40659142032E+02  0.00000000000E+00 0.  1.
         11    1    3    3    0    0 -0.72984834102E+01 -0.13521196509E+02 -0.52251866360E+01  0.16229392804E+02  0.51100000000E-03 0. -1.
        -11    1    3    3    0    0  0.48906739416E+01  0.36274418301E+00 -0.47435659807E+01  0.68228801411E+01  0.51100000000E-03 0.  1.
        -12    1    3    3    0    0  0.56505245655E+01 -0.45054304902E+01 -0.26509156773E+02  0.27476585024E+02  0.00000000000E+00 0.  1.
</event>
<event>
 7    1  0.2817603E-011  0.5052886E+02  0.7816164E-02  0.1300439E+00
        -11   -1    0    0    0    0  0.00000000000E+00  0.00000000000E+00  0.45593999997E+02  0.45594000000E+02  0.51100000000E-03 0.  1.
         11   -1    0    0    0    0 -0.00000000000E+00 -0.00000000000E+00 -0.45593999997E+02  0.45594000000E+02  0.51100000000E-03 0. -1.
    9900012    2    1    2    0    0  0.63491023168E+01 -0.16571168380E+02 -0.36582109728E+02  0.50528862357E+02  0.30000007621E+02 0.  0.
        -12    1    1    2    0    0 -0.63491023168E+01  0.16571168380E+02  0.36582109728E+02  0.40659137643E+02  0.00000000000E+00 0.  1.
         11    1    3    3    0    0  0.26793684198E+01 -0.23811719516E+01  0.10795393472E+01  0.37435812340E+01  0.51100000000E-03 0. -1.
        -11    1    3    3    0    0 -0.51878674954E+01 -0.50554412738E+01 -0.22694707626E+00  0.72472726497E+01  0.51100000000E-03 0.  1.
        -12    1    3    3    0    0  0.88576013924E+01 -0.91345551543E+01 -0.37434701999E+02  0.39538008473E+02  0.00000000000E+00 0.  1.
</event>
<event>
 7    1  0.2817603E-011  0.5052886E+02  0.7816164E-02  0.1300439E+00
        -11   -1    0    0    0    0  0.00000000000E+00  0.00000000000E+00  0.45593999997E+02  0.45594000000E+02  0.51100000000E-03 0.  1.
         11   -1    0    0    0    0 -0.00000000000E+00 -0.00000000000E+00 -0.45593999997E+02  0.45594000000E+02  0.51100000000E-03 0. -1.
    9900012    2    1    2    0    0  0.47506196022E+01 -0.37383403669E+02 -0.15266912435E+02  0.50528857463E+02  0.29999992745E+02 0.  0.
        -12    1    1    2    0    0 -0.47506196022E+01  0.37383403669E+02  0.15266912435E+02  0.40659142537E+02  0.00000000000E+00 0.  1.
         11    1    3    3    0    0  0.50144650865E+01 -0.97704229201E+01 -0.19995991890E+01  0.11162635053E+02  0.51100000000E-03 0. -1.
        -11    1    3    3    0    0  0.43036553410E+01 -0.29268696961E+02 -0.16162545578E+02  0.33710620743E+02  0.51100000000E-03 0.  1.
        -12    1    3    3    0    0 -0.45675008253E+01  0.16557162118E+01  0.28952323315E+01  0.56556016671E+01  0.00000000000E+00 0.  1.
</event>
<event>
 7    1  0.2817603E-011  0.5052886E+02  0.7816164E-02  0.1300439E+00
        -11   -1    0    0    0    0  0.00000000000E+00  0.00000000000E+00  0.45593999997E+02  0.45594000000E+02  0.51100000000E-03 0.  1.
         11   -1    0    0    0    0 -0.00000000000E+00 -0.00000000000E+00 -0.45593999997E+02  0.45594000000E+02  0.51100000000E-03 0. -1.
    9900012    2    1    2    0    0 -0.29165265002E+02 -0.70628218403E+01 -0.27434828701E+02  0.50528856368E+02  0.29999989417E+02 0.  0.
        -12    1    1    2    0    0  0.29165265002E+02  0.70628218403E+01  0.27434828701E+02  0.40659143632E+02  0.00000000000E+00 0.  1.
         11    1    3    3    0    0 -0.13116234484E+02 -0.61517401939E+01  0.16454174707E+01  0.14580360536E+02  0.51100000000E-03 0.  1.
        -11    1    3    3    0    0 -0.10510702545E+02 -0.60189460073E+01 -0.11001315007E+02  0.16362503207E+02  0.51100000000E-03 0. -1.
         12    1    3    3    0    0 -0.55383279727E+01  0.51078643609E+01 -0.18078931165E+02  0.19585992625E+02  0.00000000000E+00 0. -1.
</event>
<event>
 7    1  0.2817603E-011  0.5052886E+02  0.7816164E-02  0.1300439E+00
        -11   -1    0    0    0    0  0.00000000000E+00  0.00000000000E+00  0.45593999997E+02  0.45594000000E+02  0.51100000000E-03 0.  1.
         11   -1    0    0    0    0 -0.00000000000E+00 -0.00000000000E+00 -0.45593999997E+02  0.45594000000E+02  0.51100000000E-03 0. -1.
    9900012    2    1    2    0    0  0.17924921981E+02 -0.33631873657E+02  0.14168964779E+02  0.50528864291E+02  0.30000013499E+02 0.  0.
        -12    1    1    2    0    0 -0.17924921981E+02  0.33631873657E+02 -0.14168964779E+02  0.40659135709E+02  0.00000000000E+00 0.  1.
         11    1    3    3    0    0  0.11589497642E+02 -0.63272154471E+01  0.61471689480E+01  0.14564950987E+02  0.51100000000E-03 0.  1.
        -11    1    3    3    0    0 -0.61666237913E+01 -0.18942656153E+02  0.32509826866E+01  0.20184656544E+02  0.51100000000E-03 0. -1.
         12    1    3    3    0    0  0.12502048130E+02 -0.83620020571E+01  0.47708131443E+01  0.15779256760E+02  0.00000000000E+00 0. -1.
</event>
<event>
 7    1  0.2817603E-011  0.5052886E+02  0.7816164E-02  0.1300439E+00
        -11   -1    0    0    0    0  0.00000000000E+00  0.00000000000E+00  0.45593999997E+02  0.45594000000E+02  0.51100000000E-03 0.  1.
         11   -1    0    0    0    0 -0.00000000000E+00 -0.00000000000E+00 -0.45593999997E+02  0.45594000000E+02  0.51100000000E-03 0. -1.
    9900012    2    1    2    0    0  0.81627124790E+01  0.90291974563E+01 -0.38794452904E+02  0.50528857636E+02  0.29999993269E+02 0.  0.
        -12    1    1    2    0    0 -0.81627124790E+01 -0.90291974563E+01  0.38794452904E+02  0.40659142364E+02  0.00000000000E+00 0.  1.
         11    1    3    3    0    0  0.83853666093E+01 -0.32321397180E+01 -0.42410591080E+01  0.99371868730E+01  0.51100000000E-03 0. -1.
        -11    1    3    3    0    0 -0.14022944733E+01 -0.81873118691E+00 -0.23125907249E+02  0.23182845746E+02  0.51100000000E-03 0.  1.
        -12    1    3    3    0    0  0.11796403429E+01  0.13080068361E+02 -0.11427486547E+02  0.17408825016E+02  0.00000000000E+00 0.  1.
</event>
<event>
 7    1  0.2817603E-011  0.5052886E+02  0.7816164E-02  0.1300439E+00
        -11   -1    0    0    0    0  0.00000000000E+00  0.00000000000E+00  0.45593999997E+02  0.45594000000E+02  0.51100000000E-03 0.  1.
         11   -1    0    0    0    0 -0.00000000000E+00 -0.00000000000E+00 -0.45593999997E+02  0.45594000000E+02  0.51100000000E-03 0. -1.
    9900012    2    1    2    0    0  0.28013265168E+02  0.29411982252E+02  0.18324285400E+01  0.50528861793E+02  0.30000005905E+02 0.  0.
        -12    1    1    2    0    0 -0.28013265168E+02 -0.29411982252E+02 -0.18324285400E+01  0.40659138207E+02  0.00000000000E+00 0.  1.
         11    1    3    3    0    0  0.10734838829E+02  0.15761525769E+02 -0.94322879369E+01  0.21275114929E+02  0.51100000000E-03 0. -1.
        -11    1    3    3    0    0  0.39321819745E+01  0.10063494699E+02 -0.90104523683E+00  0.10841949245E+02  0.51100000000E-03 0.  1.
         12    1    3    3    0    0  0.13346244364E+02  0.35869617836E+01  0.12165761714E+02  0.18411797619E+02  0.00000000000E+00 0. -1.
</event>
<event>
 7    1  0.2817603E-011  0.5052886E+02  0.7816164E-02  0.1300439E+00
        -11   -1    0    0    0    0  0.00000000000E+00  0.00000000000E+00  0.45593999997E+02  0.45594000000E+02  0.51100000000E-03 0.  1.
         11   -1    0    0    0    0 -0.00000000000E+00 -0.00000000000E+00 -0.45593999997E+02  0.45594000000E+02  0.51100000000E-03 0. -1.
    9900012    2    1    2    0    0  0.39856308247E+01 -0.23974895564E+02 -0.32595782521E+02  0.50528857012E+02  0.29999991373E+02 0.  0.
        -12    1    1    2    0    0 -0.39856308247E+01  0.23974895564E+02  0.32595782521E+02  0.40659142988E+02  0.00000000000E+00 0.  1.
         11    1    3    3    0    0  0.52274299916E+01 -0.22897663492E+02 -0.14922077961E+02  0.27826200399E+02  0.51100000000E-03 0. -1.
        -11    1    3    3    0    0  0.10143011346E+01 -0.91397069229E+00  0.22603319754E+01  0.26406912197E+01  0.51100000000E-03 0.  1.
         12    1    3    3    0    0 -0.22561003014E+01 -0.16326137983E+00 -0.19934036535E+02  0.20061965393E+02  0.00000000000E+00 0. -1.
</event>
<event>
 7    1  0.2817603E-011  0.5052886E+02  0.7816164E-02  0.1300439E+00
        -11   -1    0    0    0    0  0.00000000000E+00  0.00000000000E+00  0.45593999997E+02  0.45594000000E+02  0.51100000000E-03 0.  1.
         11   -1    0    0    0    0 -0.00000000000E+00 -0.00000000000E+00 -0.45593999997E+02  0.45594000000E+02  0.51100000000E-03 0. -1.
    9900012    2    1    2    0    0 -0.33117418332E+01  0.37108452682E+02 -0.16283769645E+02  0.50528855293E+02  0.29999986150E+02 0.  0.
        -12    1    1    2    0    0  0.33117418332E+01 -0.37108452682E+02  0.16283769645E+02  0.40659144707E+02  0.00000000000E+00 0.  1.
         11    1    3    3    0    0 -0.89790384080E+01  0.81781070102E+01 -0.18191265920E+01  0.12280626483E+02  0.51100000000E-03 0. -1.
        -11    1    3    3    0    0 -0.70921461411E+01  0.10174755158E+02 -0.26934166784E+01  0.12691677315E+02  0.51100000000E-03 0.  1.
        -12    1    3    3    0    0  0.12759442716E+02  0.18755590514E+02 -0.11771226375E+02  0.25556551495E+02  0.00000000000E+00 0.  1.
</event>
<event>
 7    1  0.2817603E-011  0.5052885E+02  0.7816164E-02  0.1300439E+00
        -11   -1    0    0    0    0  0.00000000000E+00  0.00000000000E+00  0.45593999997E+02  0.45594000000E+02  0.51100000000E-03 0. -1.
         11   -1    0    0    0    0 -0.00000000000E+00 -0.00000000000E+00 -0.45593999997E+02  0.45594000000E+02  0.51100000000E-03 0.  1.
    9900012    2    1    2    0    0  0.24465431097E+02 -0.30825505759E+02  0.10217484444E+02  0.50528854504E+02  0.29999983751E+02 0.  0.
        -12    1    1    2    0    0 -0.24465431097E+02  0.30825505759E+02 -0.10217484444E+02  0.40659145496E+02  0.00000000000E+00 0.  1.
         11    1    3    3    0    0  0.10002709655E+02 -0.32722409038E+01  0.84351608083E+01  0.13487538660E+02  0.51100000000E-03 0. -1.
        -11    1    3    3    0    0  0.74545670311E+01 -0.89073312769E+01  0.10160129859E+02  0.15431764614E+02  0.51100000000E-03 0.  1.
         12    1    3    3    0    0  0.70081544112E+01 -0.18645933578E+02 -0.83778062228E+01  0.21609551230E+02  0.00000000000E+00 0. -1.
</event>
<event>
 7    1  0.2817603E-011  0.5052886E+02  0.7816164E-02  0.1300439E+00
        -11   -1    0    0    0    0  0.00000000000E+00  0.00000000000E+00  0.45593999997E+02  0.45594000000E+02  0.51100000000E-03 0.  1.
         11   -1    0    0    0    0 -0.00000000000E+00 -0.00000000000E+00 -0.45593999997E+02  0.45594000000E+02  0.51100000000E-03 0. -1.
    9900012    2    1    2    0    0 -0.16864295580E+02  0.36601988574E+02 -0.53903052803E+01  0.50528862970E+02  0.30000009484E+02 0.  0.
        -12    1    1    2    0    0  0.16864295580E+02 -0.36601988574E+02  0.53903052803E+01  0.40659137030E+02  0.00000000000E+00 0.  1.
         11    1    3    3    0    0 -0.70243009870E+01  0.22498421996E+02 -0.21328828234E+01  0.23665776684E+02  0.51100000000E-03 0. -1.
        -11    1    3    3    0    0 -0.10028511555E+01  0.84696438586E+01 -0.10937708017E+02  0.13869896700E+02  0.51100000000E-03 0.  1.
         12    1    3    3    0    0 -0.88371434377E+01  0.56339227200E+01  0.76802855600E+01  0.12993189587E+02  0.00000000000E+00 0. -1.
</event>
<event>
 7    1  0.2817603E-011  0.5052889E+02  0.7816164E-02  0.1300439E+00
        -11   -1    0    0    0    0  0.00000000000E+00  0.00000000000E+00  0.45593999997E+02  0.45594000000E+02  0.51100000000E-03 0.  1.
         11   -1    0    0    0    0 -0.00000000000E+00 -0.00000000000E+00 -0.45593999997E+02  0.45594000000E+02  0.51100000000E-03 0. -1.
    9900012    2    1    2    0    0  0.13424246007E+02  0.26131567680E+02 -0.28108615869E+02  0.50528886675E+02  0.30000081538E+02 0.  0.
        -12    1    1    2    0    0 -0.13424246007E+02 -0.26131567680E+02  0.28108615869E+02  0.40659113325E+02  0.00000000000E+00 0.  1.
         11    1    3    3    0    0  0.74098551298E+01  0.68877632670E+01  0.76788717799E+00  0.10145781727E+02  0.51100000000E-03 0. -1.
        -11    1    3    3    0    0  0.12257407444E+02  0.82742290329E+01 -0.10698150124E+02  0.18252597615E+02  0.51100000000E-03 0.  1.
         12    1    3    3    0    0 -0.62430165666E+01  0.10969575380E+02 -0.18178352923E+02  0.22130507334E+02  0.00000000000E+00 0. -1.
</event>
<event>
 7    1  0.2817603E-011  0.5052886E+02  0.7816164E-02  0.1300439E+00
        -11   -1    0    0    0    0  0.00000000000E+00  0.00000000000E+00  0.45593999997E+02  0.45594000000E+02  0.51100000000E-03 0.  1.
         11   -1    0    0    0    0 -0.00000000000E+00 -0.00000000000E+00 -0.45593999997E+02  0.45594000000E+02  0.51100000000E-03 0. -1.
    9900012    2    1    2    0    0 -0.94615166735E+01 -0.39062593515E+02 -0.61448618627E+01  0.50528857889E+02  0.29999994040E+02 0.  0.
        -12    1    1    2    0    0  0.94615166735E+01  0.39062593515E+02  0.61448618627E+01  0.40659142111E+02  0.00000000000E+00 0.  1.
         11    1    3    3    0    0 -0.66642453946E+01 -0.18339956607E+01 -0.27038416105E+01  0.74220257666E+01  0.51100000000E-03 0. -1.
        -11    1    3    3    0    0  0.35198880926E+01 -0.64962049748E+01  0.68620087540E+01  0.10083523970E+02  0.51100000000E-03 0.  1.
        -12    1    3    3    0    0 -0.63171593715E+01 -0.30732392879E+02 -0.10303029006E+02  0.33023308152E+02  0.00000000000E+00 0.  1.
</event>
<event>
 7    1  0.2817603E-011  0.5052886E+02  0.7816164E-02  0.1300439E+00
        -11   -1    0    0    0    0  0.00000000000E+00  0.00000000000E+00  0.45593999997E+02  0.45594000000E+02  0.51100000000E-03 0. -1.
         11   -1    0    0    0    0 -0.00000000000E+00 -0.00000000000E+00 -0.45593999997E+02  0.45594000000E+02  0.51100000000E-03 0.  1.
    9900012    2    1    2    0    0 -0.32537298749E+01 -0.37902995324E+02  0.14350684203E+02  0.50528856505E+02  0.29999989833E+02 0.  0.
        -12    1    1    2    0    0  0.32537298749E+01  0.37902995324E+02 -0.14350684203E+02  0.40659143495E+02  0.00000000000E+00 0.  1.
         11    1    3    3    0    0 -0.68226291076E+01 -0.26885265397E+02  0.77221408773E+01  0.28792311880E+02  0.51100000000E-03 0. -1.
        -11    1    3    3    0    0 -0.16127916322E+01 -0.52623160908E+01 -0.52173657958E+01  0.75837967798E+01  0.51100000000E-03 0.  1.
         12    1    3    3    0    0  0.51816908649E+01 -0.57554138360E+01  0.11845909122E+02  0.14152747845E+02  0.00000000000E+00 0. -1.
</event>
<event>
 7    1  0.2817603E-011  0.5052886E+02  0.7816164E-02  0.1300439E+00
        -11   -1    0    0    0    0  0.00000000000E+00  0.00000000000E+00  0.45593999997E+02  0.45594000000E+02  0.51100000000E-03 0.  1.
         11   -1    0    0    0    0 -0.00000000000E+00 -0.00000000000E+00 -0.45593999997E+02  0.45594000000E+02  0.51100000000E-03 0. -1.
    9900012    2    1    2    0    0 -0.35507977887E+02 -0.68089962326E+01 -0.18600716327E+02  0.50528861160E+02  0.30000003982E+02 0.  0.
        -12    1    1    2    0    0  0.35507977887E+02  0.68089962326E+01  0.18600716327E+02  0.40659138840E+02  0.00000000000E+00 0.  1.
         11    1    3    3    0    0 -0.14619157169E+02 -0.57589716908E+01 -0.43139150273E+01  0.16294028795E+02  0.51100000000E-03 0.  1.
        -11    1    3    3    0    0 -0.22608512009E+02 -0.58284384292E+01 -0.16606981731E+02  0.28651480804E+02  0.51100000000E-03 0. -1.
         12    1    3    3    0    0  0.17196912907E+01  0.47784138874E+01  0.23201804316E+01  0.55833515606E+01  0.00000000000E+00 0. -1.
</event>
<event>
 7    1  0.2817603E-011  0.5052885E+02  0.7816164E-02  0.1300439E+00
        -11   -1    0    0    0    0  0.00000000000E+00  0.00000000000E+00  0.45593999997E+02  0.45594000000E+02  0.51100000000E-03 0. -1.
         11   -1    0    0    0    0 -0.00000000000E+00 -0.00000000000E+00 -0.45593999997E+02  0.45594000000E+02  0.51100000000E-03 0.  1.
    9900012    2    1    2    0    0 -0.23749665577E+02 -0.20832842521E+02  0.25595167376E+02  0.50528849302E+02  0.29999967937E+02 0.  0.
        -12    1    1    2    0    0  0.23749665577E+02  0.20832842521E+02 -0.25595167376E+02  0.40659150698E+02  0.00000000000E+00 0.  1.
         11    1    3    3    0    0 -0.51944398029E+01 -0.35584181360E+01  0.11979914268E+02  0.13533768530E+02  0.51100000000E-03 0. -1.
        -11    1    3    3    0    0  0.34456486523E+01 -0.10329368745E+01  0.84246228980E+01  0.91604434639E+01  0.51100000000E-03 0.  1.
         12    1    3    3    0    0 -0.22000874426E+02 -0.16241487510E+02  0.51906302099E+01  0.27834637308E+02  0.00000000000E+00 0. -1.
</event>
<event>
 7    1  0.2817603E-011  0.5052886E+02  0.7816164E-02  0.1300439E+00
        -11   -1    0    0    0    0  0.00000000000E+00  0.00000000000E+00  0.45593999997E+02  0.45594000000E+02  0.51100000000E-03 0.  1.
         11   -1    0    0    0    0 -0.00000000000E+00 -0.00000000000E+00 -0.45593999997E+02  0.45594000000E+02  0.51100000000E-03 0. -1.
    9900012    2    1    2    0    0 -0.21990275146E+02 -0.29128123491E+01 -0.34075048746E+02  0.50528860513E+02  0.30000002016E+02 0.  0.
        -12    1    1    2    0    0  0.21990275146E+02  0.29128123491E+01  0.34075048746E+02  0.40659139487E+02  0.00000000000E+00 0.  1.
         11    1    3    3    0    0 -0.17299391422E+01 -0.34175103955E+01 -0.24765474343E+02  0.25059943864E+02  0.51100000000E-03 0.  1.
        -11    1    3    3    0    0  0.16767933417E+01 -0.41247484292E+00 -0.39162928621E+00  0.17706341140E+01  0.51100000000E-03 0. -1.
         12    1    3    3    0    0 -0.21937129346E+02  0.91717288926E+00 -0.89179451162E+01  0.23698282535E+02  0.00000000000E+00 0. -1.
</event>
<event>
 7    1  0.2817603E-011  0.5052886E+02  0.7816164E-02  0.1300439E+00
        -11   -1    0    0    0    0  0.00000000000E+00  0.00000000000E+00  0.45593999997E+02  0.45594000000E+02  0.51100000000E-03 0.  1.
         11   -1    0    0    0    0 -0.00000000000E+00 -0.00000000000E+00 -0.45593999997E+02  0.45594000000E+02  0.51100000000E-03 0. -1.
    9900012    2    1    2    0    0 -0.76135651264E+01 -0.22364329474E+02 -0.33091335153E+02  0.50528855039E+02  0.29999985376E+02 0.  0.
        -12    1    1    2    0    0  0.76135651264E+01  0.22364329474E+02  0.33091335153E+02  0.40659144961E+02  0.00000000000E+00 0.  1.
         11    1    3    3    0    0  0.22440486852E+01 -0.72548383979E+01 -0.20586131434E+02  0.21942133952E+02  0.51100000000E-03 0. -1.
        -11    1    3    3    0    0  0.17050394889E+01  0.16381792148E+01  0.23936728536E+01  0.33645892453E+01  0.51100000000E-03 0.  1.
         12    1    3    3    0    0 -0.11562653301E+02 -0.16747670291E+02 -0.14898876573E+02  0.25222131842E+02  0.00000000000E+00 0. -1.
</event>
<event>
 7    1  0.2817603E-011  0.5052887E+02  0.7816164E-02  0.1300439E+00
        -11   -1    0    0    0    0  0.00000000000E+00  0.00000000000E+00  0.45593999997E+02  0.45594000000E+02  0.51100000000E-03 0.  1.
         11   -1    0    0    0    0 -0.00000000000E+00 -0.00000000000E+00 -0.45593999997E+02  0.45594000000E+02  0.51100000000E-03 0. -1.
    9900012    2    1    2    0    0  0.20877022249E+02  0.32724097420E+02 -0.12101578129E+02  0.50528870605E+02  0.30000032691E+02 0.  0.
        -12    1    1    2    0    0 -0.20877022249E+02 -0.32724097420E+02  0.12101578129E+02  0.40659129395E+02  0.00000000000E+00 0.  1.
         11    1    3    3    0    0  0.45859599929E+01  0.24235713048E+02 -0.83544958349E+01  0.26042242932E+02  0.51100000000E-03 0. -1.
        -11    1    3    3    0    0  0.40995857629E+01  0.94165045510E+01  0.27621271253E+01  0.10635154343E+02  0.51100000000E-03 0.  1.
        -12    1    3    3    0    0  0.12191476493E+02 -0.92812017907E+00 -0.65092094194E+01  0.13851473330E+02  0.00000000000E+00 0.  1.
</event>
<event>
 7    1  0.2817603E-011  0.5052899E+02  0.7816164E-02  0.1300438E+00
        -11   -1    0    0    0    0  0.00000000000E+00  0.00000000000E+00  0.45593999997E+02  0.45594000000E+02  0.51100000000E-03 0.  1.
         11   -1    0    0    0    0 -0.00000000000E+00 -0.00000000000E+00 -0.45593999997E+02  0.45594000000E+02  0.51100000000E-03 0. -1.
    9900012    2    1    2    0    0 -0.36918701130E+02 -0.15616694694E+02  0.68032212659E+01  0.50528985429E+02  0.30000381708E+02 0.  0.
        -12    1    1    2    0    0  0.36918701130E+02  0.15616694694E+02 -0.68032212659E+01  0.40659014571E+02  0.00000000000E+00 0.  1.
         11    1    3    3    0    0 -0.16993129550E+02 -0.10596783190E+02  0.38435660781E+01  0.20391941211E+02  0.51100000000E-03 0. -1.
        -11    1    3    3    0    0 -0.64377933116E+01 -0.10290833746E+02  0.82973853417E+01  0.14703504537E+02  0.51100000000E-03 0.  1.
        -12    1    3    3    0    0 -0.13487778268E+02  0.52709222420E+01 -0.53377301540E+01  0.15433539681E+02  0.00000000000E+00 0.  1.
</event>
<event>
 7    1  0.2817603E-011  0.5052886E+02  0.7816164E-02  0.1300439E+00
        -11   -1    0    0    0    0  0.00000000000E+00  0.00000000000E+00  0.45593999997E+02  0.45594000000E+02  0.51100000000E-03 0.  1.
         11   -1    0    0    0    0 -0.00000000000E+00 -0.00000000000E+00 -0.45593999997E+02  0.45594000000E+02  0.51100000000E-03 0. -1.
    9900012    2    1    2    0    0  0.23107520456E+02 -0.14130173167E+02 -0.30324027746E+02  0.50528856452E+02  0.29999989670E+02 0.  0.
        -12    1    1    2    0    0 -0.23107520456E+02  0.14130173167E+02  0.30324027746E+02  0.40659143548E+02  0.00000000000E+00 0.  1.
         11    1    3    3    0    0  0.61094173083E+01 -0.61924791054E+00 -0.20860221120E+02  0.21745281632E+02  0.51100000000E-03 0. -1.
        -11    1    3    3    0    0  0.12749179022E+02  0.27293079179E+00 -0.41079484924E+01  0.13397436248E+02  0.51100000000E-03 0.  1.
         12    1    3    3    0    0  0.42489241261E+01 -0.13783856048E+02 -0.53558581331E+01  0.15386138571E+02  0.00000000000E+00 0. -1.
</event>
<event>
 7    1  0.2817603E-011  0.5052886E+02  0.7816164E-02  0.1300439E+00
        -11   -1    0    0    0    0  0.00000000000E+00  0.00000000000E+00  0.45593999997E+02  0.45594000000E+02  0.51100000000E-03 0.  1.
         11   -1    0    0    0    0 -0.00000000000E+00 -0.00000000000E+00 -0.45593999997E+02  0.45594000000E+02  0.51100000000E-03 0. -1.
    9900012    2    1    2    0    0 -0.81720106199E+01  0.26206086953E+02 -0.29993744006E+02  0.50528862891E+02  0.30000009244E+02 0.  0.
        -12    1    1    2    0    0  0.81720106199E+01 -0.26206086953E+02  0.29993744006E+02  0.40659137109E+02  0.00000000000E+00 0.  1.
         11    1    3    3    0    0 -0.69216683788E+01  0.14203095651E+02 -0.70455695086E+01  0.17299637834E+02  0.51100000000E-03 0. -1.
        -11    1    3    3    0    0 -0.71827549725E+01  0.23380879944E+01  0.86633529672E-01  0.75542127382E+01  0.51100000000E-03 0.  1.
         12    1    3    3    0    0  0.59324127315E+01  0.96649033071E+01 -0.23034808027E+02  0.25675012319E+02  0.00000000000E+00 0. -1.
</event>
<event>
 7    1  0.2817603E-011  0.5052885E+02  0.7816164E-02  0.1300439E+00
        -11   -1    0    0    0    0  0.00000000000E+00  0.00000000000E+00  0.45593999997E+02  0.45594000000E+02  0.51100000000E-03 0.  1.
         11   -1    0    0    0    0 -0.00000000000E+00 -0.00000000000E+00 -0.45593999997E+02  0.45594000000E+02  0.51100000000E-03 0. -1.
    9900012    2    1    2    0    0  0.22246031914E+02 -0.23550623976E+02 -0.24569263351E+02  0.50528849405E+02  0.29999968250E+02 0.  0.
        -12    1    1    2    0    0 -0.22246031914E+02  0.23550623976E+02  0.24569263351E+02  0.40659150595E+02  0.00000000000E+00 0.  1.
         11    1    3    3    0    0  0.23636679937E+01 -0.68285472181E+00  0.28266711999E+01  0.37474374296E+01  0.51100000000E-03 0. -1.
        -11    1    3    3    0    0  0.93040030968E+01 -0.96488578462E+01  0.12963142384E+01  0.13466453216E+02  0.51100000000E-03 0.  1.
         12    1    3    3    0    0  0.10578360823E+02 -0.13218911407E+02 -0.28692248789E+02  0.33314958759E+02  0.00000000000E+00 0. -1.
</event>
<event>
 7    1  0.2817603E-011  0.5052886E+02  0.7816164E-02  0.1300439E+00
        -11   -1    0    0    0    0  0.00000000000E+00  0.00000000000E+00  0.45593999997E+02  0.45594000000E+02  0.51100000000E-03 0.  1.
         11   -1    0    0    0    0 -0.00000000000E+00 -0.00000000000E+00 -0.45593999997E+02  0.45594000000E+02  0.51100000000E-03 0. -1.
    9900012    2    1    2    0    0 -0.22495433091E+02  0.26420768727E+02 -0.21191140363E+02  0.50528856380E+02  0.29999989451E+02 0.  0.
        -12    1    1    2    0    0  0.22495433091E+02 -0.26420768727E+02  0.21191140363E+02  0.40659143620E+02  0.00000000000E+00 0.  1.
         11    1    3    3    0    0 -0.10422756963E+02  0.10567536737E+02 -0.87725631575E+00  0.14868633908E+02  0.51100000000E-03 0. -1.
        -11    1    3    3    0    0  0.18079504749E+01 -0.45905942633E+00  0.32930689114E+01  0.37846695487E+01  0.51100000000E-03 0.  1.
        -12    1    3    3    0    0 -0.13880626603E+02  0.16312291416E+02 -0.23606952959E+02  0.31875552923E+02  0.00000000000E+00 0.  1.
</event>
<event>
 7    1  0.2817603E-011  0.5052883E+02  0.7816164E-02  0.1300439E+00
        -11   -1    0    0    0    0  0.00000000000E+00  0.00000000000E+00  0.45593999997E+02  0.45594000000E+02  0.51100000000E-03 0. -1.
         11   -1    0    0    0    0 -0.00000000000E+00 -0.00000000000E+00 -0.45593999997E+02  0.45594000000E+02  0.51100000000E-03 0.  1.
    9900012    2    1    2    0    0 -0.80272506496E+01  0.39077657117E+02 -0.78528792411E+01  0.50528834353E+02  0.29999922498E+02 0.  0.
        -12    1    1    2    0    0  0.80272506496E+01 -0.39077657117E+02  0.78528792411E+01  0.40659165647E+02  0.00000000000E+00 0.  1.
         11    1    3    3    0    0  0.47589409365E+01  0.47498153674E+01 -0.55576765704E+01  0.87233040749E+01  0.51100000000E-03 0. -1.
        -11    1    3    3    0    0  0.16104297577E+01 -0.16190524880E+01 -0.20701302385E+01  0.30822482750E+01  0.51100000000E-03 0.  1.
        -12    1    3    3    0    0 -0.14396621344E+02  0.35946894238E+02 -0.22507243228E+00  0.38723282003E+02  0.00000000000E+00 0.  1.
</event>
<event>
 7    1  0.3054546E-011  0.5052886E+02  0.7816164E-02  0.1300439E+00
        -11   -1    0    0    0    0  0.00000000000E+00  0.00000000000E+00  0.45593999997E+02  0.45594000000E+02  0.51100000000E-03 0. -1.
         11   -1    0    0    0    0 -0.00000000000E+00 -0.00000000000E+00 -0.45593999997E+02  0.45594000000E+02  0.51100000000E-03 0.  1.
    9900012    2    1    2    0    0  0.26865577230E+01 -0.64477872808E+01  0.40054643762E+02  0.50528855394E+02  0.29999986456E+02 0.  0.
        -12    1    1    2    0    0 -0.26865577230E+01  0.64477872808E+01 -0.40054643762E+02  0.40659144606E+02  0.00000000000E+00 0.  1.
         11    1    3    3    0    0  0.68704534051E+01  0.18436211528E+01  0.32276160585E+02  0.33050758105E+02  0.51100000000E-03 0. -1.
        -11    1    3    3    0    0 -0.65491200763E+01 -0.38613636382E+01  0.95015260543E+01  0.12168816727E+02  0.51100000000E-03 0.  1.
        -12    1    3    3    0    0  0.23652243941E+01 -0.44300447954E+01 -0.17230428779E+01  0.53092805617E+01  0.00000000000E+00 0.  1.
</event>
<event>
 7    1  0.2817603E-011  0.5052886E+02  0.7816164E-02  0.1300439E+00
        -11   -1    0    0    0    0  0.00000000000E+00  0.00000000000E+00  0.45593999997E+02  0.45594000000E+02  0.51100000000E-03 0.  1.
         11   -1    0    0    0    0 -0.00000000000E+00 -0.00000000000E+00 -0.45593999997E+02  0.45594000000E+02  0.51100000000E-03 0. -1.
    9900012    2    1    2    0    0 -0.85434885945E+01  0.95131148389E+01 -0.38596312069E+02  0.50528857650E+02  0.29999993312E+02 0.  0.
        -12    1    1    2    0    0  0.85434885945E+01 -0.95131148389E+01  0.38596312069E+02  0.40659142350E+02  0.00000000000E+00 0.  1.
         11    1    3    3    0    0 -0.38178984007E+00 -0.45572847091E+01 -0.15609564429E+02  0.16265703469E+02  0.51100000000E-03 0.  1.
        -11    1    3    3    0    0  0.46820082104E+01 -0.17364855840E+01 -0.53848091183E+01  0.73438921947E+01  0.51100000000E-03 0. -1.
         12    1    3    3    0    0 -0.12843706965E+02  0.15806885132E+02 -0.17601938522E+02  0.26919261987E+02  0.00000000000E+00 0. -1.
</event>
<event>
 7    1  0.2817603E-011  0.5052886E+02  0.7816164E-02  0.1300439E+00
        -11   -1    0    0    0    0  0.00000000000E+00  0.00000000000E+00  0.45593999997E+02  0.45594000000E+02  0.51100000000E-03 0.  1.
         11   -1    0    0    0    0 -0.00000000000E+00 -0.00000000000E+00 -0.45593999997E+02  0.45594000000E+02  0.51100000000E-03 0. -1.
    9900012    2    1    2    0    0  0.10416415756E+02  0.40666048503E+01 -0.39091259469E+02  0.50528861309E+02  0.30000004435E+02 0.  0.
        -12    1    1    2    0    0 -0.10416415756E+02 -0.40666048503E+01  0.39091259469E+02  0.40659138691E+02  0.00000000000E+00 0.  1.
         11    1    3    3    0    0 -0.21009229347E+01 -0.48579488861E+01 -0.58406800983E+01  0.78820738914E+01  0.51100000000E-03 0. -1.
        -11    1    3    3    0    0  0.16093891752E+02 -0.16672133447E+00 -0.15282364122E+02  0.22194409232E+02  0.51100000000E-03 0.  1.
         12    1    3    3    0    0 -0.35765530619E+01  0.90912750709E+01 -0.17968215249E+02  0.20452378186E+02  0.00000000000E+00 0. -1.
</event>
<event>
 7    1  0.2817603E-011  0.5052886E+02  0.7816164E-02  0.1300439E+00
        -11   -1    0    0    0    0  0.00000000000E+00  0.00000000000E+00  0.45593999997E+02  0.45594000000E+02  0.51100000000E-03 0. -1.
         11   -1    0    0    0    0 -0.00000000000E+00 -0.00000000000E+00 -0.45593999997E+02  0.45594000000E+02  0.51100000000E-03 0.  1.
    9900012    2    1    2    0    0 -0.12991801504E+02 -0.31404533791E+02  0.22318923106E+02  0.50528856163E+02  0.29999988792E+02 0.  0.
        -12    1    1    2    0    0  0.12991801504E+02  0.31404533791E+02 -0.22318923106E+02  0.40659143837E+02  0.00000000000E+00 0.  1.
         11    1    3    3    0    0 -0.12351019023E+01 -0.25822277946E+02  0.22832716988E+02  0.34491281222E+02  0.51100000000E-03 0. -1.
        -11    1    3    3    0    0  0.11124018297E+01 -0.72939546590E+00  0.16449549038E+01  0.21154981619E+01  0.51100000000E-03 0.  1.
        -12    1    3    3    0    0 -0.12869101431E+02 -0.48528603791E+01 -0.21587487856E+01  0.13922076779E+02  0.00000000000E+00 0.  1.
</event>
<event>
 7    1  0.2817603E-011  0.5052885E+02  0.7816164E-02  0.1300439E+00
        -11   -1    0    0    0    0  0.00000000000E+00  0.00000000000E+00  0.45593999997E+02  0.45594000000E+02  0.51100000000E-03 0.  1.
         11   -1    0    0    0    0 -0.00000000000E+00 -0.00000000000E+00 -0.45593999997E+02  0.45594000000E+02  0.51100000000E-03 0. -1.
    9900012    2    1    2    0    0 -0.34049877795E+01 -0.19722832262E+02 -0.35391839174E+02  0.50528851775E+02  0.29999975456E+02 0.  0.
        -12    1    1    2    0    0  0.34049877795E+01  0.19722832262E+02  0.35391839174E+02  0.40659148225E+02  0.00000000000E+00 0.  1.
         11    1    3    3    0    0  0.88790234349E+01 -0.18238948965E+02 -0.18729793963E+02  0.27609808016E+02  0.51100000000E-03 0. -1.
        -11    1    3    3    0    0 -0.29768119855E+00 -0.34895543728E+01 -0.27994901021E+01  0.44836089158E+01  0.51100000000E-03 0.  1.
         12    1    3    3    0    0 -0.11986330016E+02  0.20056710759E+01 -0.13862555110E+02  0.18435434844E+02  0.00000000000E+00 0. -1.
</event>
<event>
 7    1  0.2817603E-011  0.5052886E+02  0.7816164E-02  0.1300439E+00
        -11   -1    0    0    0    0  0.00000000000E+00  0.00000000000E+00  0.45593999997E+02  0.45594000000E+02  0.51100000000E-03 0.  1.
         11   -1    0    0    0    0 -0.00000000000E+00 -0.00000000000E+00 -0.45593999997E+02  0.45594000000E+02  0.51100000000E-03 0. -1.
    9900012    2    1    2    0    0  0.12233410494E+02  0.22289564046E+02 -0.31728300535E+02  0.50528855241E+02  0.29999985992E+02 0.  0.
        -12    1    1    2    0    0 -0.12233410494E+02 -0.22289564046E+02  0.31728300535E+02  0.40659144759E+02  0.00000000000E+00 0.  1.
         11    1    3    3    0    0  0.14701095104E+01  0.60160449439E+01 -0.12740410479E+02  0.14165877247E+02  0.51100000000E-03 0. -1.
        -11    1    3    3    0    0  0.14286516323E+02  0.11736137552E+02 -0.22885533573E+02  0.29420895984E+02  0.51100000000E-03 0.  1.
        -12    1    3    3    0    0 -0.35232153390E+01  0.45373815497E+01  0.38976435176E+01  0.69420820106E+01  0.00000000000E+00 0.  1.
</event>
<event>
 7    1  0.3092229E-011  0.5052886E+02  0.7816164E-02  0.1300439E+00
        -11   -1    0    0    0    0  0.00000000000E+00  0.00000000000E+00  0.45593999997E+02  0.45594000000E+02  0.51100000000E-03 0. -1.
         11   -1    0    0    0    0 -0.00000000000E+00 -0.00000000000E+00 -0.45593999997E+02  0.45594000000E+02  0.51100000000E-03 0.  1.
    9900012    2    1    2    0    0 -0.38304710058E+02 -0.21049938686E+01  0.13471584464E+02  0.50528863268E+02  0.30000010389E+02 0.  0.
        -12    1    1    2    0    0  0.38304710058E+02  0.21049938686E+01 -0.13471584464E+02  0.40659136732E+02  0.00000000000E+00 0.  1.
         11    1    3    3    0    0 -0.38130126873E+01  0.73821844721E+01  0.59016175060E+01  0.10191408283E+02  0.51100000000E-03 0. -1.
        -11    1    3    3    0    0 -0.40019975073E+01  0.24569315978E+01 -0.34060159952E+01  0.58011586899E+01  0.51100000000E-03 0.  1.
         12    1    3    3    0    0 -0.30489699864E+02 -0.11944109939E+02  0.10975982953E+02  0.34536296295E+02  0.00000000000E+00 0. -1.
</event>
<event>
 7    1  0.2817603E-011  0.5052884E+02  0.7816164E-02  0.1300439E+00
        -11   -1    0    0    0    0  0.00000000000E+00  0.00000000000E+00  0.45593999997E+02  0.45594000000E+02  0.51100000000E-03 0. -1.
         11   -1    0    0    0    0 -0.00000000000E+00 -0.00000000000E+00 -0.45593999997E+02  0.45594000000E+02  0.51100000000E-03 0.  1.
    9900012    2    1    2    0    0 -0.34298666383E+02  0.29082510574E+01  0.21640487781E+02  0.50528841730E+02  0.29999944922E+02 0.  0.
        -12    1    1    2    0    0  0.34298666383E+02 -0.29082510574E+01 -0.21640487781E+02  0.40659158270E+02  0.00000000000E+00 0.  1.
         11    1    3    3    0    0 -0.10812476859E+02 -0.33055065191E+01  0.16471362158E+02  0.19978533499E+02  0.51100000000E-03 0. -1.
        -11    1    3    3    0    0 -0.21723773332E+02  0.74120503835E+01  0.10176546453E+02  0.25108224084E+02  0.51100000000E-03 0.  1.
        -12    1    3    3    0    0 -0.17624161918E+01 -0.11982928070E+01 -0.50074208305E+01  0.54420841466E+01  0.00000000000E+00 0.  1.
</event>
<event>
 7    1  0.2817603E-011  0.5052886E+02  0.7816164E-02  0.1300439E+00
        -11   -1    0    0    0    0  0.00000000000E+00  0.00000000000E+00  0.45593999997E+02  0.45594000000E+02  0.51100000000E-03 0.  1.
         11   -1    0    0    0    0 -0.00000000000E+00 -0.00000000000E+00 -0.45593999997E+02  0.45594000000E+02  0.51100000000E-03 0. -1.
    9900012    2    1    2    0    0 -0.30310392879E+02 -0.87151706000E+01 -0.25661097488E+02  0.50528855403E+02  0.29999986482E+02 0.  0.
        -12    1    1    2    0    0  0.30310392879E+02  0.87151706000E+01  0.25661097488E+02  0.40659144597E+02  0.00000000000E+00 0.  1.
         11    1    3    3    0    0 -0.23565156862E+02  0.28561424688E+01 -0.19414732161E+02  0.30666039733E+02  0.51100000000E-03 0. -1.
        -11    1    3    3    0    0  0.85229538219E+00  0.18647843583E+01  0.15499273901E+01  0.25702340939E+01  0.51100000000E-03 0.  1.
        -12    1    3    3    0    0 -0.75975313991E+01 -0.13436097427E+02 -0.77962927174E+01  0.17292581576E+02  0.00000000000E+00 0.  1.
</event>
<event>
 7    1  0.2817603E-011  0.5052886E+02  0.7816164E-02  0.1300439E+00
        -11   -1    0    0    0    0  0.00000000000E+00  0.00000000000E+00  0.45593999997E+02  0.45594000000E+02  0.51100000000E-03 0.  1.
         11   -1    0    0    0    0 -0.00000000000E+00 -0.00000000000E+00 -0.45593999997E+02  0.45594000000E+02  0.51100000000E-03 0. -1.
    9900012    2    1    2    0    0  0.32975656954E+02 -0.62216468409E+01 -0.22957853842E+02  0.50528857190E+02  0.29999991915E+02 0.  0.
        -12    1    1    2    0    0 -0.32975656954E+02  0.62216468409E+01  0.22957853842E+02  0.40659142810E+02  0.00000000000E+00 0.  1.
         11    1    3    3    0    0  0.21605326845E+02 -0.50924388994E+01 -0.15655764828E+02  0.27162953717E+02  0.51100000000E-03 0. -1.
        -11    1    3    3    0    0  0.12926716354E+02 -0.45564639613E+01 -0.11381140227E+02  0.17815490806E+02  0.51100000000E-03 0.  1.
        -12    1    3    3    0    0 -0.15563862456E+01  0.34272560199E+01  0.40790512128E+01  0.55504126665E+01  0.00000000000E+00 0.  1.
</event>
<event>
 7    1  0.2817603E-011  0.5052887E+02  0.7816164E-02  0.1300439E+00
        -11   -1    0    0    0    0  0.00000000000E+00  0.00000000000E+00  0.45593999997E+02  0.45594000000E+02  0.51100000000E-03 0. -1.
         11   -1    0    0    0    0 -0.00000000000E+00 -0.00000000000E+00 -0.45593999997E+02  0.45594000000E+02  0.51100000000E-03 0.  1.
    9900012    2    1    2    0    0 -0.72164460275E+01 -0.39790725087E+02 -0.42173566641E+01  0.50528868265E+02  0.30000025578E+02 0.  0.
        -12    1    1    2    0    0  0.72164460275E+01  0.39790725087E+02  0.42173566641E+01  0.40659131735E+02  0.00000000000E+00 0.  1.
         11    1    3    3    0    0  0.30619535550E+01  0.36026743233E+00 -0.14988302768E+01  0.34280963603E+01  0.51100000000E-03 0.  1.
        -11    1    3    3    0    0 -0.57188728768E+01 -0.40325941038E+02  0.16785900021E+01  0.40764012220E+02  0.51100000000E-03 0. -1.
         12    1    3    3    0    0 -0.45595267057E+01  0.17494851892E+00 -0.43971163893E+01  0.63367596850E+01  0.00000000000E+00 0. -1.
</event>
<event>
 7    1  0.2817603E-011  0.5052887E+02  0.7816164E-02  0.1300439E+00
        -11   -1    0    0    0    0  0.00000000000E+00  0.00000000000E+00  0.45593999997E+02  0.45594000000E+02  0.51100000000E-03 0.  1.
         11   -1    0    0    0    0 -0.00000000000E+00 -0.00000000000E+00 -0.45593999997E+02  0.45594000000E+02  0.51100000000E-03 0. -1.
    9900012    2    1    2    0    0 -0.50409701383E+01 -0.30400377514E+02 -0.26524904055E+02  0.50528869807E+02  0.30000030266E+02 0.  0.
        -12    1    1    2    0    0  0.50409701383E+01  0.30400377514E+02  0.26524904055E+02  0.40659130193E+02  0.00000000000E+00 0.  1.
         11    1    3    3    0    0  0.52044648839E+01 -0.12535362245E+02 -0.15273834644E+02  0.20433105157E+02  0.51100000000E-03 0. -1.
        -11    1    3    3    0    0  0.23881218730E+01  0.20040941490E+01  0.13420162763E+01  0.33941902400E+01  0.51100000000E-03 0.  1.
        -12    1    3    3    0    0 -0.12633556895E+02 -0.19869109418E+02 -0.12593085687E+02  0.26701574410E+02  0.00000000000E+00 0.  1.
</event>
<event>
 7    1  0.2817603E-011  0.5052888E+02  0.7816164E-02  0.1300439E+00
        -11   -1    0    0    0    0  0.00000000000E+00  0.00000000000E+00  0.45593999997E+02  0.45594000000E+02  0.51100000000E-03 0. -1.
         11   -1    0    0    0    0 -0.00000000000E+00 -0.00000000000E+00 -0.45593999997E+02  0.45594000000E+02  0.51100000000E-03 0.  1.
    9900012    2    1    2    0    0  0.52705900438E+00 -0.17107985207E+02  0.36880928606E+02  0.50528882402E+02  0.30000068548E+02 0.  0.
        -12    1    1    2    0    0 -0.52705900438E+00  0.17107985207E+02 -0.36880928606E+02  0.40659117598E+02  0.00000000000E+00 0.  1.
         11    1    3    3    0    0 -0.89344402782E+00 -0.14173450818E+02  0.51970943339E+01  0.15122656516E+02  0.51100000000E-03 0. -1.
        -11    1    3    3    0    0  0.49824776866E+01 -0.48718317394E+01  0.54117465396E+01  0.88230850197E+01  0.51100000000E-03 0.  1.
         12    1    3    3    0    0 -0.35619746544E+01  0.19372973508E+01  0.26272087733E+02  0.26583140866E+02  0.00000000000E+00 0. -1.
</event>
<event>
 7    1  0.2817603E-011  0.5052885E+02  0.7816164E-02  0.1300439E+00
        -11   -1    0    0    0    0  0.00000000000E+00  0.00000000000E+00  0.45593999997E+02  0.45594000000E+02  0.51100000000E-03 0.  1.
         11   -1    0    0    0    0 -0.00000000000E+00 -0.00000000000E+00 -0.45593999997E+02  0.45594000000E+02  0.51100000000E-03 0. -1.
    9900012    2    1    2    0    0 -0.23054857004E+02  0.19861224061E+01 -0.33431946044E+02  0.50528854289E+02  0.29999983097E+02 0.  0.
        -12    1    1    2    0    0  0.23054857004E+02 -0.19861224061E+01  0.33431946044E+02  0.40659145711E+02  0.00000000000E+00 0.  1.
         11    1    3    3    0    0  0.26496502136E+01  0.61464559196E+01 -0.15949489933E+02  0.17296988062E+02  0.51100000000E-03 0. -1.
        -11    1    3    3    0    0 -0.11089473306E+00 -0.20860391884E+01  0.13237844282E+00  0.20931749689E+01  0.51100000000E-03 0.  1.
         12    1    3    3    0    0 -0.25593612484E+02 -0.20742943251E+01 -0.17614834554E+02  0.31138691259E+02  0.00000000000E+00 0. -1.
</event>
<event>
 7    1  0.2817603E-011  0.5052891E+02  0.7816164E-02  0.1300439E+00
        -11   -1    0    0    0    0  0.00000000000E+00  0.00000000000E+00  0.45593999997E+02  0.45594000000E+02  0.51100000000E-03 0.  1.
         11   -1    0    0    0    0 -0.00000000000E+00 -0.00000000000E+00 -0.45593999997E+02  0.45594000000E+02  0.51100000000E-03 0. -1.
    9900012    2    1    2    0    0 -0.95022473945E+01  0.34184132703E+01 -0.39385066937E+02  0.50528908121E+02  0.30000146724E+02 0.  0.
        -12    1    1    2    0    0  0.95022473945E+01 -0.34184132703E+01  0.39385066937E+02  0.40659091879E+02  0.00000000000E+00 0.  1.
         11    1    3    3    0    0  0.44989668942E+01  0.92429929058E+01 -0.17594997003E+02  0.20377868897E+02  0.51100000000E-03 0. -1.
        -11    1    3    3    0    0  0.64260182626E+00  0.28789179098E+01 -0.68402479923E+00  0.30280349446E+01  0.51100000000E-03 0.  1.
         12    1    3    3    0    0 -0.14643816115E+02 -0.87034975454E+01 -0.21106045134E+02  0.27123004279E+02  0.00000000000E+00 0. -1.
</event>
<event>
 7    1  0.2817603E-011  0.5052885E+02  0.7816164E-02  0.1300439E+00
        -11   -1    0    0    0    0  0.00000000000E+00  0.00000000000E+00  0.45593999997E+02  0.45594000000E+02  0.51100000000E-03 0.  1.
         11   -1    0    0    0    0 -0.00000000000E+00 -0.00000000000E+00 -0.45593999997E+02  0.45594000000E+02  0.51100000000E-03 0. -1.
    9900012    2    1    2    0    0 -0.35109028627E+02  0.27553634168E+01 -0.20320682948E+02  0.50528854975E+02  0.29999985181E+02 0.  0.
        -12    1    1    2    0    0  0.35109028627E+02 -0.27553634168E+01  0.20320682948E+02  0.40659145025E+02  0.00000000000E+00 0.  1.
         11    1    3    3    0    0 -0.42754322208E+01 -0.77248874625E+00 -0.10806063880E+01  0.44770269113E+01  0.51100000000E-03 0. -1.
        -11    1    3    3    0    0 -0.15801813122E+02  0.32226189875E+01  0.55529212497E+01  0.17056303988E+02  0.51100000000E-03 0.  1.
         12    1    3    3    0    0 -0.15031783285E+02  0.30523317551E+00 -0.24792997809E+02  0.28995524075E+02  0.00000000000E+00 0. -1.
</event>
<event>
 7    1  0.2817603E-011  0.5052884E+02  0.7816164E-02  0.1300439E+00
        -11   -1    0    0    0    0  0.00000000000E+00  0.00000000000E+00  0.45593999997E+02  0.45594000000E+02  0.51100000000E-03 0. -1.
         11   -1    0    0    0    0 -0.00000000000E+00 -0.00000000000E+00 -0.45593999997E+02  0.45594000000E+02  0.51100000000E-03 0.  1.
    9900012    2    1    2    0    0  0.38396733553E+02  0.85343996485E+01  0.10296695215E+02  0.50528842886E+02  0.29999948435E+02 0.  0.
        -12    1    1    2    0    0 -0.38396733553E+02 -0.85343996485E+01 -0.10296695215E+02  0.40659157114E+02  0.00000000000E+00 0.  1.
         11    1    3    3    0    0  0.99817849738E+01  0.91430803217E+01  0.43164313575E+01  0.14207868558E+02  0.51100000000E-03 0. -1.
        -11    1    3    3    0    0  0.15192925144E+02 -0.76085951732E+01  0.11341157894E+02  0.20428841318E+02  0.51100000000E-03 0.  1.
         12    1    3    3    0    0  0.13222023436E+02  0.69999145000E+01 -0.53608940368E+01  0.15892133010E+02  0.00000000000E+00 0. -1.
</event>
<event>
 7    1  0.2817603E-011  0.5052886E+02  0.7816164E-02  0.1300439E+00
        -11   -1    0    0    0    0  0.00000000000E+00  0.00000000000E+00  0.45593999997E+02  0.45594000000E+02  0.51100000000E-03 0. -1.
         11   -1    0    0    0    0 -0.00000000000E+00 -0.00000000000E+00 -0.45593999997E+02  0.45594000000E+02  0.51100000000E-03 0.  1.
    9900012    2    1    2    0    0 -0.11060557105E+02  0.39048318792E+02 -0.24614845486E+01  0.50528855516E+02  0.29999986827E+02 0.  0.
        -12    1    1    2    0    0  0.11060557105E+02 -0.39048318792E+02  0.24614845486E+01  0.40659144484E+02  0.00000000000E+00 0.  1.
         11    1    3    3    0    0  0.56811977738E+01  0.15210645466E+02  0.17800641273E-01  0.16236996667E+02  0.51100000000E-03 0. -1.
        -11    1    3    3    0    0  0.34140581817E+00  0.13058633137E+02  0.29151099231E+01  0.13384405981E+02  0.51100000000E-03 0.  1.
         12    1    3    3    0    0 -0.17083160697E+02  0.10779040188E+02 -0.53943951130E+01  0.20907452868E+02  0.00000000000E+00 0. -1.
</event>
<event>
 7    1  0.2817603E-011  0.5052884E+02  0.7816164E-02  0.1300439E+00
        -11   -1    0    0    0    0  0.00000000000E+00  0.00000000000E+00  0.45593999997E+02  0.45594000000E+02  0.51100000000E-03 0.  1.
         11   -1    0    0    0    0 -0.00000000000E+00 -0.00000000000E+00 -0.45593999997E+02  0.45594000000E+02  0.51100000000E-03 0. -1.
    9900012    2    1    2    0    0 -0.16790656462E+02  0.12176138958E+01 -0.37010245099E+02  0.50528843955E+02  0.29999951684E+02 0.  0.
        -12    1    1    2    0    0  0.16790656462E+02 -0.12176138958E+01  0.37010245099E+02  0.40659156045E+02  0.00000000000E+00 0.  1.
         11    1    3    3    0    0 -0.12223279852E+02  0.43746396650E+00 -0.23026832426E+02  0.26073644872E+02  0.51100000000E-03 0. -1.
        -11    1    3    3    0    0 -0.11530436801E-01 -0.11522681971E+01 -0.18027456290E+02  0.18064247438E+02  0.51100000000E-03 0.  1.
        -12    1    3    3    0    0 -0.45558461727E+01  0.19324181264E+01  0.40440436161E+01  0.63909516453E+01  0.00000000000E+00 0.  1.
</event>
<event>
 7    1  0.2817603E-011  0.5052884E+02  0.7816164E-02  0.1300439E+00
        -11   -1    0    0    0    0  0.00000000000E+00  0.00000000000E+00  0.45593999997E+02  0.45594000000E+02  0.51100000000E-03 0.  1.
         11   -1    0    0    0    0 -0.00000000000E+00 -0.00000000000E+00 -0.45593999997E+02  0.45594000000E+02  0.51100000000E-03 0. -1.
    9900012    2    1    2    0    0 -0.24377189083E+02  0.19420864975E+02 -0.26110345777E+02  0.50528837434E+02  0.29999931864E+02 0.  0.
        -12    1    1    2    0    0  0.24377189083E+02 -0.19420864975E+02  0.26110345777E+02  0.40659162566E+02  0.00000000000E+00 0.  1.
         11    1    3    3    0    0 -0.86182912129E+01 -0.28865425559E+00 -0.33925802738E+01  0.92664915629E+01  0.51100000000E-03 0. -1.
        -11    1    3    3    0    0 -0.18665286544E+02  0.12066476238E+02 -0.65937048072E+01  0.23183393063E+02  0.51100000000E-03 0.  1.
         12    1    3    3    0    0  0.29063886738E+01  0.76430429929E+01 -0.16124060696E+02  0.18078952808E+02  0.00000000000E+00 0. -1.
</event>
<event>
 7    1  0.2817603E-011  0.5052886E+02  0.7816164E-02  0.1300439E+00
        -11   -1    0    0    0    0  0.00000000000E+00  0.00000000000E+00  0.45593999997E+02  0.45594000000E+02  0.51100000000E-03 0.  1.
         11   -1    0    0    0    0 -0.00000000000E+00 -0.00000000000E+00 -0.45593999997E+02  0.45594000000E+02  0.51100000000E-03 0. -1.
    9900012    2    1    2    0    0  0.19404294191E+02  0.28936682806E+02  0.20959662673E+02  0.50528859524E+02  0.29999999009E+02 0.  0.
        -12    1    1    2    0    0 -0.19404294191E+02 -0.28936682806E+02 -0.20959662673E+02  0.40659140476E+02  0.00000000000E+00 0.  1.
         11    1    3    3    0    0 -0.60126096520E+01  0.55788105740E+01  0.11069134732E+02  0.13776804645E+02  0.51100000000E-03 0.  1.
        -11    1    3    3    0    0  0.24065599354E+01 -0.19366807281E-01 -0.24695366146E+00  0.24192751327E+01  0.51100000000E-03 0. -1.
         12    1    3    3    0    0  0.23010343907E+02  0.23377239040E+02  0.10137481602E+02  0.34332779746E+02  0.00000000000E+00 0. -1.
</event>
<event>
 7    1  0.2817603E-011  0.5052884E+02  0.7816164E-02  0.1300439E+00
        -11   -1    0    0    0    0  0.00000000000E+00  0.00000000000E+00  0.45593999997E+02  0.45594000000E+02  0.51100000000E-03 0. -1.
         11   -1    0    0    0    0 -0.00000000000E+00 -0.00000000000E+00 -0.45593999997E+02  0.45594000000E+02  0.51100000000E-03 0.  1.
    9900012    2    1    2    0    0  0.28938968323E+02  0.28308273595E+02  0.37874387391E+01  0.50528844405E+02  0.29999953052E+02 0.  0.
        -12    1    1    2    0    0 -0.28938968323E+02 -0.28308273595E+02 -0.37874387391E+01  0.40659155595E+02  0.00000000000E+00 0.  1.
         11    1    3    3    0    0  0.26053200344E+01  0.19348952155E+02  0.57317531960E+00  0.19531978194E+02  0.51100000000E-03 0. -1.
        -11    1    3    3    0    0 -0.14671136116E+00  0.13473112946E+01 -0.25130313318E+01  0.28551880295E+01  0.51100000000E-03 0.  1.
         12    1    3    3    0    0  0.26480359650E+02  0.76120101451E+01  0.57272947513E+01  0.28141678181E+02  0.00000000000E+00 0. -1.
</event>
<event>
 7    1  0.2817603E-011  0.5052886E+02  0.7816164E-02  0.1300439E+00
        -11   -1    0    0    0    0  0.00000000000E+00  0.00000000000E+00  0.45593999997E+02  0.45594000000E+02  0.51100000000E-03 0. -1.
         11   -1    0    0    0    0 -0.00000000000E+00 -0.00000000000E+00 -0.45593999997E+02  0.45594000000E+02  0.51100000000E-03 0.  1.
    9900012    2    1    2    0    0  0.87852472796E+01  0.34315210593E+02  0.19961254985E+02  0.50528856521E+02  0.29999989882E+02 0.  0.
        -12    1    1    2    0    0 -0.87852472796E+01 -0.34315210593E+02 -0.19961254985E+02  0.40659143479E+02  0.00000000000E+00 0.  1.
         11    1    3    3    0    0  0.43518492818E+01  0.74298961207E+01  0.93004219234E+01  0.12674375596E+02  0.51100000000E-03 0. -1.
        -11    1    3    3    0    0 -0.27892027847E+01 -0.29604793162E+00  0.92815352410E+01  0.96960916479E+01  0.51100000000E-03 0.  1.
         12    1    3    3    0    0  0.72226007826E+01  0.27181362404E+02  0.13792978211E+01  0.28158389277E+02  0.00000000000E+00 0. -1.
</event>
<event>
 7    1  0.2817603E-011  0.5052887E+02  0.7816164E-02  0.1300439E+00
        -11   -1    0    0    0    0  0.00000000000E+00  0.00000000000E+00  0.45593999997E+02  0.45594000000E+02  0.51100000000E-03 0.  1.
         11   -1    0    0    0    0 -0.00000000000E+00 -0.00000000000E+00 -0.45593999997E+02  0.45594000000E+02  0.51100000000E-03 0. -1.
    9900012    2    1    2    0    0 -0.44421639108E+01  0.15802438816E+02 -0.37198324741E+02  0.50528865033E+02  0.30000015755E+02 0.  0.
        -12    1    1    2    0    0  0.44421639108E+01 -0.15802438816E+02  0.37198324741E+02  0.40659134967E+02  0.00000000000E+00 0.  1.
         11    1    3    3    0    0  0.13824574816E+01 -0.10717838306E+01 -0.67102400661E+01  0.69344957477E+01  0.51100000000E-03 0. -1.
        -11    1    3    3    0    0  0.38922511517E+01 -0.54996781977E+01 -0.73968076399E+01  0.10005440661E+02  0.51100000000E-03 0.  1.
        -12    1    3    3    0    0 -0.97168725441E+01  0.22373900844E+02 -0.23091277035E+02  0.33588928624E+02  0.00000000000E+00 0.  1.
</event>
<event>
 7    1  0.2817603E-011  0.5052887E+02  0.7816164E-02  0.1300439E+00
        -11   -1    0    0    0    0  0.00000000000E+00  0.00000000000E+00  0.45593999997E+02  0.45594000000E+02  0.51100000000E-03 0.  1.
         11   -1    0    0    0    0 -0.00000000000E+00 -0.00000000000E+00 -0.45593999997E+02  0.45594000000E+02  0.51100000000E-03 0. -1.
    9900012    2    1    2    0    0  0.19524986439E+02 -0.28625721471E+02 -0.21272235344E+02  0.50528867918E+02  0.30000024522E+02 0.  0.
        -12    1    1    2    0    0 -0.19524986439E+02  0.28625721471E+02  0.21272235344E+02  0.40659132082E+02  0.00000000000E+00 0.  1.
         11    1    3    3    0    0  0.58966289404E+01 -0.57261312357E+01 -0.95115861714E+01  0.12570961918E+02  0.51100000000E-03 0. -1.
        -11    1    3    3    0    0 -0.54610917411E+01 -0.12528226401E+02 -0.82144959408E+01  0.15945467180E+02  0.51100000000E-03 0.  1.
        -12    1    3    3    0    0  0.19089449239E+02 -0.10371363834E+02 -0.35461532321E+01  0.22012438820E+02  0.00000000000E+00 0.  1.
</event>
<event>
 7    1  0.2817603E-011  0.5052882E+02  0.7816164E-02  0.1300439E+00
        -11   -1    0    0    0    0  0.00000000000E+00  0.00000000000E+00  0.45593999997E+02  0.45594000000E+02  0.51100000000E-03 0. -1.
         11   -1    0    0    0    0 -0.00000000000E+00 -0.00000000000E+00 -0.45593999997E+02  0.45594000000E+02  0.51100000000E-03 0.  1.
    9900012    2    1    2    0    0  0.17536029294E+02  0.13819755746E+02  0.33980451994E+02  0.50528817888E+02  0.29999872452E+02 0.  0.
        -12    1    1    2    0    0 -0.17536029294E+02 -0.13819755746E+02 -0.33980451994E+02  0.40659182112E+02  0.00000000000E+00 0.  1.
         11    1    3    3    0    0 -0.50681045173E+01 -0.25312013801E+00  0.51349547784E+01  0.72192460853E+01  0.51100000000E-03 0. -1.
        -11    1    3    3    0    0  0.20379695982E+01 -0.40915847320E+01  0.22431059045E+01  0.50917492144E+01  0.51100000000E-03 0.  1.
         12    1    3    3    0    0  0.20566164213E+02  0.18164460616E+02  0.26602391311E+02  0.38217822588E+02  0.00000000000E+00 0. -1.
</event>
<event>
 7    1  0.2817603E-011  0.5052885E+02  0.7816164E-02  0.1300439E+00
        -11   -1    0    0    0    0  0.00000000000E+00  0.00000000000E+00  0.45593999997E+02  0.45594000000E+02  0.51100000000E-03 0. -1.
         11   -1    0    0    0    0 -0.00000000000E+00 -0.00000000000E+00 -0.45593999997E+02  0.45594000000E+02  0.51100000000E-03 0.  1.
    9900012    2    1    2    0    0  0.38246374325E+02 -0.12994064647E+02  0.46406717093E+01  0.50528847291E+02  0.29999961827E+02 0.  0.
        -12    1    1    2    0    0 -0.38246374325E+02  0.12994064647E+02 -0.46406717093E+01  0.40659152709E+02  0.00000000000E+00 0.  1.
         11    1    3    3    0    0  0.13272525380E+02  0.18350166988E+01 -0.48164674397E+01  0.14238173166E+02  0.51100000000E-03 0. -1.
        -11    1    3    3    0    0  0.12764658003E+02  0.32486072784E+01  0.45107475863E+01  0.13922528048E+02  0.51100000000E-03 0.  1.
        -12    1    3    3    0    0  0.12209190942E+02 -0.18077688625E+02  0.49463915627E+01  0.22368146078E+02  0.00000000000E+00 0.  1.
</event>
<event>
 7    1  0.2817603E-011  0.5052886E+02  0.7816164E-02  0.1300439E+00
        -11   -1    0    0    0    0  0.00000000000E+00  0.00000000000E+00  0.45593999997E+02  0.45594000000E+02  0.51100000000E-03 0.  1.
         11   -1    0    0    0    0 -0.00000000000E+00 -0.00000000000E+00 -0.45593999997E+02  0.45594000000E+02  0.51100000000E-03 0. -1.
    9900012    2    1    2    0    0 -0.25519987126E+02  0.13932966700E+02  0.28421263243E+02  0.50528861934E+02  0.30000006334E+02 0.  0.
        -12    1    1    2    0    0  0.25519987126E+02 -0.13932966700E+02 -0.28421263243E+02  0.40659138066E+02  0.00000000000E+00 0.  1.
         11    1    3    3    0    0 -0.19983337075E+02  0.16659379855E+02  0.15140829283E+02  0.30101717716E+02  0.51100000000E-03 0. -1.
        -11    1    3    3    0    0 -0.67213645138E+01  0.26846326457E+01  0.14745373932E+01  0.73863559456E+01  0.51100000000E-03 0.  1.
        -12    1    3    3    0    0  0.11847144629E+01 -0.54110458010E+01  0.11805896566E+02  0.13040788272E+02  0.00000000000E+00 0.  1.
</event>
<event>
 7    1  0.2817603E-011  0.5052886E+02  0.7816164E-02  0.1300439E+00
        -11   -1    0    0    0    0  0.00000000000E+00  0.00000000000E+00  0.45593999997E+02  0.45594000000E+02  0.51100000000E-03 0. -1.
         11   -1    0    0    0    0 -0.00000000000E+00 -0.00000000000E+00 -0.45593999997E+02  0.45594000000E+02  0.51100000000E-03 0.  1.
    9900012    2    1    2    0    0 -0.26453528280E+02  0.19951678330E+02  0.23564948898E+02  0.50528862734E+02  0.30000008765E+02 0.  0.
        -12    1    1    2    0    0  0.26453528280E+02 -0.19951678330E+02 -0.23564948898E+02  0.40659137266E+02  0.00000000000E+00 0.  1.
         11    1    3    3    0    0 -0.18083595723E+02  0.94593436245E+01  0.12151146010E+02  0.23751757108E+02  0.51100000000E-03 0. -1.
        -11    1    3    3    0    0 -0.10852657317E+01  0.14934423986E+02  0.40633748477E+01  0.15515341985E+02  0.51100000000E-03 0.  1.
        -12    1    3    3    0    0 -0.72846668256E+01 -0.44420892797E+01  0.73504280402E+01  0.11261763641E+02  0.00000000000E+00 0.  1.
</event>
<event>
 7    1  0.2817603E-011  0.5052886E+02  0.7816164E-02  0.1300439E+00
        -11   -1    0    0    0    0  0.00000000000E+00  0.00000000000E+00  0.45593999997E+02  0.45594000000E+02  0.51100000000E-03 0.  1.
         11   -1    0    0    0    0 -0.00000000000E+00 -0.00000000000E+00 -0.45593999997E+02  0.45594000000E+02  0.51100000000E-03 0. -1.
    9900012    2    1    2    0    0  0.39433709351E+02 -0.63462620853E+01  0.76074378732E+01  0.50528860970E+02  0.30000003406E+02 0.  0.
        -12    1    1    2    0    0 -0.39433709351E+02  0.63462620853E+01 -0.76074378732E+01  0.40659139030E+02  0.00000000000E+00 0.  1.
         11    1    3    3    0    0  0.55299870594E+01 -0.45809118936E+01  0.54318103600E+01  0.90038921974E+01  0.51100000000E-03 0. -1.
        -11    1    3    3    0    0  0.75252207769E+01 -0.40919278771E+01  0.10699582872E+02  0.13705980279E+02  0.51100000000E-03 0.  1.
         12    1    3    3    0    0  0.26378501515E+02  0.23265776855E+01 -0.85239553592E+01  0.27818988494E+02  0.00000000000E+00 0. -1.
</event>
<event>
 7    1  0.2817603E-011  0.5052886E+02  0.7816164E-02  0.1300439E+00
        -11   -1    0    0    0    0  0.00000000000E+00  0.00000000000E+00  0.45593999997E+02  0.45594000000E+02  0.51100000000E-03 0. -1.
         11   -1    0    0    0    0 -0.00000000000E+00 -0.00000000000E+00 -0.45593999997E+02  0.45594000000E+02  0.51100000000E-03 0.  1.
    9900012    2    1    2    0    0  0.20154035420E+02  0.31171716178E+02  0.16592316415E+02  0.50528855921E+02  0.29999988059E+02 0.  0.
        -12    1    1    2    0    0 -0.20154035420E+02 -0.31171716178E+02 -0.16592316415E+02  0.40659144079E+02  0.00000000000E+00 0.  1.
         11    1    3    3    0    0 -0.12982376053E+01 -0.30075525826E+01 -0.79737876011E+00  0.33714398356E+01  0.51100000000E-03 0. -1.
        -11    1    3    3    0    0  0.50885761397E+00  0.33080390252E+01 -0.31290861022E+01  0.45818378801E+01  0.51100000000E-03 0.  1.
         12    1    3    3    0    0  0.20943415412E+02  0.30871229735E+02  0.20518781277E+02  0.42575578206E+02  0.00000000000E+00 0. -1.
</event>
<event>
 7    1  0.2817603E-011  0.5052885E+02  0.7816164E-02  0.1300439E+00
        -11   -1    0    0    0    0  0.00000000000E+00  0.00000000000E+00  0.45593999997E+02  0.45594000000E+02  0.51100000000E-03 0.  1.
         11   -1    0    0    0    0 -0.00000000000E+00 -0.00000000000E+00 -0.45593999997E+02  0.45594000000E+02  0.51100000000E-03 0. -1.
    9900012    2    1    2    0    0  0.34529180644E+02 -0.16296608602E+02 -0.13975783869E+02  0.50528852165E+02  0.29999976641E+02 0.  0.
        -12    1    1    2    0    0 -0.34529180644E+02  0.16296608602E+02  0.13975783869E+02  0.40659147835E+02  0.00000000000E+00 0.  1.
         11    1    3    3    0    0  0.16637283717E+02 -0.12784223415E+02 -0.30779654434E+01  0.21206353985E+02  0.51100000000E-03 0.  1.
        -11    1    3    3    0    0 -0.26150206233E+01  0.39676478597E+01 -0.45759237325E+01  0.65969417662E+01  0.51100000000E-03 0. -1.
         12    1    3    3    0    0  0.20506917551E+02 -0.74800330473E+01 -0.63218946933E+01  0.22725556414E+02  0.00000000000E+00 0. -1.
</event>
<event>
 7    1  0.2817603E-011  0.5052887E+02  0.7816164E-02  0.1300439E+00
        -11   -1    0    0    0    0  0.00000000000E+00  0.00000000000E+00  0.45593999997E+02  0.45594000000E+02  0.51100000000E-03 0. -1.
         11   -1    0    0    0    0 -0.00000000000E+00 -0.00000000000E+00 -0.45593999997E+02  0.45594000000E+02  0.51100000000E-03 0.  1.
    9900012    2    1    2    0    0  0.59250375997E+01  0.39852867456E+02  0.54596828077E+01  0.50528865093E+02  0.30000015937E+02 0.  0.
        -12    1    1    2    0    0 -0.59250375997E+01 -0.39852867456E+02 -0.54596828077E+01  0.40659134907E+02  0.00000000000E+00 0.  1.
         11    1    3    3    0    0  0.29666532405E+01  0.18717636729E+02  0.71267360205E+01  0.20247007748E+02  0.51100000000E-03 0. -1.
        -11    1    3    3    0    0  0.65563610084E+01  0.24308399313E+02  0.77465512568E-01  0.25177175139E+02  0.51100000000E-03 0.  1.
        -12    1    3    3    0    0 -0.35979766492E+01 -0.31731685861E+01 -0.17445187253E+01  0.51046822063E+01  0.00000000000E+00 0.  1.
</event>
<event>
 7    1  0.2817603E-011  0.5052886E+02  0.7816164E-02  0.1300439E+00
        -11   -1    0    0    0    0  0.00000000000E+00  0.00000000000E+00  0.45593999997E+02  0.45594000000E+02  0.51100000000E-03 0. -1.
         11   -1    0    0    0    0 -0.00000000000E+00 -0.00000000000E+00 -0.45593999997E+02  0.45594000000E+02  0.51100000000E-03 0.  1.
    9900012    2    1    2    0    0 -0.32093552148E+02  0.82097559188E+01  0.23574759511E+02  0.50528862432E+02  0.30000007849E+02 0.  0.
        -12    1    1    2    0    0  0.32093552148E+02 -0.82097559188E+01 -0.23574759511E+02  0.40659137568E+02  0.00000000000E+00 0.  1.
         11    1    3    3    0    0 -0.41380829890E+01 -0.30953528719E+01  0.68121179960E+01  0.85504322743E+01  0.51100000000E-03 0. -1.
        -11    1    3    3    0    0  0.38494991038E+01 -0.12670585230E+01  0.41917438941E+00  0.40742837506E+01  0.51100000000E-03 0.  1.
        -12    1    3    3    0    0 -0.31804968263E+02  0.12572167314E+02  0.16343467126E+02  0.37904146407E+02  0.00000000000E+00 0.  1.
</event>
<event>
 7    1  0.2817603E-011  0.5052889E+02  0.7816164E-02  0.1300439E+00
        -11   -1    0    0    0    0  0.00000000000E+00  0.00000000000E+00  0.45593999997E+02  0.45594000000E+02  0.51100000000E-03 0. -1.
         11   -1    0    0    0    0 -0.00000000000E+00 -0.00000000000E+00 -0.45593999997E+02  0.45594000000E+02  0.51100000000E-03 0.  1.
    9900012    2    1    2    0    0 -0.27047855161E+02 -0.15548283310E+02 -0.26073506457E+02  0.50528888824E+02  0.30000088069E+02 0.  0.
        -12    1    1    2    0    0  0.27047855161E+02  0.15548283310E+02  0.26073506457E+02  0.40659111176E+02  0.00000000000E+00 0.  1.
         11    1    3    3    0    0 -0.70188148671E+01 -0.54009110496E+01  0.11740059776E+01  0.89337501981E+01  0.51100000000E-03 0. -1.
        -11    1    3    3    0    0  0.78624171259E+00  0.19614487395E+01 -0.13905196521E+02  0.14064847946E+02  0.51100000000E-03 0.  1.
         12    1    3    3    0    0 -0.20815282006E+02 -0.12108820999E+02 -0.13342315914E+02  0.27530290680E+02  0.00000000000E+00 0. -1.
</event>
<event>
 7    1  0.2817603E-011  0.5052886E+02  0.7816164E-02  0.1300439E+00
        -11   -1    0    0    0    0  0.00000000000E+00  0.00000000000E+00  0.45593999997E+02  0.45594000000E+02  0.51100000000E-03 0. -1.
         11   -1    0    0    0    0 -0.00000000000E+00 -0.00000000000E+00 -0.45593999997E+02  0.45594000000E+02  0.51100000000E-03 0.  1.
    9900012    2    1    2    0    0  0.97428518265E+01 -0.29832826260E+02  0.25850429175E+02  0.50528863599E+02  0.30000011394E+02 0.  0.
        -12    1    1    2    0    0 -0.97428518265E+01  0.29832826260E+02 -0.25850429175E+02  0.40659136401E+02  0.00000000000E+00 0.  1.
         11    1    3    3    0    0  0.79844629378E+01 -0.12628145733E+02  0.66605357680E+01  0.16358008743E+02  0.51100000000E-03 0. -1.
        -11    1    3    3    0    0  0.11585850353E+02 -0.77342187142E+01  0.13454074086E+02  0.19366522076E+02  0.51100000000E-03 0.  1.
         12    1    3    3    0    0 -0.98274614643E+01 -0.94704618131E+01  0.57358193203E+01  0.14804332780E+02  0.00000000000E+00 0. -1.
</event>
<event>
 7    1  0.2817603E-011  0.5052888E+02  0.7816164E-02  0.1300439E+00
        -11   -1    0    0    0    0  0.00000000000E+00  0.00000000000E+00  0.45593999997E+02  0.45594000000E+02  0.51100000000E-03 0. -1.
         11   -1    0    0    0    0 -0.00000000000E+00 -0.00000000000E+00 -0.45593999997E+02  0.45594000000E+02  0.51100000000E-03 0.  1.
    9900012    2    1    2    0    0 -0.37442883087E+02 -0.72966875274E+00  0.15832313532E+02  0.50528879718E+02  0.30000060389E+02 0.  0.
        -12    1    1    2    0    0  0.37442883087E+02  0.72966875274E+00 -0.15832313532E+02  0.40659120282E+02  0.00000000000E+00 0.  1.
         11    1    3    3    0    0 -0.18777135245E+02  0.87367716393E+01  0.14386072223E+02  0.25216483913E+02  0.51100000000E-03 0. -1.
        -11    1    3    3    0    0 -0.81039734071E+01  0.17974045028E+01 -0.36278346111E+01  0.90590414590E+01  0.51100000000E-03 0.  1.
        -12    1    3    3    0    0 -0.10561774435E+02 -0.11263844895E+02  0.50740759201E+01  0.16253354345E+02  0.00000000000E+00 0.  1.
</event>
<event>
 7    1  0.2817603E-011  0.5052887E+02  0.7816164E-02  0.1300439E+00
        -11   -1    0    0    0    0  0.00000000000E+00  0.00000000000E+00  0.45593999997E+02  0.45594000000E+02  0.51100000000E-03 0.  1.
         11   -1    0    0    0    0 -0.00000000000E+00 -0.00000000000E+00 -0.45593999997E+02  0.45594000000E+02  0.51100000000E-03 0. -1.
    9900012    2    1    2    0    0 -0.33929235915E+02 -0.21214677809E+02 -0.72048327123E+01  0.50528865495E+02  0.30000017158E+02 0.  0.
        -12    1    1    2    0    0  0.33929235915E+02  0.21214677809E+02  0.72048327123E+01  0.40659134505E+02  0.00000000000E+00 0.  1.
         11    1    3    3    0    0  0.62200225632E+00  0.21575407722E+01 -0.65313973999E+01  0.69065925931E+01  0.51100000000E-03 0. -1.
        -11    1    3    3    0    0 -0.41592955982E+01  0.79930845056E+00  0.20288287878E+01  0.46962517377E+01  0.51100000000E-03 0.  1.
         12    1    3    3    0    0 -0.30391942573E+02 -0.24171527032E+02 -0.27022641002E+01  0.38926021164E+02  0.00000000000E+00 0. -1.
</event>
<event>
 7    1  0.2817603E-011  0.5052886E+02  0.7816164E-02  0.1300439E+00
        -11   -1    0    0    0    0  0.00000000000E+00  0.00000000000E+00  0.45593999997E+02  0.45594000000E+02  0.51100000000E-03 0. -1.
         11   -1    0    0    0    0 -0.00000000000E+00 -0.00000000000E+00 -0.45593999997E+02  0.45594000000E+02  0.51100000000E-03 0.  1.
    9900012    2    1    2    0    0  0.11565155010E+02 -0.32696100256E+02 -0.21222108605E+02  0.50528859871E+02  0.30000000064E+02 0.  0.
        -12    1    1    2    0    0 -0.11565155010E+02  0.32696100256E+02  0.21222108605E+02  0.40659140129E+02  0.00000000000E+00 0.  1.
         11    1    3    3    0    0  0.10488618920E+02 -0.61401220400E+01 -0.93322746133E+01  0.15323301708E+02  0.51100000000E-03 0. -1.
        -11    1    3    3    0    0  0.27029533919E+01 -0.72754208998E+01 -0.13727293693E+02  0.15769473634E+02  0.51100000000E-03 0.  1.
        -12    1    3    3    0    0 -0.16264173014E+01 -0.19280557316E+02  0.18374597006E+01  0.19436084529E+02  0.00000000000E+00 0.  1.
</event>
<event>
 7    1  0.2817603E-011  0.5052886E+02  0.7816164E-02  0.1300439E+00
        -11   -1    0    0    0    0  0.00000000000E+00  0.00000000000E+00  0.45593999997E+02  0.45594000000E+02  0.51100000000E-03 0. -1.
         11   -1    0    0    0    0 -0.00000000000E+00 -0.00000000000E+00 -0.45593999997E+02  0.45594000000E+02  0.51100000000E-03 0.  1.
    9900012    2    1    2    0    0  0.66847260710E+01  0.13047871645E+02  0.37924039220E+02  0.50528864890E+02  0.30000015320E+02 0.  0.
        -12    1    1    2    0    0 -0.66847260710E+01 -0.13047871645E+02 -0.37924039220E+02  0.40659135110E+02  0.00000000000E+00 0.  1.
         11    1    3    3    0    0  0.88541256319E+00 -0.49678275278E+01  0.38083256512E+01  0.63219150801E+01  0.51100000000E-03 0. -1.
        -11    1    3    3    0    0  0.48175966714E+01 -0.18889722023E+01  0.59399162622E+00  0.52086735339E+01  0.51100000000E-03 0.  1.
         12    1    3    3    0    0  0.98171683643E+00  0.19904671375E+02  0.33521721943E+02  0.38998276276E+02  0.00000000000E+00 0. -1.
</event>
<event>
 7    1  0.2817603E-011  0.5052891E+02  0.7816164E-02  0.1300439E+00
        -11   -1    0    0    0    0  0.00000000000E+00  0.00000000000E+00  0.45593999997E+02  0.45594000000E+02  0.51100000000E-03 0. -1.
         11   -1    0    0    0    0 -0.00000000000E+00 -0.00000000000E+00 -0.45593999997E+02  0.45594000000E+02  0.51100000000E-03 0.  1.
    9900012    2    1    2    0    0  0.18104948559E+02  0.34674180036E+02  0.11093867006E+02  0.50528907430E+02  0.30000144622E+02 0.  0.
        -12    1    1    2    0    0 -0.18104948559E+02 -0.34674180036E+02 -0.11093867006E+02  0.40659092570E+02  0.00000000000E+00 0.  1.
         11    1    3    3    0    0 -0.27142377091E+01  0.48173609543E+01  0.13197077372E+01  0.56846883537E+01  0.51100000000E-03 0. -1.
        -11    1    3    3    0    0  0.29689861038E+01  0.23591604059E+02  0.10315063116E+02  0.25918703438E+02  0.51100000000E-03 0.  1.
         12    1    3    3    0    0  0.17850200164E+02  0.62652150226E+01 -0.54090384693E+00  0.18925515637E+02  0.00000000000E+00 0. -1.
</event>
<event>
 7    1  0.2817603E-011  0.5052886E+02  0.7816164E-02  0.1300439E+00
        -11   -1    0    0    0    0  0.00000000000E+00  0.00000000000E+00  0.45593999997E+02  0.45594000000E+02  0.51100000000E-03 0. -1.
         11   -1    0    0    0    0 -0.00000000000E+00 -0.00000000000E+00 -0.45593999997E+02  0.45594000000E+02  0.51100000000E-03 0.  1.
    9900012    2    1    2    0    0  0.35811469983E+02 -0.18988989679E+02 -0.31815842892E+01  0.50528860930E+02  0.30000003281E+02 0.  0.
        -12    1    1    2    0    0 -0.35811469983E+02  0.18988989679E+02  0.31815842892E+01  0.40659139070E+02  0.00000000000E+00 0.  1.
         11    1    3    3    0    0  0.25118949588E+02 -0.33280222272E+01 -0.52445438107E+01  0.25875521259E+02  0.51100000000E-03 0. -1.
        -11    1    3    3    0    0  0.13882951940E+02 -0.78000014539E+01  0.26765361173E+01  0.16147452527E+02  0.51100000000E-03 0.  1.
        -12    1    3    3    0    0 -0.31904315457E+01 -0.78609659979E+01 -0.61357659586E+00  0.85058871441E+01  0.00000000000E+00 0.  1.
</event>
<event>
 7    1  0.2817603E-011  0.5052887E+02  0.7816164E-02  0.1300439E+00
        -11   -1    0    0    0    0  0.00000000000E+00  0.00000000000E+00  0.45593999997E+02  0.45594000000E+02  0.51100000000E-03 0.  1.
         11   -1    0    0    0    0 -0.00000000000E+00 -0.00000000000E+00 -0.45593999997E+02  0.45594000000E+02  0.51100000000E-03 0. -1.
    9900012    2    1    2    0    0  0.36135304525E+02 -0.17132104136E+02 -0.73413726164E+01  0.50528868466E+02  0.30000026188E+02 0.  0.
        -12    1    1    2    0    0 -0.36135304525E+02  0.17132104136E+02  0.73413726164E+01  0.40659131534E+02  0.00000000000E+00 0.  1.
         11    1    3    3    0    0  0.20100639246E+02 -0.36440318169E+01 -0.61539012258E+01  0.21335068937E+02  0.51100000000E-03 0. -1.
        -11    1    3    3    0    0  0.72363732308E+01 -0.12543471582E+02 -0.92824860995E+01  0.17200823391E+02  0.51100000000E-03 0.  1.
         12    1    3    3    0    0  0.87982920475E+01 -0.94460073731E+00  0.80950147089E+01  0.11992976138E+02  0.00000000000E+00 0. -1.
</event>
<event>
 7    1  0.2817603E-011  0.5052886E+02  0.7816164E-02  0.1300439E+00
        -11   -1    0    0    0    0  0.00000000000E+00  0.00000000000E+00  0.45593999997E+02  0.45594000000E+02  0.51100000000E-03 0.  1.
         11   -1    0    0    0    0 -0.00000000000E+00 -0.00000000000E+00 -0.45593999997E+02  0.45594000000E+02  0.51100000000E-03 0. -1.
    9900012    2    1    2    0    0 -0.23258235877E+02 -0.15966316212E+02 -0.29279635609E+02  0.50528857720E+02  0.29999993527E+02 0.  0.
        -12    1    1    2    0    0  0.23258235877E+02  0.15966316212E+02  0.29279635609E+02  0.40659142280E+02  0.00000000000E+00 0.  1.
         11    1    3    3    0    0 -0.74530236290E+01 -0.61539425247E+00  0.48247115414E+00  0.74939342121E+01  0.51100000000E-03 0. -1.
        -11    1    3    3    0    0  0.19113757833E+01 -0.26092379937E+01  0.24981615936E+01  0.40868437579E+01  0.51100000000E-03 0.  1.
         12    1    3    3    0    0 -0.17716588031E+02 -0.12741683966E+02 -0.32260268357E+02  0.38948079750E+02  0.00000000000E+00 0. -1.
</event>
<event>
 7    1  0.2817603E-011  0.5052887E+02  0.7816164E-02  0.1300439E+00
        -11   -1    0    0    0    0  0.00000000000E+00  0.00000000000E+00  0.45593999997E+02  0.45594000000E+02  0.51100000000E-03 0.  1.
         11   -1    0    0    0    0 -0.00000000000E+00 -0.00000000000E+00 -0.45593999997E+02  0.45594000000E+02  0.51100000000E-03 0. -1.
    9900012    2    1    2    0    0  0.39221371727E+02  0.10634704107E+02  0.13237125666E+01  0.50528866382E+02  0.30000019854E+02 0.  0.
        -12    1    1    2    0    0 -0.39221371727E+02 -0.10634704107E+02 -0.13237125666E+01  0.40659133618E+02  0.00000000000E+00 0.  1.
         11    1    3    3    0    0  0.14732934014E+02  0.79168249972E+01  0.87766098638E+01  0.18888206470E+02  0.51100000000E-03 0. -1.
        -11    1    3    3    0    0  0.19000623996E+02  0.28904572773E+01  0.33627471415E+01  0.19511189715E+02  0.51100000000E-03 0.  1.
         12    1    3    3    0    0  0.54878137173E+01 -0.17257816744E+00 -0.10815644439E+02  0.12129470196E+02  0.00000000000E+00 0. -1.
</event>
<event>
 7    1  0.2817603E-011  0.5052886E+02  0.7816164E-02  0.1300439E+00
        -11   -1    0    0    0    0  0.00000000000E+00  0.00000000000E+00  0.45593999997E+02  0.45594000000E+02  0.51100000000E-03 0. -1.
         11   -1    0    0    0    0 -0.00000000000E+00 -0.00000000000E+00 -0.45593999997E+02  0.45594000000E+02  0.51100000000E-03 0.  1.
    9900012    2    1    2    0    0 -0.37414283565E+02 -0.92194599812E+00  0.15889834846E+02  0.50528862644E+02  0.30000008492E+02 0.  0.
        -12    1    1    2    0    0  0.37414283565E+02  0.92194599812E+00 -0.15889834846E+02  0.40659137356E+02  0.00000000000E+00 0.  1.
         11    1    3    3    0    0 -0.93883200387E+01 -0.38716724269E+01  0.10322365708E+02  0.14480387930E+02  0.51100000000E-03 0. -1.
        -11    1    3    3    0    0 -0.21879788838E+02 -0.69808784869E+01 -0.32217251943E+00  0.22968709573E+02  0.51100000000E-03 0.  1.
         12    1    3    3    0    0 -0.61461746887E+01  0.99306049156E+01  0.58896416572E+01  0.13079765141E+02  0.00000000000E+00 0. -1.
</event>
<event>
 7    1  0.2817603E-011  0.5052885E+02  0.7816164E-02  0.1300439E+00
        -11   -1    0    0    0    0  0.00000000000E+00  0.00000000000E+00  0.45593999997E+02  0.45594000000E+02  0.51100000000E-03 0.  1.
         11   -1    0    0    0    0 -0.00000000000E+00 -0.00000000000E+00 -0.45593999997E+02  0.45594000000E+02  0.51100000000E-03 0. -1.
    9900012    2    1    2    0    0  0.49572906201E+01  0.10815643017E+02 -0.38879476300E+02  0.50528849228E+02  0.29999967713E+02 0.  0.
        -12    1    1    2    0    0 -0.49572906201E+01 -0.10815643017E+02  0.38879476300E+02  0.40659150772E+02  0.00000000000E+00 0.  1.
         11    1    3    3    0    0 -0.60988363260E+01  0.59419011855E+01 -0.19261890232E+01  0.87299598306E+01  0.51100000000E-03 0. -1.
        -11    1    3    3    0    0 -0.37579292731E+01  0.86262751667E+00 -0.10891849067E+02  0.11554156612E+02  0.51100000000E-03 0.  1.
        -12    1    3    3    0    0  0.14814056219E+02  0.40111143143E+01 -0.26061438210E+02  0.30244732786E+02  0.00000000000E+00 0.  1.
</event>
<event>
 7    1  0.2817603E-011  0.5052885E+02  0.7816164E-02  0.1300439E+00
        -11   -1    0    0    0    0  0.00000000000E+00  0.00000000000E+00  0.45593999997E+02  0.45594000000E+02  0.51100000000E-03 0. -1.
         11   -1    0    0    0    0 -0.00000000000E+00 -0.00000000000E+00 -0.45593999997E+02  0.45594000000E+02  0.51100000000E-03 0.  1.
    9900012    2    1    2    0    0 -0.28842053378E+00  0.39412213390E+02  0.99880147310E+01  0.50528853563E+02  0.29999980891E+02 0.  0.
        -12    1    1    2    0    0  0.28842053378E+00 -0.39412213390E+02 -0.99880147310E+01  0.40659146437E+02  0.00000000000E+00 0.  1.
         11    1    3    3    0    0 -0.85353182249E+00  0.30674278951E+02  0.29377851251E+01  0.30826457589E+02  0.51100000000E-03 0. -1.
        -11    1    3    3    0    0  0.19722386470E+01  0.86945672084E+01  0.11776667881E+02  0.14770752549E+02  0.51100000000E-03 0.  1.
        -12    1    3    3    0    0 -0.14071273583E+01  0.43367230154E-01 -0.47264382747E+01  0.49316434262E+01  0.00000000000E+00 0.  1.
</event>
<event>
 7    1  0.2817603E-011  0.5052886E+02  0.7816164E-02  0.1300439E+00
        -11   -1    0    0    0    0  0.00000000000E+00  0.00000000000E+00  0.45593999997E+02  0.45594000000E+02  0.51100000000E-03 0.  1.
         11   -1    0    0    0    0 -0.00000000000E+00 -0.00000000000E+00 -0.45593999997E+02  0.45594000000E+02  0.51100000000E-03 0. -1.
    9900012    2    1    2    0    0  0.15585045526E+02  0.29731916578E+02  0.22940905964E+02  0.50528859897E+02  0.30000000143E+02 0.  0.
        -12    1    1    2    0    0 -0.15585045526E+02 -0.29731916578E+02 -0.22940905964E+02  0.40659140103E+02  0.00000000000E+00 0.  1.
         11    1    3    3    0    0 -0.37165143137E+01  0.68365883217E+01  0.11036724736E+02  0.13504099810E+02  0.51100000000E-03 0. -1.
        -11    1    3    3    0    0  0.13803997080E+01  0.76919702771E+01  0.11016328339E+02  0.13506716863E+02  0.51100000000E-03 0.  1.
         12    1    3    3    0    0  0.17921160132E+02  0.15203357979E+02  0.88785288915E+00  0.23518043224E+02  0.00000000000E+00 0. -1.
</event>
<event>
 7    1  0.2817603E-011  0.5052887E+02  0.7816164E-02  0.1300439E+00
        -11   -1    0    0    0    0  0.00000000000E+00  0.00000000000E+00  0.45593999997E+02  0.45594000000E+02  0.51100000000E-03 0.  1.
         11   -1    0    0    0    0 -0.00000000000E+00 -0.00000000000E+00 -0.45593999997E+02  0.45594000000E+02  0.51100000000E-03 0. -1.
    9900012    2    1    2    0    0 -0.49140250677E+01  0.26503225164E+02 -0.30440048876E+02  0.50528866192E+02  0.30000019276E+02 0.  0.
        -12    1    1    2    0    0  0.49140250677E+01 -0.26503225164E+02  0.30440048876E+02  0.40659133808E+02  0.00000000000E+00 0.  1.
         11    1    3    3    0    0  0.14636569673E+01 -0.31356253626E+01 -0.22063889593E+01  0.41039725430E+01  0.51100000000E-03 0. -1.
        -11    1    3    3    0    0  0.63003328178E+01  0.23838187924E+01 -0.41957341243E+01  0.79360551128E+01  0.51100000000E-03 0.  1.
         12    1    3    3    0    0 -0.12678014853E+02  0.27255031734E+02 -0.24037925792E+02  0.38488838536E+02  0.00000000000E+00 0. -1.
</event>
<event>
 7    1  0.2817603E-011  0.5052886E+02  0.7816164E-02  0.1300439E+00
        -11   -1    0    0    0    0  0.00000000000E+00  0.00000000000E+00  0.45593999997E+02  0.45594000000E+02  0.51100000000E-03 0. -1.
         11   -1    0    0    0    0 -0.00000000000E+00 -0.00000000000E+00 -0.45593999997E+02  0.45594000000E+02  0.51100000000E-03 0.  1.
    9900012    2    1    2    0    0 -0.56329135554E+01 -0.35620357917E+02  0.18778343113E+02  0.50528858551E+02  0.29999996052E+02 0.  0.
        -12    1    1    2    0    0  0.56329135554E+01  0.35620357917E+02 -0.18778343113E+02  0.40659141449E+02  0.00000000000E+00 0.  1.
         11    1    3    3    0    0  0.55354155262E+01 -0.23123224531E+02  0.17933108504E+02  0.29781214190E+02  0.51100000000E-03 0. -1.
        -11    1    3    3    0    0  0.21780593783E+01  0.12719941889E+00  0.94144227269E+00  0.23762230875E+01  0.51100000000E-03 0.  1.
         12    1    3    3    0    0 -0.13346388460E+02 -0.12624332805E+02 -0.96207663507E-01  0.18371421273E+02  0.00000000000E+00 0. -1.
</event>
<event>
 7    1  0.2817603E-011  0.5052885E+02  0.7816164E-02  0.1300439E+00
        -11   -1    0    0    0    0  0.00000000000E+00  0.00000000000E+00  0.45593999997E+02  0.45594000000E+02  0.51100000000E-03 0. -1.
         11   -1    0    0    0    0 -0.00000000000E+00 -0.00000000000E+00 -0.45593999997E+02  0.45594000000E+02  0.51100000000E-03 0.  1.
    9900012    2    1    2    0    0  0.26345280520E+01  0.32957009342E+02  0.23665611930E+02  0.50528851080E+02  0.29999973344E+02 0.  0.
        -12    1    1    2    0    0 -0.26345280520E+01 -0.32957009342E+02 -0.23665611930E+02  0.40659148920E+02  0.00000000000E+00 0.  1.
         11    1    3    3    0    0  0.10453500662E+02  0.25371536763E+02  0.16672564394E+02  0.32108643035E+02  0.51100000000E-03 0. -1.
        -11    1    3    3    0    0  0.35681995622E+01  0.29497228990E+01  0.28967264064E+01  0.54611296845E+01  0.51100000000E-03 0.  1.
        -12    1    3    3    0    0 -0.11387172172E+02  0.46357496806E+01  0.40963211296E+01  0.12959078361E+02  0.00000000000E+00 0.  1.
</event>
<event>
 7    1  0.2817603E-011  0.5052886E+02  0.7816164E-02  0.1300439E+00
        -11   -1    0    0    0    0  0.00000000000E+00  0.00000000000E+00  0.45593999997E+02  0.45594000000E+02  0.51100000000E-03 0.  1.
         11   -1    0    0    0    0 -0.00000000000E+00 -0.00000000000E+00 -0.45593999997E+02  0.45594000000E+02  0.51100000000E-03 0. -1.
    9900012    2    1    2    0    0 -0.14302486391E+01  0.40605958525E+02  0.15086490849E+01  0.50528862024E+02  0.30000006608E+02 0.  0.
        -12    1    1    2    0    0  0.14302486391E+01 -0.40605958525E+02 -0.15086490849E+01  0.40659137976E+02  0.00000000000E+00 0.  1.
         11    1    3    3    0    0  0.39980517241E+01  0.22659571361E+02  0.15247025908E+01  0.23060037080E+02  0.51100000000E-03 0. -1.
        -11    1    3    3    0    0 -0.54228423183E+00  0.20651309513E+02  0.33791735785E+01  0.20932975688E+02  0.51100000000E-03 0.  1.
        -12    1    3    3    0    0 -0.48860161314E+01 -0.27049223495E+01 -0.33952270845E+01  0.65358492568E+01  0.00000000000E+00 0.  1.
</event>
<event>
 7    1  0.2817603E-011  0.5052883E+02  0.7816164E-02  0.1300439E+00
        -11   -1    0    0    0    0  0.00000000000E+00  0.00000000000E+00  0.45593999997E+02  0.45594000000E+02  0.51100000000E-03 0.  1.
         11   -1    0    0    0    0 -0.00000000000E+00 -0.00000000000E+00 -0.45593999997E+02  0.45594000000E+02  0.51100000000E-03 0. -1.
    9900012    2    1    2    0    0  0.19521610787E+02 -0.32313679934E+02 -0.15096393370E+02  0.50528827709E+02  0.29999902305E+02 0.  0.
        -12    1    1    2    0    0 -0.19521610787E+02  0.32313679934E+02  0.15096393370E+02  0.40659172291E+02  0.00000000000E+00 0.  1.
         11    1    3    3    0    0  0.53452573786E+01 -0.18213722398E+02 -0.14987061958E+02  0.24185191470E+02  0.51100000000E-03 0. -1.
        -11    1    3    3    0    0  0.60870086189E+01 -0.50397670431E+01 -0.84809092280E+01  0.11592098489E+02  0.51100000000E-03 0.  1.
        -12    1    3    3    0    0  0.80893447896E+01 -0.90601904924E+01  0.83715778161E+01  0.14751537751E+02  0.00000000000E+00 0.  1.
</event>
<event>
 7    1  0.2817603E-011  0.5052886E+02  0.7816164E-02  0.1300439E+00
        -11   -1    0    0    0    0  0.00000000000E+00  0.00000000000E+00  0.45593999997E+02  0.45594000000E+02  0.51100000000E-03 0.  1.
         11   -1    0    0    0    0 -0.00000000000E+00 -0.00000000000E+00 -0.45593999997E+02  0.45594000000E+02  0.51100000000E-03 0. -1.
    9900012    2    1    2    0    0 -0.26235460837E+02  0.12349456203E+02 -0.28501884165E+02  0.50528857427E+02  0.29999992635E+02 0.  0.
        -12    1    1    2    0    0  0.26235460837E+02 -0.12349456203E+02  0.28501884165E+02  0.40659142573E+02  0.00000000000E+00 0.  1.
         11    1    3    3    0    0 -0.64311622244E+01  0.57277360959E+01 -0.68887575714E+01  0.11028226942E+02  0.51100000000E-03 0. -1.
        -11    1    3    3    0    0 -0.25647340921E+02  0.82265674988E+01 -0.18606433546E+02  0.32736247169E+02  0.51100000000E-03 0.  1.
        -12    1    3    3    0    0  0.58430423085E+01 -0.16048473918E+01 -0.30066930468E+01  0.67643833161E+01  0.00000000000E+00 0.  1.
</event>
<event>
 7    1  0.2817603E-011  0.5052886E+02  0.7816164E-02  0.1300439E+00
        -11   -1    0    0    0    0  0.00000000000E+00  0.00000000000E+00  0.45593999997E+02  0.45594000000E+02  0.51100000000E-03 0.  1.
         11   -1    0    0    0    0 -0.00000000000E+00 -0.00000000000E+00 -0.45593999997E+02  0.45594000000E+02  0.51100000000E-03 0. -1.
    9900012    2    1    2    0    0  0.14307330374E+02 -0.37684343768E+02 -0.53250308906E+01  0.50528862999E+02  0.30000009572E+02 0.  0.
        -12    1    1    2    0    0 -0.14307330374E+02  0.37684343768E+02  0.53250308906E+01  0.40659137001E+02  0.00000000000E+00 0.  1.
         11    1    3    3    0    0  0.25843862576E+01  0.78288449075E+00  0.78613723389E+00  0.28124673271E+01  0.51100000000E-03 0. -1.
        -11    1    3    3    0    0  0.12418018306E+02 -0.80957461847E+01  0.45725474289E+01  0.15513106562E+02  0.51100000000E-03 0.  1.
         12    1    3    3    0    0 -0.69507418965E+00 -0.30371482074E+02 -0.10683715553E+02  0.32203289110E+02  0.00000000000E+00 0. -1.
</event>
<event>
 7    1  0.2817603E-011  0.5052886E+02  0.7816164E-02  0.1300439E+00
        -11   -1    0    0    0    0  0.00000000000E+00  0.00000000000E+00  0.45593999997E+02  0.45594000000E+02  0.51100000000E-03 0.  1.
         11   -1    0    0    0    0 -0.00000000000E+00 -0.00000000000E+00 -0.45593999997E+02  0.45594000000E+02  0.51100000000E-03 0. -1.
    9900012    2    1    2    0    0 -0.59332846333E+01 -0.47642133470E+01 -0.39940758904E+02  0.50528858135E+02  0.29999994787E+02 0.  0.
        -12    1    1    2    0    0  0.59332846333E+01  0.47642133470E+01  0.39940758904E+02  0.40659141865E+02  0.00000000000E+00 0.  1.
         11    1    3    3    0    0 -0.11939759573E+02  0.25176154185E+01 -0.31270624785E+02  0.33567070482E+02  0.51100000000E-03 0. -1.
        -11    1    3    3    0    0  0.27436077333E+01 -0.77732406059E+01 -0.10372282967E+02  0.13248958718E+02  0.51100000000E-03 0.  1.
        -12    1    3    3    0    0  0.32628672060E+01  0.49141184047E+00  0.17021488475E+01  0.37128289349E+01  0.00000000000E+00 0.  1.
</event>
<event>
 7    1  0.2817603E-011  0.5052887E+02  0.7816164E-02  0.1300439E+00
        -11   -1    0    0    0    0  0.00000000000E+00  0.00000000000E+00  0.45593999997E+02  0.45594000000E+02  0.51100000000E-03 0.  1.
         11   -1    0    0    0    0 -0.00000000000E+00 -0.00000000000E+00 -0.45593999997E+02  0.45594000000E+02  0.51100000000E-03 0. -1.
    9900012    2    1    2    0    0 -0.31632708715E+02  0.21454296243E+02 -0.13865423304E+02  0.50528867553E+02  0.30000023413E+02 0.  0.
        -12    1    1    2    0    0  0.31632708715E+02 -0.21454296243E+02  0.13865423304E+02  0.40659132447E+02  0.00000000000E+00 0.  1.
         11    1    3    3    0    0 -0.10314824437E+02  0.98266865691E+01  0.75003647922E+00  0.14266111141E+02  0.51100000000E-03 0. -1.
        -11    1    3    3    0    0 -0.18808546875E+01  0.12846271238E+02 -0.22042850331E+01  0.13169023192E+02  0.51100000000E-03 0.  1.
         12    1    3    3    0    0 -0.19437029591E+02 -0.12186615638E+01 -0.12411174751E+02  0.23093733220E+02  0.00000000000E+00 0. -1.
</event>
<event>
 7    1  0.2817603E-011  0.5052886E+02  0.7816164E-02  0.1300439E+00
        -11   -1    0    0    0    0  0.00000000000E+00  0.00000000000E+00  0.45593999997E+02  0.45594000000E+02  0.51100000000E-03 0.  1.
         11   -1    0    0    0    0 -0.00000000000E+00 -0.00000000000E+00 -0.45593999997E+02  0.45594000000E+02  0.51100000000E-03 0. -1.
    9900012    2    1    2    0    0 -0.20186122370E+02 -0.47457258171E+01 -0.34973769961E+02  0.50528855455E+02  0.29999986641E+02 0.  0.
        -12    1    1    2    0    0  0.20186122370E+02  0.47457258171E+01  0.34973769961E+02  0.40659144545E+02  0.00000000000E+00 0.  1.
         11    1    3    3    0    0 -0.10165304653E+02  0.80755042225E+01 -0.18693586137E+02  0.22759555138E+02  0.51100000000E-03 0. -1.
        -11    1    3    3    0    0 -0.69004138290E+01  0.19516501841E+00 -0.11769344537E+02  0.13644459370E+02  0.51100000000E-03 0.  1.
        -12    1    3    3    0    0 -0.31204038877E+01 -0.13016395058E+02 -0.45108392865E+01  0.14124840948E+02  0.00000000000E+00 0.  1.
</event>
<event>
 7    1  0.2817603E-011  0.5052884E+02  0.7816164E-02  0.1300439E+00
        -11   -1    0    0    0    0  0.00000000000E+00  0.00000000000E+00  0.45593999997E+02  0.45594000000E+02  0.51100000000E-03 0.  1.
         11   -1    0    0    0    0 -0.00000000000E+00 -0.00000000000E+00 -0.45593999997E+02  0.45594000000E+02  0.51100000000E-03 0. -1.
    9900012    2    1    2    0    0  0.15990937593E+02  0.13418703724E+02 -0.34891194291E+02  0.50528841944E+02  0.29999945574E+02 0.  0.
        -12    1    1    2    0    0 -0.15990937593E+02 -0.13418703724E+02  0.34891194291E+02  0.40659158056E+02  0.00000000000E+00 0.  1.
         11    1    3    3    0    0  0.38842058568E+01  0.12869429018E+02 -0.17080722650E+02  0.21736152946E+02  0.51100000000E-03 0. -1.
        -11    1    3    3    0    0  0.15805394980E+02  0.44619988241E+01 -0.16437950399E+02  0.23236311187E+02  0.51100000000E-03 0.  1.
         12    1    3    3    0    0 -0.36986632443E+01 -0.39127241185E+01 -0.13725212420E+01  0.55563778113E+01  0.00000000000E+00 0. -1.
</event>
<event>
 7    1  0.2817603E-011  0.5052878E+02  0.7816164E-02  0.1300439E+00
        -11   -1    0    0    0    0  0.00000000000E+00  0.00000000000E+00  0.45593999997E+02  0.45594000000E+02  0.51100000000E-03 0.  1.
         11   -1    0    0    0    0 -0.00000000000E+00 -0.00000000000E+00 -0.45593999997E+02  0.45594000000E+02  0.51100000000E-03 0. -1.
    9900012    2    1    2    0    0  0.36584891370E+02  0.17585150222E+02 -0.23410661922E+01  0.50528777482E+02  0.29999749632E+02 0.  0.
        -12    1    1    2    0    0 -0.36584891370E+02 -0.17585150222E+02  0.23410661922E+01  0.40659222518E+02  0.00000000000E+00 0.  1.
         11    1    3    3    0    0  0.18246996176E+02  0.22019011135E+01 -0.14128141575E+01  0.18433591133E+02  0.51100000000E-03 0. -1.
        -11    1    3    3    0    0  0.12826539929E+02 -0.24039503966E+01  0.21352209274E+01  0.13223398683E+02  0.51100000000E-03 0.  1.
         12    1    3    3    0    0  0.55113552649E+01  0.17787199505E+02 -0.30634729621E+01  0.18871787665E+02  0.00000000000E+00 0. -1.
</event>
<event>
 7    1  0.2817603E-011  0.5052886E+02  0.7816164E-02  0.1300439E+00
        -11   -1    0    0    0    0  0.00000000000E+00  0.00000000000E+00  0.45593999997E+02  0.45594000000E+02  0.51100000000E-03 0.  1.
         11   -1    0    0    0    0 -0.00000000000E+00 -0.00000000000E+00 -0.45593999997E+02  0.45594000000E+02  0.51100000000E-03 0. -1.
    9900012    2    1    2    0    0  0.54367385001E+01 -0.10628481679E+02 -0.38866994499E+02  0.50528855767E+02  0.29999987590E+02 0.  0.
        -12    1    1    2    0    0 -0.54367385001E+01  0.10628481679E+02  0.38866994499E+02  0.40659144233E+02  0.00000000000E+00 0.  1.
         11    1    3    3    0    0 -0.46797810543E+01  0.40830900595E+01 -0.20074125801E+02  0.21012912746E+02  0.51100000000E-03 0. -1.
        -11    1    3    3    0    0  0.48199426235E+01 -0.78593566387E+01 -0.18706269744E+02  0.20854876208E+02  0.51100000000E-03 0.  1.
        -12    1    3    3    0    0  0.52965769309E+01 -0.68522150998E+01 -0.86598954625E-01  0.86610668129E+01  0.00000000000E+00 0.  1.
</event>
<event>
 7    1  0.2817603E-011  0.5052887E+02  0.7816164E-02  0.1300439E+00
        -11   -1    0    0    0    0  0.00000000000E+00  0.00000000000E+00  0.45593999997E+02  0.45594000000E+02  0.51100000000E-03 0. -1.
         11   -1    0    0    0    0 -0.00000000000E+00 -0.00000000000E+00 -0.45593999997E+02  0.45594000000E+02  0.51100000000E-03 0.  1.
    9900012    2    1    2    0    0  0.32949398314E+02  0.17509117245E+02  0.16153425651E+02  0.50528865772E+02  0.30000018000E+02 0.  0.
        -12    1    1    2    0    0 -0.32949398314E+02 -0.17509117245E+02 -0.16153425651E+02  0.40659134228E+02  0.00000000000E+00 0.  1.
         11    1    3    3    0    0  0.69398065640E+01 -0.89711786489E-02 -0.25727143944E+01  0.74013414489E+01  0.51100000000E-03 0. -1.
        -11    1    3    3    0    0  0.56468154267E+01  0.17358178704E+02  0.11211935708E+02  0.21421960577E+02  0.51100000000E-03 0.  1.
         12    1    3    3    0    0  0.20362776323E+02  0.15990971900E+00  0.75142043372E+01  0.21705563746E+02  0.00000000000E+00 0. -1.
</event>
<event>
 7    1  0.2817603E-011  0.5052886E+02  0.7816164E-02  0.1300439E+00
        -11   -1    0    0    0    0  0.00000000000E+00  0.00000000000E+00  0.45593999997E+02  0.45594000000E+02  0.51100000000E-03 0.  1.
         11   -1    0    0    0    0 -0.00000000000E+00 -0.00000000000E+00 -0.45593999997E+02  0.45594000000E+02  0.51100000000E-03 0. -1.
    9900012    2    1    2    0    0  0.57370367490E+01 -0.35667071177E+02 -0.18657754959E+02  0.50528863547E+02  0.30000011238E+02 0.  0.
        -12    1    1    2    0    0 -0.57370367490E+01  0.35667071177E+02  0.18657754959E+02  0.40659136453E+02  0.00000000000E+00 0.  1.
         11    1    3    3    0    0  0.85930203980E+01 -0.29458560635E+02 -0.11449371228E+02  0.32752631895E+02  0.51100000000E-03 0. -1.
        -11    1    3    3    0    0  0.55572095642E+01  0.50611284444E-01 -0.11818860159E+01  0.56817246025E+01  0.51100000000E-03 0.  1.
         12    1    3    3    0    0 -0.84131932132E+01 -0.62591218259E+01 -0.60264977151E+01  0.12094507050E+02  0.00000000000E+00 0. -1.
</event>
<event>
 7    1  0.2817603E-011  0.5052887E+02  0.7816164E-02  0.1300439E+00
        -11   -1    0    0    0    0  0.00000000000E+00  0.00000000000E+00  0.45593999997E+02  0.45594000000E+02  0.51100000000E-03 0.  1.
         11   -1    0    0    0    0 -0.00000000000E+00 -0.00000000000E+00 -0.45593999997E+02  0.45594000000E+02  0.51100000000E-03 0. -1.
    9900012    2    1    2    0    0  0.12476671621E+02 -0.38673106759E+02 -0.13742775230E+01  0.50528866218E+02  0.30000019357E+02 0.  0.
        -12    1    1    2    0    0 -0.12476671621E+02  0.38673106759E+02  0.13742775230E+01  0.40659133782E+02  0.00000000000E+00 0.  1.
         11    1    3    3    0    0  0.10571168497E+02 -0.56212644941E+01  0.27108585471E+01  0.12275869510E+02  0.51100000000E-03 0. -1.
        -11    1    3    3    0    0  0.66366385039E+01 -0.28937506128E+01  0.98868093986E+00  0.73072740132E+01  0.51100000000E-03 0.  1.
         12    1    3    3    0    0 -0.47311353792E+01 -0.30158091652E+02 -0.50738170100E+01  0.30945722695E+02  0.00000000000E+00 0. -1.
</event>
<event>
 7    1  0.2817603E-011  0.5052890E+02  0.7816164E-02  0.1300439E+00
        -11   -1    0    0    0    0  0.00000000000E+00  0.00000000000E+00  0.45593999997E+02  0.45594000000E+02  0.51100000000E-03 0. -1.
         11   -1    0    0    0    0 -0.00000000000E+00 -0.00000000000E+00 -0.45593999997E+02  0.45594000000E+02  0.51100000000E-03 0.  1.
    9900012    2    1    2    0    0  0.19083078695E+02 -0.34873176106E+02 -0.85358176148E+01  0.50528899093E+02  0.30000119282E+02 0.  0.
        -12    1    1    2    0    0 -0.19083078695E+02  0.34873176106E+02  0.85358176148E+01  0.40659100907E+02  0.00000000000E+00 0.  1.
         11    1    3    3    0    0  0.26342217788E+01 -0.16161782871E+02 -0.66697078334E+01  0.17681271244E+02  0.51100000000E-03 0.  1.
        -11    1    3    3    0    0 -0.44626314205E+01 -0.63471466083E+01 -0.34739729822E+01  0.85011668496E+01  0.51100000000E-03 0. -1.
         12    1    3    3    0    0  0.20911488337E+02 -0.12364246627E+02  0.16078632008E+01  0.24346460999E+02  0.00000000000E+00 0. -1.
</event>
<event>
 7    1  0.2817603E-011  0.5052886E+02  0.7816164E-02  0.1300439E+00
        -11   -1    0    0    0    0  0.00000000000E+00  0.00000000000E+00  0.45593999997E+02  0.45594000000E+02  0.51100000000E-03 0. -1.
         11   -1    0    0    0    0 -0.00000000000E+00 -0.00000000000E+00 -0.45593999997E+02  0.45594000000E+02  0.51100000000E-03 0.  1.
    9900012    2    1    2    0    0 -0.20396231982E+02 -0.33475284282E+02 -0.10796501549E+02  0.50528863481E+02  0.30000011037E+02 0.  0.
        -12    1    1    2    0    0  0.20396231982E+02  0.33475284282E+02  0.10796501549E+02  0.40659136519E+02  0.00000000000E+00 0.  1.
         11    1    3    3    0    0 -0.20051245046E+02 -0.13284916550E+02 -0.57310757590E+01  0.24726234352E+02  0.51100000000E-03 0. -1.
        -11    1    3    3    0    0 -0.43100947757E+01 -0.17647180748E+01 -0.51652292154E+01  0.69549076175E+01  0.51100000000E-03 0.  1.
        -12    1    3    3    0    0  0.39651078397E+01 -0.18425649657E+02  0.99803425894E-01  0.18847721511E+02  0.00000000000E+00 0.  1.
</event>
<event>
 7    1  0.2817603E-011  0.5052889E+02  0.7816164E-02  0.1300439E+00
        -11   -1    0    0    0    0  0.00000000000E+00  0.00000000000E+00  0.45593999997E+02  0.45594000000E+02  0.51100000000E-03 0.  1.
         11   -1    0    0    0    0 -0.00000000000E+00 -0.00000000000E+00 -0.45593999997E+02  0.45594000000E+02  0.51100000000E-03 0. -1.
    9900012    2    1    2    0    0  0.37132794595E+02 -0.94606328914E+01 -0.13594679627E+02  0.50528888804E+02  0.30000088007E+02 0.  0.
        -12    1    1    2    0    0 -0.37132794595E+02  0.94606328914E+01  0.13594679627E+02  0.40659111196E+02  0.00000000000E+00 0.  1.
         11    1    3    3    0    0 -0.20004482561E+01 -0.18033210674E+01 -0.97196931900E+00  0.28632996203E+01  0.51100000000E-03 0. -1.
        -11    1    3    3    0    0  0.27467668224E+02 -0.69959395957E+01  0.26136216593E+01  0.28464837729E+02  0.51100000000E-03 0.  1.
         12    1    3    3    0    0  0.11665574627E+02 -0.66137222831E+00 -0.15236331967E+02  0.19200751454E+02  0.00000000000E+00 0. -1.
</event>
<event>
 7    1  0.2892810E-011  0.5052886E+02  0.7816164E-02  0.1300439E+00
        -11   -1    0    0    0    0  0.00000000000E+00  0.00000000000E+00  0.45593999997E+02  0.45594000000E+02  0.51100000000E-03 0. -1.
         11   -1    0    0    0    0 -0.00000000000E+00 -0.00000000000E+00 -0.45593999997E+02  0.45594000000E+02  0.51100000000E-03 0.  1.
    9900012    2    1    2    0    0  0.36248766666E+02 -0.95829372061E+01  0.15727680584E+02  0.50528859491E+02  0.29999998910E+02 0.  0.
        -12    1    1    2    0    0 -0.36248766666E+02  0.95829372061E+01 -0.15727680584E+02  0.40659140509E+02  0.00000000000E+00 0.  1.
         11    1    3    3    0    0  0.26089358415E+02 -0.28265546431E+01  0.10992457484E+02  0.28451329591E+02  0.51100000000E-03 0. -1.
        -11    1    3    3    0    0  0.12448569066E+02 -0.11067417274E+02  0.32080207218E+01  0.16963077377E+02  0.51100000000E-03 0.  1.
        -12    1    3    3    0    0 -0.22891608143E+01  0.43110347109E+01  0.15272023779E+01  0.51144525235E+01  0.00000000000E+00 0.  1.
</event>
<event>
 7    1  0.2817603E-011  0.5052886E+02  0.7816164E-02  0.1300439E+00
        -11   -1    0    0    0    0  0.00000000000E+00  0.00000000000E+00  0.45593999997E+02  0.45594000000E+02  0.51100000000E-03 0. -1.
         11   -1    0    0    0    0 -0.00000000000E+00 -0.00000000000E+00 -0.45593999997E+02  0.45594000000E+02  0.51100000000E-03 0.  1.
    9900012    2    1    2    0    0  0.28439847038E+02  0.65364709036E+01  0.28312807932E+02  0.50528862719E+02  0.30000008721E+02 0.  0.
        -12    1    1    2    0    0 -0.28439847038E+02 -0.65364709036E+01 -0.28312807932E+02  0.40659137281E+02  0.00000000000E+00 0.  1.
         11    1    3    3    0    0  0.77052466716E+01 -0.15294082995E+01  0.92715256580E+01  0.12152000013E+02  0.51100000000E-03 0. -1.
        -11    1    3    3    0    0  0.26227819165E+02  0.79426525584E+01  0.17993133580E+02  0.32783182946E+02  0.51100000000E-03 0.  1.
        -12    1    3    3    0    0 -0.54932187985E+01  0.12322664468E+00  0.10481486946E+01  0.55936797603E+01  0.00000000000E+00 0.  1.
</event>
<event>
 7    1  0.2817603E-011  0.5052886E+02  0.7816164E-02  0.1300439E+00
        -11   -1    0    0    0    0  0.00000000000E+00  0.00000000000E+00  0.45593999997E+02  0.45594000000E+02  0.51100000000E-03 0. -1.
         11   -1    0    0    0    0 -0.00000000000E+00 -0.00000000000E+00 -0.45593999997E+02  0.45594000000E+02  0.51100000000E-03 0.  1.
    9900012    2    1    2    0    0 -0.25768292013E+01  0.30129772142E+02  0.27179449115E+02  0.50528859918E+02  0.30000000205E+02 0.  0.
        -12    1    1    2    0    0  0.25768292013E+01 -0.30129772142E+02 -0.27179449115E+02  0.40659140082E+02  0.00000000000E+00 0.  1.
         11    1    3    3    0    0 -0.72850904284E+00  0.29368776227E+01  0.13668402360E+02  0.13999328517E+02  0.51100000000E-03 0. -1.
        -11    1    3    3    0    0  0.30033464103E+01 -0.90673217993E-01  0.76306323079E+01  0.82009061068E+01  0.51100000000E-03 0.  1.
         12    1    3    3    0    0 -0.48516665688E+01  0.27283567737E+02  0.58804144471E+01  0.28328625294E+02  0.00000000000E+00 0. -1.
</event>
<event>
 7    1  0.3130151E-011  0.5052885E+02  0.7816164E-02  0.1300439E+00
        -11   -1    0    0    0    0  0.00000000000E+00  0.00000000000E+00  0.45593999997E+02  0.45594000000E+02  0.51100000000E-03 0. -1.
         11   -1    0    0    0    0 -0.00000000000E+00 -0.00000000000E+00 -0.45593999997E+02  0.45594000000E+02  0.51100000000E-03 0.  1.
    9900012    2    1    2    0    0 -0.15116211327E+02  0.12903338089E+02  0.35470700712E+02  0.50528848660E+02  0.29999965986E+02 0.  0.
        -12    1    1    2    0    0  0.15116211327E+02 -0.12903338089E+02 -0.35470700712E+02  0.40659151340E+02  0.00000000000E+00 0.  1.
         11    1    3    3    0    0  0.34143841838E+01  0.29614187615E+01  0.14544094200E+02  0.15230190307E+02  0.51100000000E-03 0. -1.
        -11    1    3    3    0    0  0.32183620609E+01  0.31957082378E+01  0.25263041364E+00  0.45424913740E+01  0.51100000000E-03 0.  1.
         12    1    3    3    0    0 -0.21748957571E+02  0.67462110902E+01  0.20673976099E+02  0.30756166979E+02  0.00000000000E+00 0. -1.
</event>
<event>
 7    1  0.2817603E-011  0.5052886E+02  0.7816164E-02  0.1300439E+00
        -11   -1    0    0    0    0  0.00000000000E+00  0.00000000000E+00  0.45593999997E+02  0.45594000000E+02  0.51100000000E-03 0. -1.
         11   -1    0    0    0    0 -0.00000000000E+00 -0.00000000000E+00 -0.45593999997E+02  0.45594000000E+02  0.51100000000E-03 0.  1.
    9900012    2    1    2    0    0 -0.34242177824E+02 -0.18860712389E+01  0.21842200459E+02  0.50528859235E+02  0.29999998131E+02 0.  0.
        -12    1    1    2    0    0  0.34242177824E+02  0.18860712389E+01 -0.21842200459E+02  0.40659140765E+02  0.00000000000E+00 0.  1.
         11    1    3    3    0    0 -0.87723748885E+01  0.11208900858E+01  0.28974791506E+01  0.93062528150E+01  0.51100000000E-03 0. -1.
        -11    1    3    3    0    0 -0.74604296152E+01  0.96611010008E+01  0.14151250977E+02  0.18688306158E+02  0.51100000000E-03 0.  1.
         12    1    3    3    0    0 -0.18009373320E+02 -0.12668062326E+02  0.47934703313E+01  0.22534300262E+02  0.00000000000E+00 0. -1.
</event>
<event>
 7    1  0.2817603E-011  0.5052886E+02  0.7816164E-02  0.1300439E+00
        -11   -1    0    0    0    0  0.00000000000E+00  0.00000000000E+00  0.45593999997E+02  0.45594000000E+02  0.51100000000E-03 0. -1.
         11   -1    0    0    0    0 -0.00000000000E+00 -0.00000000000E+00 -0.45593999997E+02  0.45594000000E+02  0.51100000000E-03 0.  1.
    9900012    2    1    2    0    0 -0.23937264402E+02 -0.31723598479E+02 -0.85898987220E+01  0.50528859729E+02  0.29999999632E+02 0.  0.
        -12    1    1    2    0    0  0.23937264402E+02  0.31723598479E+02  0.85898987220E+01  0.40659140271E+02  0.00000000000E+00 0.  1.
         11    1    3    3    0    0  0.63568835269E+00 -0.57878620416E+01  0.57541008951E+01  0.81861544126E+01  0.51100000000E-03 0.  1.
        -11    1    3    3    0    0 -0.40937233627E+01 -0.30321631826E+01  0.40721997957E+01  0.65219165874E+01  0.51100000000E-03 0. -1.
        -12    1    3    3    0    0 -0.20479229392E+02 -0.22903573255E+02 -0.18416199413E+02  0.35820788729E+02  0.00000000000E+00 0.  1.
</event>
<event>
 7    1  0.2817603E-011  0.5052886E+02  0.7816164E-02  0.1300439E+00
        -11   -1    0    0    0    0  0.00000000000E+00  0.00000000000E+00  0.45593999997E+02  0.45594000000E+02  0.51100000000E-03 0.  1.
         11   -1    0    0    0    0 -0.00000000000E+00 -0.00000000000E+00 -0.45593999997E+02  0.45594000000E+02  0.51100000000E-03 0. -1.
    9900012    2    1    2    0    0  0.88348158083E+01  0.31656713624E+02 -0.23936674388E+02  0.50528857503E+02  0.29999992865E+02 0.  0.
        -12    1    1    2    0    0 -0.88348158083E+01 -0.31656713624E+02  0.23936674388E+02  0.40659142497E+02  0.00000000000E+00 0.  1.
         11    1    3    3    0    0 -0.16634467778E+01 -0.12950926875E+01 -0.14622933225E+01  0.25656621512E+01  0.51100000000E-03 0. -1.
        -11    1    3    3    0    0  0.36392712465E+01  0.93428228675E+01 -0.21074632081E+02  0.23338225124E+02  0.51100000000E-03 0.  1.
         12    1    3    3    0    0  0.68589913396E+01  0.23608983444E+02 -0.13997489846E+01  0.24624970227E+02  0.00000000000E+00 0. -1.
</event>
<event>
 7    1  0.2817603E-011  0.5052886E+02  0.7816164E-02  0.1300439E+00
        -11   -1    0    0    0    0  0.00000000000E+00  0.00000000000E+00  0.45593999997E+02  0.45594000000E+02  0.51100000000E-03 0. -1.
         11   -1    0    0    0    0 -0.00000000000E+00 -0.00000000000E+00 -0.45593999997E+02  0.45594000000E+02  0.51100000000E-03 0.  1.
    9900012    2    1    2    0    0  0.12089678917E+02  0.33417931434E+02  0.19754682298E+02  0.50528856498E+02  0.29999989811E+02 0.  0.
        -12    1    1    2    0    0 -0.12089678917E+02 -0.33417931434E+02 -0.19754682298E+02  0.40659143502E+02  0.00000000000E+00 0.  1.
         11    1    3    3    0    0  0.32157991511E+01  0.75342657972E+01  0.17948058772E+02  0.19729149481E+02  0.51100000000E-03 0.  1.
        -11    1    3    3    0    0 -0.92366548604E+00  0.44359104561E+01  0.52888380434E+01  0.69643569420E+01  0.51100000000E-03 0. -1.
        -12    1    3    3    0    0  0.97975452523E+01  0.21447755180E+02 -0.34822145174E+01  0.23835350075E+02  0.00000000000E+00 0.  1.
</event>
<event>
 7    1  0.2817603E-011  0.5052886E+02  0.7816164E-02  0.1300439E+00
        -11   -1    0    0    0    0  0.00000000000E+00  0.00000000000E+00  0.45593999997E+02  0.45594000000E+02  0.51100000000E-03 0.  1.
         11   -1    0    0    0    0 -0.00000000000E+00 -0.00000000000E+00 -0.45593999997E+02  0.45594000000E+02  0.51100000000E-03 0. -1.
    9900012    2    1    2    0    0  0.72511678519E+01  0.41843518313E+01 -0.39787908835E+02  0.50528856810E+02  0.29999990761E+02 0.  0.
        -12    1    1    2    0    0 -0.72511678519E+01 -0.41843518313E+01  0.39787908835E+02  0.40659143190E+02  0.00000000000E+00 0.  1.
         11    1    3    3    0    0  0.97808293248E+01 -0.49304641447E+00 -0.31823623386E+02  0.33296407054E+02  0.51100000000E-03 0. -1.
        -11    1    3    3    0    0  0.12482313970E+01 -0.12598524231E+01 -0.98003977124E+01  0.99595735517E+01  0.51100000000E-03 0.  1.
        -12    1    3    3    0    0 -0.37778928699E+01  0.59372506688E+01  0.18361122634E+01  0.72728762044E+01  0.00000000000E+00 0.  1.
</event>
<event>
 7    1  0.2817603E-011  0.5052885E+02  0.7816164E-02  0.1300439E+00
        -11   -1    0    0    0    0  0.00000000000E+00  0.00000000000E+00  0.45593999997E+02  0.45594000000E+02  0.51100000000E-03 0.  1.
         11   -1    0    0    0    0 -0.00000000000E+00 -0.00000000000E+00 -0.45593999997E+02  0.45594000000E+02  0.51100000000E-03 0. -1.
    9900012    2    1    2    0    0  0.31068727161E+02 -0.17223077493E+02 -0.19780456087E+02  0.50528847910E+02  0.29999963707E+02 0.  0.
        -12    1    1    2    0    0 -0.31068727161E+02  0.17223077493E+02  0.19780456087E+02  0.40659152090E+02  0.00000000000E+00 0.  1.
         11    1    3    3    0    0  0.21194709332E+01 -0.20063673773E+01 -0.12800956856E+01  0.31868969727E+01  0.51100000000E-03 0. -1.
        -11    1    3    3    0    0  0.11407321869E+02 -0.18776221206E+02 -0.19554144002E+02  0.29411528741E+02  0.51100000000E-03 0.  1.
        -12    1    3    3    0    0  0.17541934359E+02  0.35595110899E+01  0.10537836012E+01  0.17930422196E+02  0.00000000000E+00 0.  1.
</event>
<event>
 7    1  0.2817603E-011  0.5052886E+02  0.7816164E-02  0.1300439E+00
        -11   -1    0    0    0    0  0.00000000000E+00  0.00000000000E+00  0.45593999997E+02  0.45594000000E+02  0.51100000000E-03 0.  1.
         11   -1    0    0    0    0 -0.00000000000E+00 -0.00000000000E+00 -0.45593999997E+02  0.45594000000E+02  0.51100000000E-03 0. -1.
    9900012    2    1    2    0    0 -0.67448519836E+01 -0.39928258407E+02  0.36615389492E+01  0.50528859390E+02  0.29999998600E+02 0.  0.
        -12    1    1    2    0    0  0.67448519836E+01  0.39928258407E+02 -0.36615389492E+01  0.40659140610E+02  0.00000000000E+00 0.  1.
         11    1    3    3    0    0 -0.62618050377E+01 -0.12002756923E+02 -0.67921868048E+01  0.15146292548E+02  0.51100000000E-03 0.  1.
        -11    1    3    3    0    0 -0.71051916009E+01 -0.91363062489E+01 -0.22006668021E+01  0.11781289157E+02  0.51100000000E-03 0. -1.
         12    1    3    3    0    0  0.66221446550E+01 -0.18789195235E+02  0.12654392556E+02  0.23601277685E+02  0.00000000000E+00 0. -1.
</event>
<event>
 7    1  0.2817603E-011  0.5052886E+02  0.7816164E-02  0.1300439E+00
        -11   -1    0    0    0    0  0.00000000000E+00  0.00000000000E+00  0.45593999997E+02  0.45594000000E+02  0.51100000000E-03 0.  1.
         11   -1    0    0    0    0 -0.00000000000E+00 -0.00000000000E+00 -0.45593999997E+02  0.45594000000E+02  0.51100000000E-03 0. -1.
    9900012    2    1    2    0    0 -0.20028079304E-01  0.34823031942E+02 -0.20988612101E+02  0.50528858436E+02  0.29999995702E+02 0.  0.
        -12    1    1    2    0    0  0.20028079304E-01 -0.34823031942E+02  0.20988612101E+02  0.40659141564E+02  0.00000000000E+00 0.  1.
         11    1    3    3    0    0  0.55319787245E+01  0.16298801730E+02  0.17332139378E+01  0.17299068104E+02  0.51100000000E-03 0. -1.
        -11    1    3    3    0    0 -0.83035616656E+00  0.12318089563E+02 -0.40473322232E+01  0.12992525552E+02  0.51100000000E-03 0.  1.
         12    1    3    3    0    0 -0.47216506372E+01  0.62061406495E+01 -0.18674493816E+02  0.20237264780E+02  0.00000000000E+00 0. -1.
</event>
<event>
 7    1  0.2817603E-011  0.5052887E+02  0.7816164E-02  0.1300439E+00
        -11   -1    0    0    0    0  0.00000000000E+00  0.00000000000E+00  0.45593999997E+02  0.45594000000E+02  0.51100000000E-03 0. -1.
         11   -1    0    0    0    0 -0.00000000000E+00 -0.00000000000E+00 -0.45593999997E+02  0.45594000000E+02  0.51100000000E-03 0.  1.
    9900012    2    1    2    0    0  0.38849531621E+02  0.11477829993E+01 -0.11939900467E+02  0.50528871429E+02  0.30000035196E+02 0.  0.
        -12    1    1    2    0    0 -0.38849531621E+02 -0.11477829993E+01  0.11939900467E+02  0.40659128571E+02  0.00000000000E+00 0.  1.
         11    1    3    3    0    0  0.48285905801E+01 -0.39641288177E+01 -0.96102607790E+01  0.11462404494E+02  0.51100000000E-03 0. -1.
        -11    1    3    3    0    0  0.18870301804E+01 -0.44619709749E+01  0.20333318934E+01  0.52539991180E+01  0.51100000000E-03 0.  1.
        -12    1    3    3    0    0  0.32133910860E+02  0.95738827918E+01 -0.43629715817E+01  0.33812467818E+02  0.00000000000E+00 0.  1.
</event>
<event>
 7    1  0.2817603E-011  0.5052886E+02  0.7816164E-02  0.1300439E+00
        -11   -1    0    0    0    0  0.00000000000E+00  0.00000000000E+00  0.45593999997E+02  0.45594000000E+02  0.51100000000E-03 0.  1.
         11   -1    0    0    0    0 -0.00000000000E+00 -0.00000000000E+00 -0.45593999997E+02  0.45594000000E+02  0.51100000000E-03 0. -1.
    9900012    2    1    2    0    0 -0.65587492747E+01  0.10652008279E+02 -0.38686990263E+02  0.50528859723E+02  0.29999999615E+02 0.  0.
        -12    1    1    2    0    0  0.65587492747E+01 -0.10652008279E+02  0.38686990263E+02  0.40659140277E+02  0.00000000000E+00 0.  1.
         11    1    3    3    0    0  0.67706361488E+01 -0.54712111497E+00 -0.11440070542E+02  0.13304738616E+02  0.51100000000E-03 0. -1.
        -11    1    3    3    0    0 -0.11212562932E+02  0.59453535702E+00 -0.23022148253E+02  0.25614338762E+02  0.51100000000E-03 0.  1.
        -12    1    3    3    0    0 -0.21168224913E+01  0.10604594037E+02 -0.42247714687E+01  0.11609782345E+02  0.00000000000E+00 0.  1.
</event>
<event>
 7    1  0.2817603E-011  0.5052889E+02  0.7816164E-02  0.1300439E+00
        -11   -1    0    0    0    0  0.00000000000E+00  0.00000000000E+00  0.45593999997E+02  0.45594000000E+02  0.51100000000E-03 0.  1.
         11   -1    0    0    0    0 -0.00000000000E+00 -0.00000000000E+00 -0.45593999997E+02  0.45594000000E+02  0.51100000000E-03 0. -1.
    9900012    2    1    2    0    0  0.12885302812E+02 -0.37562437985E+02 -0.87290154281E+01  0.50528886799E+02  0.30000081915E+02 0.  0.
        -12    1    1    2    0    0 -0.12885302812E+02  0.37562437985E+02  0.87290154281E+01  0.40659113201E+02  0.00000000000E+00 0.  1.
         11    1    3    3    0    0  0.32454556055E+01 -0.61786965019E+01 -0.28808785716E+01  0.75504128467E+01  0.51100000000E-03 0. -1.
        -11    1    3    3    0    0 -0.92168449460E+01 -0.85882516527E+01  0.91566294068E+00  0.12631181104E+02  0.51100000000E-03 0.  1.
        -12    1    3    3    0    0  0.18856692152E+02 -0.22795489830E+02 -0.67637997972E+01  0.30347292848E+02  0.00000000000E+00 0.  1.
</event>
<event>
 7    1  0.2817603E-011  0.5052888E+02  0.7816164E-02  0.1300439E+00
        -11   -1    0    0    0    0  0.00000000000E+00  0.00000000000E+00  0.45593999997E+02  0.45594000000E+02  0.51100000000E-03 0.  1.
         11   -1    0    0    0    0 -0.00000000000E+00 -0.00000000000E+00 -0.45593999997E+02  0.45594000000E+02  0.51100000000E-03 0. -1.
    9900012    2    1    2    0    0 -0.29325561120E+02  0.18567210167E+02 -0.21176273747E+02  0.50528875585E+02  0.30000047827E+02 0.  0.
        -12    1    1    2    0    0  0.29325561120E+02 -0.18567210167E+02  0.21176273747E+02  0.40659124415E+02  0.00000000000E+00 0.  1.
         11    1    3    3    0    0 -0.60878903354E+01  0.20508310302E+02 -0.66604024611E+01  0.22405672527E+02  0.51100000000E-03 0. -1.
        -11    1    3    3    0    0 -0.12383278754E+01 -0.84881213032E+00  0.36012230325E+00  0.15438997034E+01  0.51100000000E-03 0.  1.
         12    1    3    3    0    0 -0.21999342909E+02 -0.10922880045E+01 -0.14875993590E+02  0.26579303354E+02  0.00000000000E+00 0. -1.
</event>
<event>
 7    1  0.2817603E-011  0.5052886E+02  0.7816164E-02  0.1300439E+00
        -11   -1    0    0    0    0  0.00000000000E+00  0.00000000000E+00  0.45593999997E+02  0.45594000000E+02  0.51100000000E-03 0.  1.
         11   -1    0    0    0    0 -0.00000000000E+00 -0.00000000000E+00 -0.45593999997E+02  0.45594000000E+02  0.51100000000E-03 0. -1.
    9900012    2    1    2    0    0  0.19900744676E+02  0.16059985778E+02 -0.31610167562E+02  0.50528862342E+02  0.30000007574E+02 0.  0.
        -12    1    1    2    0    0 -0.19900744676E+02 -0.16059985778E+02  0.31610167562E+02  0.40659137658E+02  0.00000000000E+00 0.  1.
         11    1    3    3    0    0 -0.20485090431E+01  0.18160727315E+01  0.90680669756E+00  0.28838876735E+01  0.51100000000E-03 0. -1.
        -11    1    3    3    0    0  0.35902312039E+01  0.30098628281E+01  0.33889302436E+01  0.57822039741E+01  0.51100000000E-03 0.  1.
         12    1    3    3    0    0  0.18359022515E+02  0.11234050218E+02 -0.35905904503E+02  0.41862770694E+02  0.00000000000E+00 0. -1.
</event>
<event>
 7    1  0.2817603E-011  0.5052885E+02  0.7816164E-02  0.1300439E+00
        -11   -1    0    0    0    0  0.00000000000E+00  0.00000000000E+00  0.45593999997E+02  0.45594000000E+02  0.51100000000E-03 0. -1.
         11   -1    0    0    0    0 -0.00000000000E+00 -0.00000000000E+00 -0.45593999997E+02  0.45594000000E+02  0.51100000000E-03 0.  1.
    9900012    2    1    2    0    0 -0.28089577183E+02  0.13517296664E+02  0.26104111075E+02  0.50528852561E+02  0.29999977845E+02 0.  0.
        -12    1    1    2    0    0  0.28089577183E+02 -0.13517296664E+02 -0.26104111075E+02  0.40659147439E+02  0.00000000000E+00 0.  1.
         11    1    3    3    0    0 -0.10149437424E+02  0.10648726064E+02  0.22173140513E+02  0.26609295506E+02  0.51100000000E-03 0.  1.
        -11    1    3    3    0    0 -0.48815737575E+01 -0.51176955923E+01  0.48646687950E+01  0.85840301299E+01  0.51100000000E-03 0. -1.
        -12    1    3    3    0    0 -0.13058566001E+02  0.79862661917E+01 -0.93369823298E+00  0.15335526926E+02  0.00000000000E+00 0.  1.
</event>
<event>
 7    1  0.2817603E-011  0.5052886E+02  0.7816164E-02  0.1300439E+00
        -11   -1    0    0    0    0  0.00000000000E+00  0.00000000000E+00  0.45593999997E+02  0.45594000000E+02  0.51100000000E-03 0.  1.
         11   -1    0    0    0    0 -0.00000000000E+00 -0.00000000000E+00 -0.45593999997E+02  0.45594000000E+02  0.51100000000E-03 0. -1.
    9900012    2    1    2    0    0 -0.71560927609E+01  0.70527954772E+01 -0.39398150865E+02  0.50528857372E+02  0.29999992468E+02 0.  0.
        -12    1    1    2    0    0  0.71560927609E+01 -0.70527954772E+01  0.39398150865E+02  0.40659142628E+02  0.00000000000E+00 0.  1.
         11    1    3    3    0    0 -0.62099099092E+01 -0.40812723098E+00 -0.77489481634E+01  0.99385988357E+01  0.51100000000E-03 0. -1.
        -11    1    3    3    0    0 -0.23531292812E+01 -0.25714815889E+01 -0.30148263002E+02  0.30349093846E+02  0.51100000000E-03 0.  1.
         12    1    3    3    0    0  0.14069464295E+01  0.10032404297E+02 -0.15009397003E+01  0.10241164691E+02  0.00000000000E+00 0. -1.
</event>
<event>
 7    1  0.2817603E-011  0.5052886E+02  0.7816164E-02  0.1300439E+00
        -11   -1    0    0    0    0  0.00000000000E+00  0.00000000000E+00  0.45593999997E+02  0.45594000000E+02  0.51100000000E-03 0. -1.
         11   -1    0    0    0    0 -0.00000000000E+00 -0.00000000000E+00 -0.45593999997E+02  0.45594000000E+02  0.51100000000E-03 0.  1.
    9900012    2    1    2    0    0 -0.26505208822E+02  0.29678072339E+01  0.30689276297E+02  0.50528860141E+02  0.30000000884E+02 0.  0.
        -12    1    1    2    0    0  0.26505208822E+02 -0.29678072339E+01 -0.30689276297E+02  0.40659139859E+02  0.00000000000E+00 0.  1.
         11    1    3    3    0    0 -0.56693132662E+01  0.39002135059E+01 -0.54120659399E+00  0.69025852505E+01  0.51100000000E-03 0. -1.
        -11    1    3    3    0    0  0.80806768747E+00  0.47399685896E+01 -0.46287242073E+00  0.48305824449E+01  0.51100000000E-03 0.  1.
         12    1    3    3    0    0 -0.21643963243E+02 -0.56723748616E+01  0.31693355312E+02  0.38795692446E+02  0.00000000000E+00 0. -1.
</event>
<event>
 7    1  0.2817603E-011  0.5052885E+02  0.7816164E-02  0.1300439E+00
        -11   -1    0    0    0    0  0.00000000000E+00  0.00000000000E+00  0.45593999997E+02  0.45594000000E+02  0.51100000000E-03 0.  1.
         11   -1    0    0    0    0 -0.00000000000E+00 -0.00000000000E+00 -0.45593999997E+02  0.45594000000E+02  0.51100000000E-03 0. -1.
    9900012    2    1    2    0    0  0.26219523706E+02 -0.15538428345E+01 -0.31036896160E+02  0.50528846367E+02  0.29999959017E+02 0.  0.
        -12    1    1    2    0    0 -0.26219523706E+02  0.15538428345E+01  0.31036896160E+02  0.40659153633E+02  0.00000000000E+00 0.  1.
         11    1    3    3    0    0 -0.65417025139E+00  0.29882941588E+01  0.45756557381E-02  0.30590622574E+01  0.51100000000E-03 0. -1.
        -11    1    3    3    0    0 -0.14796748822E+01 -0.32213016297E+01  0.18710694919E+01  0.40083816249E+01  0.51100000000E-03 0.  1.
         12    1    3    3    0    0  0.28353368839E+02 -0.13208353636E+01 -0.32912541308E+02  0.43461402485E+02  0.00000000000E+00 0. -1.
</event>
<event>
 7    1  0.2817603E-011  0.5052886E+02  0.7816164E-02  0.1300439E+00
        -11   -1    0    0    0    0  0.00000000000E+00  0.00000000000E+00  0.45593999997E+02  0.45594000000E+02  0.51100000000E-03 0. -1.
         11   -1    0    0    0    0 -0.00000000000E+00 -0.00000000000E+00 -0.45593999997E+02  0.45594000000E+02  0.51100000000E-03 0.  1.
    9900012    2    1    2    0    0 -0.39617674224E+02 -0.32816651904E+01 -0.85344015150E+01  0.50528862693E+02  0.30000008640E+02 0.  0.
        -12    1    1    2    0    0  0.39617674224E+02  0.32816651904E+01  0.85344015150E+01  0.40659137307E+02  0.00000000000E+00 0.  1.
         11    1    3    3    0    0 -0.29915936487E+02 -0.21961632757E+01 -0.27144668140E+00  0.29997667786E+02  0.51100000000E-03 0. -1.
        -11    1    3    3    0    0 -0.89476937073E+01 -0.68261805288E+01 -0.93603767255E+01  0.14638122011E+02  0.51100000000E-03 0.  1.
         12    1    3    3    0    0 -0.75404402983E+00  0.57406786141E+01  0.10974218919E+01  0.58930728960E+01  0.00000000000E+00 0. -1.
</event>
<event>
 7    1  0.2817603E-011  0.5052886E+02  0.7816164E-02  0.1300439E+00
        -11   -1    0    0    0    0  0.00000000000E+00  0.00000000000E+00  0.45593999997E+02  0.45594000000E+02  0.51100000000E-03 0.  1.
         11   -1    0    0    0    0 -0.00000000000E+00 -0.00000000000E+00 -0.45593999997E+02  0.45594000000E+02  0.51100000000E-03 0. -1.
    9900012    2    1    2    0    0 -0.59637748963E+01 -0.26850841266E+02  0.29943804408E+02  0.50528859452E+02  0.29999998790E+02 0.  0.
        -12    1    1    2    0    0  0.59637748963E+01  0.26850841266E+02 -0.29943804408E+02  0.40659140548E+02  0.00000000000E+00 0.  1.
         11    1    3    3    0    0 -0.65551688513E+01 -0.13921362708E+02 -0.33496563233E+00  0.15391126683E+02  0.51100000000E-03 0. -1.
        -11    1    3    3    0    0  0.26244816137E+01  0.13196445555E+01  0.25248938328E+01  0.38735583926E+01  0.51100000000E-03 0.  1.
         12    1    3    3    0    0 -0.20330876587E+01 -0.14249123113E+02  0.27753876207E+02  0.31264174377E+02  0.00000000000E+00 0. -1.
</event>
<event>
 7    1  0.2817603E-011  0.5052886E+02  0.7816164E-02  0.1300439E+00
        -11   -1    0    0    0    0  0.00000000000E+00  0.00000000000E+00  0.45593999997E+02  0.45594000000E+02  0.51100000000E-03 0.  1.
         11   -1    0    0    0    0 -0.00000000000E+00 -0.00000000000E+00 -0.45593999997E+02  0.45594000000E+02  0.51100000000E-03 0. -1.
    9900012    2    1    2    0    0 -0.22881859131E+02 -0.23655648016E+02 -0.23874607219E+02  0.50528855515E+02  0.29999986825E+02 0.  0.
        -12    1    1    2    0    0  0.22881859131E+02  0.23655648016E+02  0.23874607219E+02  0.40659144485E+02  0.00000000000E+00 0.  1.
         11    1    3    3    0    0 -0.20122852966E+02 -0.14562892089E+02 -0.13837356554E+02  0.28433773477E+02  0.51100000000E-03 0. -1.
        -11    1    3    3    0    0 -0.97870658968E+01 -0.76688490311E+01 -0.54019246118E+01  0.13556500068E+02  0.51100000000E-03 0.  1.
        -12    1    3    3    0    0  0.70280597315E+01 -0.14239068954E+01 -0.46353260531E+01  0.85385819697E+01  0.00000000000E+00 0.  1.
</event>
<event>
 7    1  0.2817603E-011  0.5052885E+02  0.7816164E-02  0.1300439E+00
        -11   -1    0    0    0    0  0.00000000000E+00  0.00000000000E+00  0.45593999997E+02  0.45594000000E+02  0.51100000000E-03 0.  1.
         11   -1    0    0    0    0 -0.00000000000E+00 -0.00000000000E+00 -0.45593999997E+02  0.45594000000E+02  0.51100000000E-03 0. -1.
    9900012    2    1    2    0    0 -0.21759295075E+02 -0.30624524947E+02  0.15551136689E+02  0.50528852165E+02  0.29999976640E+02 0.  0.
        -12    1    1    2    0    0  0.21759295075E+02  0.30624524947E+02 -0.15551136689E+02  0.40659147835E+02  0.00000000000E+00 0.  1.
         11    1    3    3    0    0 -0.99041037761E+01 -0.95673593349E+01  0.30876093584E-01  0.13770497081E+02  0.51100000000E-03 0. -1.
        -11    1    3    3    0    0  0.52649752180E+01 -0.10050326492E+02  0.31082703797E+00  0.11350138340E+02  0.51100000000E-03 0.  1.
         12    1    3    3    0    0 -0.17120166517E+02 -0.11006839120E+02  0.15209433557E+02  0.25408216744E+02  0.00000000000E+00 0. -1.
</event>
<event>
 7    1  0.2817603E-011  0.5052886E+02  0.7816164E-02  0.1300439E+00
        -11   -1    0    0    0    0  0.00000000000E+00  0.00000000000E+00  0.45593999997E+02  0.45594000000E+02  0.51100000000E-03 0.  1.
         11   -1    0    0    0    0 -0.00000000000E+00 -0.00000000000E+00 -0.45593999997E+02  0.45594000000E+02  0.51100000000E-03 0. -1.
    9900012    2    1    2    0    0  0.27025692044E+02 -0.21223224584E+02 -0.21733677762E+02  0.50528855380E+02  0.29999986412E+02 0.  0.
        -12    1    1    2    0    0 -0.27025692044E+02  0.21223224584E+02  0.21733677762E+02  0.40659144620E+02  0.00000000000E+00 0.  1.
         11    1    3    3    0    0  0.17122505563E+02 -0.10876854745E+02 -0.24493291014E+02  0.31802633080E+02  0.51100000000E-03 0. -1.
        -11    1    3    3    0    0 -0.76530174800E+00  0.17627975941E+01  0.16786059042E+01  0.25516387217E+01  0.51100000000E-03 0.  1.
        -12    1    3    3    0    0  0.10668488229E+02 -0.12109167433E+02  0.10810073479E+01  0.16174583577E+02  0.00000000000E+00 0.  1.
</event>
<event>
 7    1  0.2817603E-011  0.5052887E+02  0.7816164E-02  0.1300439E+00
        -11   -1    0    0    0    0  0.00000000000E+00  0.00000000000E+00  0.45593999997E+02  0.45594000000E+02  0.51100000000E-03 0. -1.
         11   -1    0    0    0    0 -0.00000000000E+00 -0.00000000000E+00 -0.45593999997E+02  0.45594000000E+02  0.51100000000E-03 0.  1.
    9900012    2    1    2    0    0  0.18015926917E+02 -0.23604789849E+02  0.27774180631E+02  0.50528870199E+02  0.30000031456E+02 0.  0.
        -12    1    1    2    0    0 -0.18015926917E+02  0.23604789849E+02 -0.27774180631E+02  0.40659129801E+02  0.00000000000E+00 0.  1.
         11    1    3    3    0    0  0.95876965991E+01  0.19768425464E+01  0.51458118023E+01  0.11059439945E+02  0.51100000000E-03 0. -1.
        -11    1    3    3    0    0  0.29774886091E+01  0.12705662930E+01  0.75040003332E+01  0.81725025777E+01  0.51100000000E-03 0.  1.
         12    1    3    3    0    0  0.54507417090E+01 -0.26852198688E+02  0.15124368496E+02  0.31296927676E+02  0.00000000000E+00 0. -1.
</event>
<event>
 7    1  0.2817603E-011  0.5052886E+02  0.7816164E-02  0.1300439E+00
        -11   -1    0    0    0    0  0.00000000000E+00  0.00000000000E+00  0.45593999997E+02  0.45594000000E+02  0.51100000000E-03 0. -1.
         11   -1    0    0    0    0 -0.00000000000E+00 -0.00000000000E+00 -0.45593999997E+02  0.45594000000E+02  0.51100000000E-03 0.  1.
    9900012    2    1    2    0    0  0.24032365759E+02  0.27553702451E+02  0.17787768963E+02  0.50528857763E+02  0.29999993657E+02 0.  0.
        -12    1    1    2    0    0 -0.24032365759E+02 -0.27553702451E+02 -0.17787768963E+02  0.40659142237E+02  0.00000000000E+00 0.  1.
         11    1    3    3    0    0  0.91553284443E+01  0.10397829176E+02  0.36557443020E+01  0.14328271255E+02  0.51100000000E-03 0. -1.
        -11    1    3    3    0    0 -0.34702224701E+01  0.10752784423E+02  0.12268805880E+02  0.16678981228E+02  0.51100000000E-03 0.  1.
         12    1    3    3    0    0  0.18347259785E+02  0.64030888514E+01  0.18632187816E+01  0.19521605280E+02  0.00000000000E+00 0. -1.
</event>
<event>
 7    1  0.2817603E-011  0.5052878E+02  0.7816164E-02  0.1300439E+00
        -11   -1    0    0    0    0  0.00000000000E+00  0.00000000000E+00  0.45593999997E+02  0.45594000000E+02  0.51100000000E-03 0.  1.
         11   -1    0    0    0    0 -0.00000000000E+00 -0.00000000000E+00 -0.45593999997E+02  0.45594000000E+02  0.51100000000E-03 0. -1.
    9900012    2    1    2    0    0  0.24352701883E+02 -0.27534874110E+02 -0.17376679042E+02  0.50528777728E+02  0.29999750381E+02 0.  0.
        -12    1    1    2    0    0 -0.24352701883E+02  0.27534874110E+02  0.17376679042E+02  0.40659222272E+02  0.00000000000E+00 0.  1.
         11    1    3    3    0    0  0.12437593738E+02 -0.96044154954E+01 -0.70502059729E+01  0.17223354480E+02  0.51100000000E-03 0. -1.
        -11    1    3    3    0    0  0.50378093689E+01 -0.10221226874E+02 -0.17389664372E+02  0.20790705358E+02  0.51100000000E-03 0.  1.
         12    1    3    3    0    0  0.68772987757E+01 -0.77092317411E+01  0.70631913033E+01  0.12514717890E+02  0.00000000000E+00 0. -1.
</event>
<event>
 7    1  0.2817603E-011  0.5052886E+02  0.7816164E-02  0.1300439E+00
        -11   -1    0    0    0    0  0.00000000000E+00  0.00000000000E+00  0.45593999997E+02  0.45594000000E+02  0.51100000000E-03 0.  1.
         11   -1    0    0    0    0 -0.00000000000E+00 -0.00000000000E+00 -0.45593999997E+02  0.45594000000E+02  0.51100000000E-03 0. -1.
    9900012    2    1    2    0    0 -0.18761187059E+02 -0.69246108374E+01 -0.35401033187E+02  0.50528861718E+02  0.30000005679E+02 0.  0.
        -12    1    1    2    0    0  0.18761187059E+02  0.69246108374E+01  0.35401033187E+02  0.40659138282E+02  0.00000000000E+00 0.  1.
         11    1    3    3    0    0 -0.15443503835E+02 -0.80159637581E+00 -0.63041946837E+01  0.16699917315E+02  0.51100000000E-03 0. -1.
        -11    1    3    3    0    0 -0.72664691868E+01 -0.95078400581E+01 -0.21796742306E+02  0.24865610237E+02  0.51100000000E-03 0.  1.
        -12    1    3    3    0    0  0.39487859630E+01  0.33848255965E+01 -0.73000961967E+01  0.89633341665E+01  0.00000000000E+00 0.  1.
</event>
<event>
 7    1  0.2817603E-011  0.5052886E+02  0.7816164E-02  0.1300439E+00
        -11   -1    0    0    0    0  0.00000000000E+00  0.00000000000E+00  0.45593999997E+02  0.45594000000E+02  0.51100000000E-03 0.  1.
         11   -1    0    0    0    0 -0.00000000000E+00 -0.00000000000E+00 -0.45593999997E+02  0.45594000000E+02  0.51100000000E-03 0. -1.
    9900012    2    1    2    0    0  0.18800251925E+02  0.26451830836E+02 -0.24495244538E+02  0.50528857953E+02  0.29999994235E+02 0.  0.
        -12    1    1    2    0    0 -0.18800251925E+02 -0.26451830836E+02  0.24495244538E+02  0.40659142047E+02  0.00000000000E+00 0.  1.
         11    1    3    3    0    0 -0.45236984197E+01  0.17811475631E+02 -0.95836822883E+01  0.20725816704E+02  0.51100000000E-03 0. -1.
        -11    1    3    3    0    0  0.78128589559E+00  0.15480158496E+01  0.21068231402E+00  0.17467535658E+01  0.51100000000E-03 0.  1.
        -12    1    3    3    0    0  0.22542664449E+02  0.70923393546E+01 -0.15122244563E+02  0.28056287684E+02  0.00000000000E+00 0.  1.
</event>
<event>
 7    1  0.2817603E-011  0.5052885E+02  0.7816164E-02  0.1300439E+00
        -11   -1    0    0    0    0  0.00000000000E+00  0.00000000000E+00  0.45593999997E+02  0.45594000000E+02  0.51100000000E-03 0.  1.
         11   -1    0    0    0    0 -0.00000000000E+00 -0.00000000000E+00 -0.45593999997E+02  0.45594000000E+02  0.51100000000E-03 0. -1.
    9900012    2    1    2    0    0 -0.30126667280E+02  0.82544667668E+01 -0.26027177501E+02  0.50528852546E+02  0.29999977800E+02 0.  0.
        -12    1    1    2    0    0  0.30126667280E+02 -0.82544667668E+01  0.26027177501E+02  0.40659147454E+02  0.00000000000E+00 0.  1.
         11    1    3    3    0    0 -0.21599061185E+02  0.94983538330E+01 -0.47583080095E+01  0.24070306708E+02  0.51100000000E-03 0. -1.
        -11    1    3    3    0    0 -0.21917440191E-01  0.69106441558E+00  0.17289059256E+01  0.18620328572E+01  0.51100000000E-03 0.  1.
        -12    1    3    3    0    0 -0.85056886543E+01 -0.19349514817E+01 -0.22997775417E+02  0.24596512982E+02  0.00000000000E+00 0.  1.
</event>
<event>
 7    1  0.2817603E-011  0.5052886E+02  0.7816164E-02  0.1300439E+00
        -11   -1    0    0    0    0  0.00000000000E+00  0.00000000000E+00  0.45593999997E+02  0.45594000000E+02  0.51100000000E-03 0.  1.
         11   -1    0    0    0    0 -0.00000000000E+00 -0.00000000000E+00 -0.45593999997E+02  0.45594000000E+02  0.51100000000E-03 0. -1.
    9900012    2    1    2    0    0  0.34105131134E+02 -0.22097774600E+02 -0.13015847798E+01  0.50528859147E+02  0.29999997864E+02 0.  0.
        -12    1    1    2    0    0 -0.34105131134E+02  0.22097774600E+02  0.13015847798E+01  0.40659140853E+02  0.00000000000E+00 0.  1.
         11    1    3    3    0    0  0.15976090508E+02 -0.57763998428E+01  0.11382425477E+01  0.17026387152E+02  0.51100000000E-03 0. -1.
        -11    1    3    3    0    0  0.22845959025E+02 -0.13774600930E+02 -0.56294213161E+01  0.27264773228E+02  0.51100000000E-03 0.  1.
        -12    1    3    3    0    0 -0.47169183991E+01 -0.25467738270E+01  0.31895939886E+01  0.62376987681E+01  0.00000000000E+00 0.  1.
</event>
<event>
 7    1  0.2817603E-011  0.5052887E+02  0.7816164E-02  0.1300439E+00
        -11   -1    0    0    0    0  0.00000000000E+00  0.00000000000E+00  0.45593999997E+02  0.45594000000E+02  0.51100000000E-03 0. -1.
         11   -1    0    0    0    0 -0.00000000000E+00 -0.00000000000E+00 -0.45593999997E+02  0.45594000000E+02  0.51100000000E-03 0.  1.
    9900012    2    1    2    0    0 -0.93333159427E+01 -0.21665478972E+02  0.33115879604E+02  0.50528865141E+02  0.30000016081E+02 0.  0.
        -12    1    1    2    0    0  0.93333159427E+01  0.21665478972E+02 -0.33115879604E+02  0.40659134859E+02  0.00000000000E+00 0.  1.
         11    1    3    3    0    0  0.82286576373E+01 -0.41600427156E+01  0.12157594782E+02  0.15258567202E+02  0.51100000000E-03 0. -1.
        -11    1    3    3    0    0 -0.41233199261E+01 -0.87404191077E+00 -0.12947782704E+01  0.44093273303E+01  0.51100000000E-03 0.  1.
        -12    1    3    3    0    0 -0.13438653654E+02 -0.16631394346E+02  0.22253063093E+02  0.30860970609E+02  0.00000000000E+00 0.  1.
</event>
<event>
 7    1  0.2817603E-011  0.5052886E+02  0.7816164E-02  0.1300439E+00
        -11   -1    0    0    0    0  0.00000000000E+00  0.00000000000E+00  0.45593999997E+02  0.45594000000E+02  0.51100000000E-03 0.  1.
         11   -1    0    0    0    0 -0.00000000000E+00 -0.00000000000E+00 -0.45593999997E+02  0.45594000000E+02  0.51100000000E-03 0. -1.
    9900012    2    1    2    0    0 -0.31111903905E+02 -0.22059759056E+02 -0.14091930293E+02  0.50528855474E+02  0.29999986700E+02 0.  0.
        -12    1    1    2    0    0  0.31111903905E+02  0.22059759056E+02  0.14091930293E+02  0.40659144526E+02  0.00000000000E+00 0.  1.
         11    1    3    3    0    0 -0.14375105261E+02 -0.11219966889E+02  0.20122940326E+01  0.18346134083E+02  0.51100000000E-03 0. -1.
        -11    1    3    3    0    0 -0.77769972077E+01 -0.35191086587E+01  0.36545600550E+01  0.92855597988E+01  0.51100000000E-03 0.  1.
         12    1    3    3    0    0 -0.89598014355E+01 -0.73206835081E+01 -0.19758784381E+02  0.22897161592E+02  0.00000000000E+00 0. -1.
</event>
<event>
 7    1  0.2817603E-011  0.5052884E+02  0.7816164E-02  0.1300439E+00
        -11   -1    0    0    0    0  0.00000000000E+00  0.00000000000E+00  0.45593999997E+02  0.45594000000E+02  0.51100000000E-03 0. -1.
         11   -1    0    0    0    0 -0.00000000000E+00 -0.00000000000E+00 -0.45593999997E+02  0.45594000000E+02  0.51100000000E-03 0.  1.
    9900012    2    1    2    0    0  0.23070127868E+02 -0.32734867704E+02  0.70260373682E+01  0.50528836647E+02  0.29999929472E+02 0.  0.
        -12    1    1    2    0    0 -0.23070127868E+02  0.32734867704E+02 -0.70260373682E+01  0.40659163353E+02  0.00000000000E+00 0.  1.
         11    1    3    3    0    0  0.77139452137E+01 -0.61604036838E+01  0.11997090214E+01  0.99445877896E+01  0.51100000000E-03 0. -1.
        -11    1    3    3    0    0  0.77640290001E+01 -0.12282864348E+01 -0.75825245915E+01  0.10921699196E+02  0.51100000000E-03 0.  1.
        -12    1    3    3    0    0  0.75921536539E+01 -0.25346177586E+02  0.13408852938E+02  0.29662549662E+02  0.00000000000E+00 0.  1.
</event>
<event>
 7    1  0.2817603E-011  0.5052886E+02  0.7816164E-02  0.1300439E+00
        -11   -1    0    0    0    0  0.00000000000E+00  0.00000000000E+00  0.45593999997E+02  0.45594000000E+02  0.51100000000E-03 0. -1.
         11   -1    0    0    0    0 -0.00000000000E+00 -0.00000000000E+00 -0.45593999997E+02  0.45594000000E+02  0.51100000000E-03 0.  1.
    9900012    2    1    2    0    0 -0.36810306897E+02 -0.17005417825E+02  0.29971235311E+01  0.50528859838E+02  0.29999999963E+02 0.  0.
        -12    1    1    2    0    0  0.36810306897E+02  0.17005417825E+02 -0.29971235311E+01  0.40659140162E+02  0.00000000000E+00 0.  1.
         11    1    3    3    0    0  0.42454840530E+01 -0.26281867563E+01 -0.18951125961E+01  0.53406883904E+01  0.51100000000E-03 0.  1.
        -11    1    3    3    0    0 -0.10085009449E+02  0.12316968546E+01  0.22482451617E+01  0.10405724352E+02  0.51100000000E-03 0. -1.
        -12    1    3    3    0    0 -0.30970781501E+02 -0.15608927923E+02  0.26439909655E+01  0.34782447095E+02  0.00000000000E+00 0.  1.
</event>
<event>
 7    1  0.2817603E-011  0.5052886E+02  0.7816164E-02  0.1300439E+00
        -11   -1    0    0    0    0  0.00000000000E+00  0.00000000000E+00  0.45593999997E+02  0.45594000000E+02  0.51100000000E-03 0. -1.
         11   -1    0    0    0    0 -0.00000000000E+00 -0.00000000000E+00 -0.45593999997E+02  0.45594000000E+02  0.51100000000E-03 0.  1.
    9900012    2    1    2    0    0  0.76175016090E+01  0.27936078890E+02  0.28543213665E+02  0.50528857352E+02  0.29999992408E+02 0.  0.
        -12    1    1    2    0    0 -0.76175016090E+01 -0.27936078890E+02 -0.28543213665E+02  0.40659142648E+02  0.00000000000E+00 0.  1.
         11    1    3    3    0    0  0.30890241437E+01  0.88716902194E+01  0.84599892505E+01  0.12642008380E+02  0.51100000000E-03 0. -1.
        -11    1    3    3    0    0  0.15366179623E+01  0.24458263286E+02  0.10892386108E+02  0.26818126577E+02  0.51100000000E-03 0.  1.
         12    1    3    3    0    0  0.29918595031E+01 -0.53938746161E+01  0.91908383072E+01  0.11068722395E+02  0.00000000000E+00 0. -1.
</event>
<event>
 7    1  0.2817603E-011  0.5052886E+02  0.7816164E-02  0.1300439E+00
        -11   -1    0    0    0    0  0.00000000000E+00  0.00000000000E+00  0.45593999997E+02  0.45594000000E+02  0.51100000000E-03 0.  1.
         11   -1    0    0    0    0 -0.00000000000E+00 -0.00000000000E+00 -0.45593999997E+02  0.45594000000E+02  0.51100000000E-03 0. -1.
    9900012    2    1    2    0    0 -0.22404601581E+02  0.87936549630E+01 -0.32769971500E+02  0.50528861153E+02  0.30000003961E+02 0.  0.
        -12    1    1    2    0    0  0.22404601581E+02 -0.87936549630E+01  0.32769971500E+02  0.40659138847E+02  0.00000000000E+00 0.  1.
         11    1    3    3    0    0 -0.14275904805E+02  0.47095422131E+01 -0.25402439319E+02  0.29517201248E+02  0.51100000000E-03 0. -1.
        -11    1    3    3    0    0  0.22928332696E+01  0.79132729239E+01 -0.50697643194E+01  0.96736489127E+01  0.51100000000E-03 0.  1.
        -12    1    3    3    0    0 -0.10421530046E+02 -0.38291601740E+01 -0.22977678618E+01  0.11338010993E+02  0.00000000000E+00 0.  1.
</event>
<event>
 7    1  0.2817603E-011  0.5052885E+02  0.7816164E-02  0.1300439E+00
        -11   -1    0    0    0    0  0.00000000000E+00  0.00000000000E+00  0.45593999997E+02  0.45594000000E+02  0.51100000000E-03 0. -1.
         11   -1    0    0    0    0 -0.00000000000E+00 -0.00000000000E+00 -0.45593999997E+02  0.45594000000E+02  0.51100000000E-03 0.  1.
    9900012    2    1    2    0    0  0.27958039557E+02 -0.29229564239E+02  0.41408663093E+01  0.50528853732E+02  0.29999981403E+02 0.  0.
        -12    1    1    2    0    0 -0.27958039557E+02  0.29229564239E+02 -0.41408663093E+01  0.40659146268E+02  0.00000000000E+00 0.  1.
         11    1    3    3    0    0 -0.42414298114E+01 -0.48680789973E+01  0.29790271346E+01  0.71107329369E+01  0.51100000000E-03 0.  1.
        -11    1    3    3    0    0  0.14489178507E+02 -0.16235486777E+02  0.73582161335E+01  0.22971083336E+02  0.51100000000E-03 0. -1.
         12    1    3    3    0    0  0.17710290861E+02 -0.81259984651E+01 -0.61963769589E+01  0.20447037459E+02  0.00000000000E+00 0. -1.
</event>
<event>
 7    1  0.2817603E-011  0.5052885E+02  0.7816164E-02  0.1300439E+00
        -11   -1    0    0    0    0  0.00000000000E+00  0.00000000000E+00  0.45593999997E+02  0.45594000000E+02  0.51100000000E-03 0.  1.
         11   -1    0    0    0    0 -0.00000000000E+00 -0.00000000000E+00 -0.45593999997E+02  0.45594000000E+02  0.51100000000E-03 0. -1.
    9900012    2    1    2    0    0 -0.14736739409E+00 -0.25305444731E+02 -0.31824194802E+02  0.50528848201E+02  0.29999964593E+02 0.  0.
        -12    1    1    2    0    0  0.14736739409E+00  0.25305444731E+02  0.31824194802E+02  0.40659151799E+02  0.00000000000E+00 0.  1.
         11    1    3    3    0    0 -0.29156832192E+01 -0.23781403055E+02 -0.16291497199E+02  0.28973595240E+02  0.51100000000E-03 0. -1.
        -11    1    3    3    0    0  0.22242368073E+01 -0.25832827101E+01  0.20198425041E+01  0.39623658259E+01  0.51100000000E-03 0.  1.
        -12    1    3    3    0    0  0.54407901775E+00  0.10592410341E+01 -0.17552540107E+02  0.17592887135E+02  0.00000000000E+00 0.  1.
</event>
<event>
 7    1  0.2817603E-011  0.5052884E+02  0.7816164E-02  0.1300439E+00
        -11   -1    0    0    0    0  0.00000000000E+00  0.00000000000E+00  0.45593999997E+02  0.45594000000E+02  0.51100000000E-03 0. -1.
         11   -1    0    0    0    0 -0.00000000000E+00 -0.00000000000E+00 -0.45593999997E+02  0.45594000000E+02  0.51100000000E-03 0.  1.
    9900012    2    1    2    0    0  0.12897433183E+02 -0.33554138328E+02  0.18998512527E+02  0.50528837934E+02  0.29999933385E+02 0.  0.
        -12    1    1    2    0    0 -0.12897433183E+02  0.33554138328E+02 -0.18998512527E+02  0.40659162066E+02  0.00000000000E+00 0.  1.
         11    1    3    3    0    0  0.11735137396E+02 -0.85546783432E+01  0.44911461260E+01  0.15200867246E+02  0.51100000000E-03 0. -1.
        -11    1    3    3    0    0  0.93211894236E+01 -0.49270622908E+01  0.48996006280E+01  0.11626117222E+02  0.51100000000E-03 0.  1.
         12    1    3    3    0    0 -0.81588936365E+01 -0.20072397694E+02  0.96077657734E+01  0.23701853466E+02  0.00000000000E+00 0. -1.
</event>
<event>
 7    1  0.2817603E-011  0.5052886E+02  0.7816164E-02  0.1300439E+00
        -11   -1    0    0    0    0  0.00000000000E+00  0.00000000000E+00  0.45593999997E+02  0.45594000000E+02  0.51100000000E-03 0.  1.
         11   -1    0    0    0    0 -0.00000000000E+00 -0.00000000000E+00 -0.45593999997E+02  0.45594000000E+02  0.51100000000E-03 0. -1.
    9900012    2    1    2    0    0 -0.15208298205E+01  0.57749982335E+01 -0.40218182786E+02  0.50528858905E+02  0.29999997129E+02 0.  0.
        -12    1    1    2    0    0  0.15208298205E+01 -0.57749982335E+01  0.40218182786E+02  0.40659141095E+02  0.00000000000E+00 0.  1.
         11    1    3    3    0    0 -0.35220345086E+01 -0.16633563569E+00 -0.25476125531E+02  0.25718969010E+02  0.51100000000E-03 0. -1.
        -11    1    3    3    0    0 -0.46983204887E+01 -0.46858057900E+01 -0.84958802466E+01  0.10780119329E+02  0.51100000000E-03 0.  1.
        -12    1    3    3    0    0  0.66995251768E+01  0.10627139659E+02 -0.62461770088E+01  0.14029770567E+02  0.00000000000E+00 0.  1.
</event>
<event>
 7    1  0.2817603E-011  0.5052886E+02  0.7816164E-02  0.1300439E+00
        -11   -1    0    0    0    0  0.00000000000E+00  0.00000000000E+00  0.45593999997E+02  0.45594000000E+02  0.51100000000E-03 0.  1.
         11   -1    0    0    0    0 -0.00000000000E+00 -0.00000000000E+00 -0.45593999997E+02  0.45594000000E+02  0.51100000000E-03 0. -1.
    9900012    2    1    2    0    0  0.37828520671E+02 -0.65271740331E+01 -0.13400188839E+02  0.50528855421E+02  0.29999986537E+02 0.  0.
        -12    1    1    2    0    0 -0.37828520671E+02  0.65271740331E+01  0.13400188839E+02  0.40659144579E+02  0.00000000000E+00 0.  1.
         11    1    3    3    0    0  0.31153711829E+02 -0.88125040657E+01 -0.84824861253E+01  0.33468889431E+02  0.51100000000E-03 0. -1.
        -11    1    3    3    0    0 -0.79782676688E+00 -0.54629883054E+01 -0.10387564054E+01  0.56178095292E+01  0.51100000000E-03 0.  1.
         12    1    3    3    0    0  0.74726356084E+01  0.77483183380E+01 -0.38789463083E+01  0.11442156460E+02  0.00000000000E+00 0. -1.
</event>
<event>
 7    1  0.2817603E-011  0.5052884E+02  0.7816164E-02  0.1300439E+00
        -11   -1    0    0    0    0  0.00000000000E+00  0.00000000000E+00  0.45593999997E+02  0.45594000000E+02  0.51100000000E-03 0. -1.
         11   -1    0    0    0    0 -0.00000000000E+00 -0.00000000000E+00 -0.45593999997E+02  0.45594000000E+02  0.51100000000E-03 0.  1.
    9900012    2    1    2    0    0  0.33721153878E+02  0.59012308006E+01  0.21936881477E+02  0.50528837284E+02  0.29999931408E+02 0.  0.
        -12    1    1    2    0    0 -0.33721153878E+02 -0.59012308006E+01 -0.21936881477E+02  0.40659162716E+02  0.00000000000E+00 0.  1.
         11    1    3    3    0    0  0.95795606757E+01  0.14522821008E+01  0.37209916045E+01  0.10378963572E+02  0.51100000000E-03 0. -1.
        -11    1    3    3    0    0  0.21048365932E+02 -0.82128094942E+01  0.97510990061E+01  0.24608288854E+02  0.51100000000E-03 0.  1.
        -12    1    3    3    0    0  0.30932272701E+01  0.12661758194E+02  0.84647908664E+01  0.15541584859E+02  0.00000000000E+00 0.  1.
</event>
<event>
 7    1  0.2817603E-011  0.5052887E+02  0.7816164E-02  0.1300439E+00
        -11   -1    0    0    0    0  0.00000000000E+00  0.00000000000E+00  0.45593999997E+02  0.45594000000E+02  0.51100000000E-03 0. -1.
         11   -1    0    0    0    0 -0.00000000000E+00 -0.00000000000E+00 -0.45593999997E+02  0.45594000000E+02  0.51100000000E-03 0.  1.
    9900012    2    1    2    0    0  0.22253937179E+02  0.32485844438E+02  0.10129037321E+02  0.50528865653E+02  0.30000017638E+02 0.  0.
        -12    1    1    2    0    0 -0.22253937179E+02 -0.32485844438E+02 -0.10129037321E+02  0.40659134347E+02  0.00000000000E+00 0.  1.
         11    1    3    3    0    0  0.12281481132E+01  0.63363101924E+01 -0.32323953342E+01  0.72184177283E+01  0.51100000000E-03 0.  1.
        -11    1    3    3    0    0  0.15641584217E+02  0.23387044837E+02  0.19853683991E+02  0.34435182464E+02  0.51100000000E-03 0. -1.
         12    1    3    3    0    0  0.53842048487E+01  0.27624894084E+01 -0.64922513359E+01  0.88752654604E+01  0.00000000000E+00 0. -1.
</event>
<event>
 7    1  0.2876448E-011  0.5052886E+02  0.7816164E-02  0.1300439E+00
        -11   -1    0    0    0    0  0.00000000000E+00  0.00000000000E+00  0.45593999997E+02  0.45594000000E+02  0.51100000000E-03 0. -1.
         11   -1    0    0    0    0 -0.00000000000E+00 -0.00000000000E+00 -0.45593999997E+02  0.45594000000E+02  0.51100000000E-03 0.  1.
    9900012    2    1    2    0    0  0.28979314564E+02 -0.19209081374E+02  0.21080227091E+02  0.50528862601E+02  0.30000008363E+02 0.  0.
        -12    1    1    2    0    0 -0.28979314564E+02  0.19209081374E+02 -0.21080227091E+02  0.40659137399E+02  0.00000000000E+00 0.  1.
         11    1    3    3    0    0  0.11802376653E+02 -0.51583009974E+01  0.58001578645E+01  0.14126075016E+02  0.51100000000E-03 0. -1.
        -11    1    3    3    0    0  0.15315023399E+02 -0.20291741242E+02  0.80379888275E+01  0.26662969996E+02  0.51100000000E-03 0.  1.
        -12    1    3    3    0    0  0.18619145121E+01  0.62409608658E+01  0.72420803990E+01  0.97398175899E+01  0.00000000000E+00 0.  1.
</event>
<event>
 7    1  0.2817603E-011  0.5052886E+02  0.7816164E-02  0.1300439E+00
        -11   -1    0    0    0    0  0.00000000000E+00  0.00000000000E+00  0.45593999997E+02  0.45594000000E+02  0.51100000000E-03 0.  1.
         11   -1    0    0    0    0 -0.00000000000E+00 -0.00000000000E+00 -0.45593999997E+02  0.45594000000E+02  0.51100000000E-03 0. -1.
    9900012    2    1    2    0    0  0.31782650327E+02 -0.23044398425E+02 -0.10582262169E+02  0.50528862857E+02  0.30000009140E+02 0.  0.
        -12    1    1    2    0    0 -0.31782650327E+02  0.23044398425E+02  0.10582262169E+02  0.40659137143E+02  0.00000000000E+00 0.  1.
         11    1    3    3    0    0  0.40335944605E+01  0.41882753891E+01  0.16893071671E+01  0.60551873606E+01  0.51100000000E-03 0.  1.
        -11    1    3    3    0    0  0.16260797044E+01  0.26157641353E+01 -0.77943187177E+00  0.31770853814E+01  0.51100000000E-03 0. -1.
         12    1    3    3    0    0  0.26122976163E+02 -0.29848437949E+02 -0.11492137465E+02  0.41296590115E+02  0.00000000000E+00 0. -1.
</event>
<event>
 7    1  0.2817603E-011  0.5052888E+02  0.7816164E-02  0.1300439E+00
        -11   -1    0    0    0    0  0.00000000000E+00  0.00000000000E+00  0.45593999997E+02  0.45594000000E+02  0.51100000000E-03 0. -1.
         11   -1    0    0    0    0 -0.00000000000E+00 -0.00000000000E+00 -0.45593999997E+02  0.45594000000E+02  0.51100000000E-03 0.  1.
    9900012    2    1    2    0    0 -0.53341620069E+01  0.21344879891E+02  0.34192208524E+02  0.50528876723E+02  0.30000051288E+02 0.  0.
        -12    1    1    2    0    0  0.53341620069E+01 -0.21344879891E+02 -0.34192208524E+02  0.40659123277E+02  0.00000000000E+00 0.  1.
         11    1    3    3    0    0  0.18926908235E+01  0.12200224021E+02  0.52138773538E+01  0.13401949934E+02  0.51100000000E-03 0. -1.
        -11    1    3    3    0    0  0.31609828019E+01  0.96924598652E+01  0.58189153175E+01  0.11738627102E+02  0.51100000000E-03 0.  1.
        -12    1    3    3    0    0 -0.10387835632E+02 -0.54780399510E+00  0.23159415853E+02  0.25388299687E+02  0.00000000000E+00 0.  1.
</event>
<event>
 7    1  0.2817603E-011  0.5052885E+02  0.7816164E-02  0.1300439E+00
        -11   -1    0    0    0    0  0.00000000000E+00  0.00000000000E+00  0.45593999997E+02  0.45594000000E+02  0.51100000000E-03 0.  1.
         11   -1    0    0    0    0 -0.00000000000E+00 -0.00000000000E+00 -0.45593999997E+02  0.45594000000E+02  0.51100000000E-03 0. -1.
    9900012    2    1    2    0    0  0.62891216237E+01 -0.68218156062E+01 -0.39586312410E+02  0.50528851593E+02  0.29999974902E+02 0.  0.
        -12    1    1    2    0    0 -0.62891216237E+01  0.68218156062E+01  0.39586312410E+02  0.40659148407E+02  0.00000000000E+00 0.  1.
         11    1    3    3    0    0  0.52700729479E+01  0.95115619619E+01 -0.13612470247E+02  0.17422480487E+02  0.51100000000E-03 0. -1.
        -11    1    3    3    0    0  0.12446871973E+01  0.18097465964E+01 -0.15862564521E+01  0.27093613187E+01  0.51100000000E-03 0.  1.
        -12    1    3    3    0    0 -0.22563852153E+00 -0.18143124165E+02 -0.24387585711E+02  0.30397009787E+02  0.00000000000E+00 0.  1.
</event>
<event>
 7    1  0.2817603E-011  0.5052883E+02  0.7816164E-02  0.1300439E+00
        -11   -1    0    0    0    0  0.00000000000E+00  0.00000000000E+00  0.45593999997E+02  0.45594000000E+02  0.51100000000E-03 0.  1.
         11   -1    0    0    0    0 -0.00000000000E+00 -0.00000000000E+00 -0.45593999997E+02  0.45594000000E+02  0.51100000000E-03 0. -1.
    9900012    2    1    2    0    0  0.19135687725E+02  0.60060591459E+01 -0.35368354515E+02  0.50528833847E+02  0.29999920961E+02 0.  0.
        -12    1    1    2    0    0 -0.19135687725E+02 -0.60060591459E+01  0.35368354515E+02  0.40659166153E+02  0.00000000000E+00 0.  1.
         11    1    3    3    0    0  0.77865046358E-02  0.22013370645E+01 -0.88620898554E+01  0.91314063740E+01  0.51100000000E-03 0. -1.
        -11    1    3    3    0    0 -0.11902284234E+00 -0.53296824613E+01 -0.17453211400E+02  0.18249226559E+02  0.51100000000E-03 0.  1.
         12    1    3    3    0    0  0.19246924062E+02  0.91344045427E+01 -0.90530532597E+01  0.23148200914E+02  0.00000000000E+00 0. -1.
</event>
<event>
 7    1  0.2817603E-011  0.5052888E+02  0.7816164E-02  0.1300439E+00
        -11   -1    0    0    0    0  0.00000000000E+00  0.00000000000E+00  0.45593999997E+02  0.45594000000E+02  0.51100000000E-03 0.  1.
         11   -1    0    0    0    0 -0.00000000000E+00 -0.00000000000E+00 -0.45593999997E+02  0.45594000000E+02  0.51100000000E-03 0. -1.
    9900012    2    1    2    0    0  0.22416993561E+02 -0.28309848379E+02 -0.18686760448E+02  0.50528878863E+02  0.30000057792E+02 0.  0.
        -12    1    1    2    0    0 -0.22416993561E+02  0.28309848379E+02  0.18686760448E+02  0.40659121137E+02  0.00000000000E+00 0.  1.
         11    1    3    3    0    0  0.41066712606E+01 -0.40820332829E+01  0.21315445116E+01  0.61701885572E+01  0.51100000000E-03 0. -1.
        -11    1    3    3    0    0  0.34294998836E+01 -0.10046511343E+02  0.46841012708E+01  0.11603217855E+02  0.51100000000E-03 0.  1.
         12    1    3    3    0    0  0.14880822417E+02 -0.14181303754E+02 -0.25502406230E+02  0.32755472451E+02  0.00000000000E+00 0. -1.
</event>
<event>
 7    1  0.2817603E-011  0.5052888E+02  0.7816164E-02  0.1300439E+00
        -11   -1    0    0    0    0  0.00000000000E+00  0.00000000000E+00  0.45593999997E+02  0.45594000000E+02  0.51100000000E-03 0.  1.
         11   -1    0    0    0    0 -0.00000000000E+00 -0.00000000000E+00 -0.45593999997E+02  0.45594000000E+02  0.51100000000E-03 0. -1.
    9900012    2    1    2    0    0  0.31358274064E+02 -0.15261061666E+02 -0.20902702366E+02  0.50528876526E+02  0.30000050689E+02 0.  0.
        -12    1    1    2    0    0 -0.31358274064E+02  0.15261061666E+02  0.20902702366E+02  0.40659123474E+02  0.00000000000E+00 0.  1.
         11    1    3    3    0    0  0.17586266355E+02 -0.12690934770E+01 -0.17006819502E+02  0.24497331944E+02  0.51100000000E-03 0. -1.
        -11    1    3    3    0    0  0.11534627487E+02 -0.13386176063E+02 -0.94318427547E+01  0.20029902618E+02  0.51100000000E-03 0.  1.
        -12    1    3    3    0    0  0.22373802216E+01 -0.60579212613E+00  0.55359598905E+01  0.60016419641E+01  0.00000000000E+00 0.  1.
</event>
<event>
 7    1  0.2817603E-011  0.5052886E+02  0.7816164E-02  0.1300439E+00
        -11   -1    0    0    0    0  0.00000000000E+00  0.00000000000E+00  0.45593999997E+02  0.45594000000E+02  0.51100000000E-03 0. -1.
         11   -1    0    0    0    0 -0.00000000000E+00 -0.00000000000E+00 -0.45593999997E+02  0.45594000000E+02  0.51100000000E-03 0.  1.
    9900012    2    1    2    0    0  0.18489706380E+02  0.42735012155E+01  0.35958771402E+02  0.50528864552E+02  0.30000014292E+02 0.  0.
        -12    1    1    2    0    0 -0.18489706380E+02 -0.42735012155E+01 -0.35958771402E+02  0.40659135448E+02  0.00000000000E+00 0.  1.
         11    1    3    3    0    0  0.33568702164E+00 -0.61665410554E+01  0.45990953038E+01  0.77000384570E+01  0.51100000000E-03 0. -1.
        -11    1    3    3    0    0  0.77277557520E+01 -0.20693842497E+01  0.59769725061E+00  0.80223314815E+01  0.51100000000E-03 0.  1.
        -12    1    3    3    0    0  0.10426263606E+02  0.12509426521E+02  0.30761978848E+02  0.34806494613E+02  0.00000000000E+00 0.  1.
</event>
<event>
 7    1  0.2817603E-011  0.5052886E+02  0.7816164E-02  0.1300439E+00
        -11   -1    0    0    0    0  0.00000000000E+00  0.00000000000E+00  0.45593999997E+02  0.45594000000E+02  0.51100000000E-03 0.  1.
         11   -1    0    0    0    0 -0.00000000000E+00 -0.00000000000E+00 -0.45593999997E+02  0.45594000000E+02  0.51100000000E-03 0. -1.
    9900012    2    1    2    0    0  0.10001488731E+02 -0.39405472483E+02 -0.58686876097E+00  0.50528862609E+02  0.30000008387E+02 0.  0.
        -12    1    1    2    0    0 -0.10001488731E+02  0.39405472483E+02  0.58686876097E+00  0.40659137391E+02  0.00000000000E+00 0.  1.
         11    1    3    3    0    0  0.13824498277E+01 -0.35893654141E+01  0.59052284534E+01  0.70474417309E+01  0.51100000000E-03 0. -1.
        -11    1    3    3    0    0  0.93023942355E+01 -0.31953907412E+01  0.13398011883E+01  0.99267380335E+01  0.51100000000E-03 0.  1.
         12    1    3    3    0    0 -0.68335533227E+00 -0.32620716327E+02 -0.78318984027E+01  0.33554682845E+02  0.00000000000E+00 0. -1.
</event>
<event>
 7    1  0.2817603E-011  0.5052884E+02  0.7816164E-02  0.1300439E+00
        -11   -1    0    0    0    0  0.00000000000E+00  0.00000000000E+00  0.45593999997E+02  0.45594000000E+02  0.51100000000E-03 0.  1.
         11   -1    0    0    0    0 -0.00000000000E+00 -0.00000000000E+00 -0.45593999997E+02  0.45594000000E+02  0.51100000000E-03 0. -1.
    9900012    2    1    2    0    0 -0.25172488748E+02 -0.11655512509E+02 -0.29726449418E+02  0.50528844124E+02  0.29999952198E+02 0.  0.
        -12    1    1    2    0    0  0.25172488748E+02  0.11655512509E+02  0.29726449418E+02  0.40659155876E+02  0.00000000000E+00 0.  1.
         11    1    3    3    0    0  0.17022303470E+01  0.18332041504E+01 -0.20730631600E+00  0.25102194687E+01  0.51100000000E-03 0. -1.
        -11    1    3    3    0    0  0.22049985471E+01 -0.51089027769E+01  0.24729549045E+00  0.55699247300E+01  0.51100000000E-03 0.  1.
         12    1    3    3    0    0 -0.29079717642E+02 -0.83798138823E+01 -0.29766438592E+02  0.42448699925E+02  0.00000000000E+00 0. -1.
</event>
<event>
 7    1  0.2817603E-011  0.5052886E+02  0.7816164E-02  0.1300439E+00
        -11   -1    0    0    0    0  0.00000000000E+00  0.00000000000E+00  0.45593999997E+02  0.45594000000E+02  0.51100000000E-03 0.  1.
         11   -1    0    0    0    0 -0.00000000000E+00 -0.00000000000E+00 -0.45593999997E+02  0.45594000000E+02  0.51100000000E-03 0. -1.
    9900012    2    1    2    0    0  0.19894436151E+02  0.26528356451E+02 -0.23529194334E+02  0.50528864842E+02  0.30000015175E+02 0.  0.
        -12    1    1    2    0    0 -0.19894436151E+02 -0.26528356451E+02  0.23529194334E+02  0.40659135158E+02  0.00000000000E+00 0.  1.
         11    1    3    3    0    0  0.75632228837E+01 -0.10689060202E+01 -0.98743524209E+01  0.12483899089E+02  0.51100000000E-03 0. -1.
        -11    1    3    3    0    0  0.12470295163E+02  0.94940765370E+01 -0.52620565559E+00  0.15681920909E+02  0.51100000000E-03 0.  1.
        -12    1    3    3    0    0 -0.13908189576E+00  0.18103185934E+02 -0.13128636258E+02  0.22363044844E+02  0.00000000000E+00 0.  1.
</event>
<event>
 7    1  0.2817603E-011  0.5052886E+02  0.7816164E-02  0.1300439E+00
        -11   -1    0    0    0    0  0.00000000000E+00  0.00000000000E+00  0.45593999997E+02  0.45594000000E+02  0.51100000000E-03 0.  1.
         11   -1    0    0    0    0 -0.00000000000E+00 -0.00000000000E+00 -0.45593999997E+02  0.45594000000E+02  0.51100000000E-03 0. -1.
    9900012    2    1    2    0    0  0.35786636752E+01  0.20126148032E+02 -0.35146788053E+02  0.50528863527E+02  0.30000011176E+02 0.  0.
        -12    1    1    2    0    0 -0.35786636752E+01 -0.20126148032E+02  0.35146788053E+02  0.40659136473E+02  0.00000000000E+00 0.  1.
         11    1    3    3    0    0  0.61690149320E-01  0.91140008986E+01 -0.22431910518E+02  0.24212794713E+02  0.51100000000E-03 0. -1.
        -11    1    3    3    0    0  0.57934408480E+01  0.69462486681E+00 -0.14473157838E+02  0.15605087588E+02  0.51100000000E-03 0.  1.
        -12    1    3    3    0    0 -0.22764673221E+01  0.10317522267E+02  0.17582803035E+01  0.10710981226E+02  0.00000000000E+00 0.  1.
</event>
<event>
 7    1  0.2817603E-011  0.5052887E+02  0.7816164E-02  0.1300439E+00
        -11   -1    0    0    0    0  0.00000000000E+00  0.00000000000E+00  0.45593999997E+02  0.45594000000E+02  0.51100000000E-03 0. -1.
         11   -1    0    0    0    0 -0.00000000000E+00 -0.00000000000E+00 -0.45593999997E+02  0.45594000000E+02  0.51100000000E-03 0.  1.
    9900012    2    1    2    0    0 -0.29135549920E+02  0.28187821746E+02  0.31195583052E+01  0.50528865627E+02  0.30000017559E+02 0.  0.
        -12    1    1    2    0    0  0.29135549920E+02 -0.28187821746E+02 -0.31195583052E+01  0.40659134373E+02  0.00000000000E+00 0.  1.
         11    1    3    3    0    0  0.51794190436E+00 -0.28920640387E+01  0.87000549826E+00  0.30641814646E+01  0.51100000000E-03 0. -1.
        -11    1    3    3    0    0  0.18128963605E+01  0.74554751718E+01  0.26423293621E+01  0.81149619820E+01  0.51100000000E-03 0.  1.
         12    1    3    3    0    0 -0.31466388185E+02  0.23624410613E+02 -0.39277655513E+00  0.39349722180E+02  0.00000000000E+00 0. -1.
</event>
<event>
 7    1  0.2817603E-011  0.5052886E+02  0.7816164E-02  0.1300439E+00
        -11   -1    0    0    0    0  0.00000000000E+00  0.00000000000E+00  0.45593999997E+02  0.45594000000E+02  0.51100000000E-03 0. -1.
         11   -1    0    0    0    0 -0.00000000000E+00 -0.00000000000E+00 -0.45593999997E+02  0.45594000000E+02  0.51100000000E-03 0.  1.
    9900012    2    1    2    0    0 -0.22921928439E+02 -0.33503858412E+02  0.22895784853E+01  0.50528862017E+02  0.30000006588E+02 0.  0.
        -12    1    1    2    0    0  0.22921928439E+02  0.33503858412E+02 -0.22895784853E+01  0.40659137983E+02  0.00000000000E+00 0.  1.
         11    1    3    3    0    0 -0.54623296131E+01 -0.65108384805E+01 -0.94350663905E+01  0.12698367634E+02  0.51100000000E-03 0. -1.
        -11    1    3    3    0    0 -0.36949899021E+01 -0.42361295893E-01 -0.24289087729E+01  0.44220292790E+01  0.51100000000E-03 0.  1.
         12    1    3    3    0    0 -0.13764608923E+02 -0.26950658636E+02  0.14153553649E+02  0.33408465104E+02  0.00000000000E+00 0. -1.
</event>
<event>
 7    1  0.2817603E-011  0.5052886E+02  0.7816164E-02  0.1300439E+00
        -11   -1    0    0    0    0  0.00000000000E+00  0.00000000000E+00  0.45593999997E+02  0.45594000000E+02  0.51100000000E-03 0.  1.
         11   -1    0    0    0    0 -0.00000000000E+00 -0.00000000000E+00 -0.45593999997E+02  0.45594000000E+02  0.51100000000E-03 0. -1.
    9900012    2    1    2    0    0 -0.37858249072E+02  0.14261737688E+02  0.40646830797E+01  0.50528857938E+02  0.29999994187E+02 0.  0.
        -12    1    1    2    0    0  0.37858249072E+02 -0.14261737688E+02 -0.40646830797E+01  0.40659142062E+02  0.00000000000E+00 0.  1.
         11    1    3    3    0    0 -0.16822178614E+02 -0.19900435144E+01 -0.33655893439E+01  0.17270586510E+02  0.51100000000E-03 0. -1.
        -11    1    3    3    0    0 -0.90053408927E+01 -0.31271070097E+01  0.11646239468E+01  0.96037134506E+01  0.51100000000E-03 0.  1.
        -12    1    3    3    0    0 -0.12030729565E+02  0.19378888213E+02  0.62656484768E+01  0.23654557977E+02  0.00000000000E+00 0.  1.
</event>
<event>
 7    1  0.2817603E-011  0.5052886E+02  0.7816164E-02  0.1300439E+00
        -11   -1    0    0    0    0  0.00000000000E+00  0.00000000000E+00  0.45593999997E+02  0.45594000000E+02  0.51100000000E-03 0.  1.
         11   -1    0    0    0    0 -0.00000000000E+00 -0.00000000000E+00 -0.45593999997E+02  0.45594000000E+02  0.51100000000E-03 0. -1.
    9900012    2    1    2    0    0 -0.56830758032E+01 -0.38787518062E+02 -0.10788723587E+02  0.50528862470E+02  0.30000007965E+02 0.  0.
        -12    1    1    2    0    0  0.56830758032E+01  0.38787518062E+02  0.10788723587E+02  0.40659137530E+02  0.00000000000E+00 0.  1.
         11    1    3    3    0    0  0.10145441485E+02 -0.13972201976E+02 -0.45631623856E+01  0.17859867362E+02  0.51100000000E-03 0. -1.
        -11    1    3    3    0    0  0.16297439953E+01 -0.60213807380E+01 -0.26174322450E+01  0.67649126602E+01  0.51100000000E-03 0.  1.
         12    1    3    3    0    0 -0.17458261283E+02 -0.18793935348E+02 -0.36081289563E+01  0.25904082448E+02  0.00000000000E+00 0. -1.
</event>
<event>
 7    1  0.2817603E-011  0.5052887E+02  0.7816164E-02  0.1300439E+00
        -11   -1    0    0    0    0  0.00000000000E+00  0.00000000000E+00  0.45593999997E+02  0.45594000000E+02  0.51100000000E-03 0.  1.
         11   -1    0    0    0    0 -0.00000000000E+00 -0.00000000000E+00 -0.45593999997E+02  0.45594000000E+02  0.51100000000E-03 0. -1.
    9900012    2    1    2    0    0 -0.12784681179E+01  0.18347565657E+01 -0.40597583700E+02  0.50528872923E+02  0.30000039736E+02 0.  0.
        -12    1    1    2    0    0  0.12784681179E+01 -0.18347565657E+01  0.40597583700E+02  0.40659127077E+02  0.00000000000E+00 0.  1.
         11    1    3    3    0    0  0.11541491895E+02  0.50029248427E+01 -0.18925361886E+02  0.22724537727E+02  0.51100000000E-03 0. -1.
        -11    1    3    3    0    0  0.46842150684E+00  0.22268348418E+01 -0.66944288713E+00  0.23719962397E+01  0.51100000000E-03 0.  1.
         12    1    3    3    0    0 -0.13288381520E+02 -0.53950031188E+01 -0.21002778928E+02  0.25432338956E+02  0.00000000000E+00 0. -1.
</event>
<event>
 7    1  0.2817603E-011  0.5052886E+02  0.7816164E-02  0.1300439E+00
        -11   -1    0    0    0    0  0.00000000000E+00  0.00000000000E+00  0.45593999997E+02  0.45594000000E+02  0.51100000000E-03 0. -1.
         11   -1    0    0    0    0 -0.00000000000E+00 -0.00000000000E+00 -0.45593999997E+02  0.45594000000E+02  0.51100000000E-03 0.  1.
    9900012    2    1    2    0    0 -0.14420012925E+02  0.50748803944E+01  0.37675913966E+02  0.50528859860E+02  0.30000000029E+02 0.  0.
        -12    1    1    2    0    0  0.14420012925E+02 -0.50748803944E+01 -0.37675913966E+02  0.40659140140E+02  0.00000000000E+00 0.  1.
         11    1    3    3    0    0 -0.97852360837E+00 -0.74339832608E+01  0.10429999006E+02  0.12845485398E+02  0.51100000000E-03 0. -1.
        -11    1    3    3    0    0 -0.24728659108E+01  0.53295314147E+00  0.19548756431E+02  0.19711747338E+02  0.51100000000E-03 0.  1.
        -12    1    3    3    0    0 -0.10968623406E+02  0.11975910514E+02  0.76971585293E+01  0.17971627124E+02  0.00000000000E+00 0.  1.
</event>
<event>
 7    1  0.2817603E-011  0.5052875E+02  0.7816164E-02  0.1300439E+00
        -11   -1    0    0    0    0  0.00000000000E+00  0.00000000000E+00  0.45593999997E+02  0.45594000000E+02  0.51100000000E-03 0. -1.
         11   -1    0    0    0    0 -0.00000000000E+00 -0.00000000000E+00 -0.45593999997E+02  0.45594000000E+02  0.51100000000E-03 0.  1.
    9900012    2    1    2    0    0  0.27729103195E+02 -0.82059938435E+01  0.28582048673E+02  0.50528745146E+02  0.29999651344E+02 0.  0.
        -12    1    1    2    0    0 -0.27729103195E+02  0.82059938435E+01 -0.28582048673E+02  0.40659254854E+02  0.00000000000E+00 0.  1.
         11    1    3    3    0    0  0.10961652868E+02  0.34619547652E+01  0.28336502250E+01  0.11839448393E+02  0.51100000000E-03 0. -1.
        -11    1    3    3    0    0  0.47355681687E+01 -0.11824506338E+02  0.32034909708E+01  0.13134188619E+02  0.51100000000E-03 0.  1.
         12    1    3    3    0    0  0.12031882158E+02  0.15655772928E+00  0.22544907477E+02  0.25555108134E+02  0.00000000000E+00 0. -1.
</event>
<event>
 7    1  0.2817603E-011  0.5052885E+02  0.7816164E-02  0.1300439E+00
        -11   -1    0    0    0    0  0.00000000000E+00  0.00000000000E+00  0.45593999997E+02  0.45594000000E+02  0.51100000000E-03 0.  1.
         11   -1    0    0    0    0 -0.00000000000E+00 -0.00000000000E+00 -0.45593999997E+02  0.45594000000E+02  0.51100000000E-03 0. -1.
    9900012    2    1    2    0    0 -0.12727635074E+02 -0.38566310443E+02 -0.19527278577E+01  0.50528854143E+02  0.29999982653E+02 0.  0.
        -12    1    1    2    0    0  0.12727635074E+02  0.38566310443E+02  0.19527278577E+01  0.40659145857E+02  0.00000000000E+00 0.  1.
         11    1    3    3    0    0 -0.14449533098E+02 -0.21643605765E+02 -0.12575040860E+01  0.26054097453E+02  0.51100000000E-03 0. -1.
        -11    1    3    3    0    0 -0.10286958825E+01 -0.95647862833E+01  0.81764131391E+01  0.12625255797E+02  0.51100000000E-03 0.  1.
         12    1    3    3    0    0  0.27505939074E+01 -0.73579183943E+01 -0.88716369108E+01  0.11849500893E+02  0.00000000000E+00 0. -1.
</event>
<event>
 7    1  0.2817603E-011  0.5052884E+02  0.7816164E-02  0.1300439E+00
        -11   -1    0    0    0    0  0.00000000000E+00  0.00000000000E+00  0.45593999997E+02  0.45594000000E+02  0.51100000000E-03 0.  1.
         11   -1    0    0    0    0 -0.00000000000E+00 -0.00000000000E+00 -0.45593999997E+02  0.45594000000E+02  0.51100000000E-03 0. -1.
    9900012    2    1    2    0    0  0.14875884497E+02 -0.28419190728E+02 -0.24984486309E+02  0.50528844852E+02  0.29999954413E+02 0.  0.
        -12    1    1    2    0    0 -0.14875884497E+02  0.28419190728E+02  0.24984486309E+02  0.40659155148E+02  0.00000000000E+00 0.  1.
         11    1    3    3    0    0  0.20630101377E+01  0.12950760257E+01 -0.20220932550E+01  0.31657691220E+01  0.51100000000E-03 0. -1.
        -11    1    3    3    0    0  0.73537636204E+01 -0.14792027557E+01 -0.16153341614E+02  0.17810006338E+02  0.51100000000E-03 0.  1.
         12    1    3    3    0    0  0.54591107393E+01 -0.28235063998E+02 -0.68090514400E+01  0.29553069393E+02  0.00000000000E+00 0. -1.
</event>
<event>
 7    1  0.2817603E-011  0.5052886E+02  0.7816164E-02  0.1300439E+00
        -11   -1    0    0    0    0  0.00000000000E+00  0.00000000000E+00  0.45593999997E+02  0.45594000000E+02  0.51100000000E-03 0. -1.
         11   -1    0    0    0    0 -0.00000000000E+00 -0.00000000000E+00 -0.45593999997E+02  0.45594000000E+02  0.51100000000E-03 0.  1.
    9900012    2    1    2    0    0  0.35145816665E+02  0.91445225620E+01  0.18284286426E+02  0.50528857706E+02  0.29999993484E+02 0.  0.
        -12    1    1    2    0    0 -0.35145816665E+02 -0.91445225620E+01 -0.18284286426E+02  0.40659142294E+02  0.00000000000E+00 0.  1.
         11    1    3    3    0    0  0.78260315461E+01 -0.52915242136E+01 -0.71877281928E+00  0.94743671499E+01  0.51100000000E-03 0. -1.
        -11    1    3    3    0    0  0.15153163694E+02  0.11463291168E+02  0.87521049799E+00  0.19020815125E+02  0.51100000000E-03 0.  1.
         12    1    3    3    0    0  0.12166621425E+02  0.29727556075E+01  0.18127848747E+02  0.22033675431E+02  0.00000000000E+00 0. -1.
</event>
<event>
 7    1  0.2817603E-011  0.5052886E+02  0.7816164E-02  0.1300439E+00
        -11   -1    0    0    0    0  0.00000000000E+00  0.00000000000E+00  0.45593999997E+02  0.45594000000E+02  0.51100000000E-03 0.  1.
         11   -1    0    0    0    0 -0.00000000000E+00 -0.00000000000E+00 -0.45593999997E+02  0.45594000000E+02  0.51100000000E-03 0. -1.
    9900012    2    1    2    0    0 -0.23620779998E+02  0.32832253739E+02 -0.41554214611E+01  0.50528860058E+02  0.30000000633E+02 0.  0.
        -12    1    1    2    0    0  0.23620779998E+02 -0.32832253739E+02  0.41554214611E+01  0.40659139942E+02  0.00000000000E+00 0.  1.
         11    1    3    3    0    0 -0.75603858743E+01  0.23300398981E-01 -0.38064051591E+01  0.84645553914E+01  0.51100000000E-03 0. -1.
        -11    1    3    3    0    0 -0.17800140573E+02  0.12686869828E+02  0.20279490782E+00  0.21859615653E+02  0.51100000000E-03 0.  1.
        -12    1    3    3    0    0  0.17397464488E+01  0.20122083511E+02 -0.55181120981E+00  0.20204689014E+02  0.00000000000E+00 0.  1.
</event>
<event>
 7    1  0.2817603E-011  0.5052885E+02  0.7816164E-02  0.1300439E+00
        -11   -1    0    0    0    0  0.00000000000E+00  0.00000000000E+00  0.45593999997E+02  0.45594000000E+02  0.51100000000E-03 0.  1.
         11   -1    0    0    0    0 -0.00000000000E+00 -0.00000000000E+00 -0.45593999997E+02  0.45594000000E+02  0.51100000000E-03 0. -1.
    9900012    2    1    2    0    0 -0.26680325406E+02  0.17731978881E+02 -0.25038037889E+02  0.50528853672E+02  0.29999981221E+02 0.  0.
        -12    1    1    2    0    0  0.26680325406E+02 -0.17731978881E+02  0.25038037889E+02  0.40659146328E+02  0.00000000000E+00 0.  1.
         11    1    3    3    0    0 -0.68773351772E+01  0.15648387660E+02 -0.17922861389E+02  0.24766887898E+02  0.51100000000E-03 0. -1.
        -11    1    3    3    0    0 -0.15338263349E+02  0.73078114537E+01 -0.18219290319E+01  0.17087593641E+02  0.51100000000E-03 0.  1.
        -12    1    3    3    0    0 -0.44647268801E+01 -0.52242202323E+01 -0.52932474674E+01  0.86743721329E+01  0.00000000000E+00 0.  1.
</event>
<event>
 7    1  0.2817603E-011  0.5052885E+02  0.7816164E-02  0.1300439E+00
        -11   -1    0    0    0    0  0.00000000000E+00  0.00000000000E+00  0.45593999997E+02  0.45594000000E+02  0.51100000000E-03 0. -1.
         11   -1    0    0    0    0 -0.00000000000E+00 -0.00000000000E+00 -0.45593999997E+02  0.45594000000E+02  0.51100000000E-03 0.  1.
    9900012    2    1    2    0    0 -0.34592074352E+01 -0.11597314461E+02  0.38816262925E+02  0.50528854826E+02  0.29999984729E+02 0.  0.
        -12    1    1    2    0    0  0.34592074352E+01  0.11597314461E+02 -0.38816262925E+02  0.40659145174E+02  0.00000000000E+00 0.  1.
         11    1    3    3    0    0  0.13338325309E+01  0.17116481239E+00  0.17121866747E+00  0.13556263153E+01  0.51100000000E-03 0. -1.
        -11    1    3    3    0    0  0.46777645278E+01 -0.15913134919E+02  0.11657303505E+02  0.20273185965E+02  0.51100000000E-03 0.  1.
         12    1    3    3    0    0 -0.94708044939E+01  0.41446556452E+01  0.26987740753E+02  0.28900042546E+02  0.00000000000E+00 0. -1.
</event>
<event>
 7    1  0.2817603E-011  0.5052887E+02  0.7816164E-02  0.1300439E+00
        -11   -1    0    0    0    0  0.00000000000E+00  0.00000000000E+00  0.45593999997E+02  0.45594000000E+02  0.51100000000E-03 0.  1.
         11   -1    0    0    0    0 -0.00000000000E+00 -0.00000000000E+00 -0.45593999997E+02  0.45594000000E+02  0.51100000000E-03 0. -1.
    9900012    2    1    2    0    0  0.32775223384E+02 -0.77960932405E+00 -0.24048743269E+02  0.50528866815E+02  0.30000021171E+02 0.  0.
        -12    1    1    2    0    0 -0.32775223384E+02  0.77960932405E+00  0.24048743269E+02  0.40659133185E+02  0.00000000000E+00 0.  1.
         11    1    3    3    0    0  0.52149144697E+01 -0.73927226984E+01 -0.14124924252E+02  0.16773823870E+02  0.51100000000E-03 0. -1.
        -11    1    3    3    0    0  0.34874243398E+01 -0.23243348667E+01 -0.66614992747E+01  0.78702118108E+01  0.51100000000E-03 0.  1.
         12    1    3    3    0    0  0.24072884574E+02  0.89374482410E+01 -0.32623197422E+01  0.25884831135E+02  0.00000000000E+00 0. -1.
</event>
<event>
 7    1  0.2817603E-011  0.5052886E+02  0.7816164E-02  0.1300439E+00
        -11   -1    0    0    0    0  0.00000000000E+00  0.00000000000E+00  0.45593999997E+02  0.45594000000E+02  0.51100000000E-03 0. -1.
         11   -1    0    0    0    0 -0.00000000000E+00 -0.00000000000E+00 -0.45593999997E+02  0.45594000000E+02  0.51100000000E-03 0.  1.
    9900012    2    1    2    0    0  0.31609586026E+02 -0.21177616986E+02  0.14335562246E+02  0.50528859147E+02  0.29999997865E+02 0.  0.
        -12    1    1    2    0    0 -0.31609586026E+02  0.21177616986E+02 -0.14335562246E+02  0.40659140853E+02  0.00000000000E+00 0.  1.
         11    1    3    3    0    0  0.18218278014E+02 -0.16957539864E+02  0.84819471535E+01  0.26294623781E+02  0.51100000000E-03 0. -1.
        -11    1    3    3    0    0 -0.29851926165E+01 -0.35455050343E+01  0.63198112347E+01  0.78372185888E+01  0.51100000000E-03 0.  1.
         12    1    3    3    0    0  0.16376500629E+02 -0.67457208792E+00 -0.46619614217E+00  0.16397016778E+02  0.00000000000E+00 0. -1.
</event>
<event>
 7    1  0.2817603E-011  0.5052887E+02  0.7816164E-02  0.1300439E+00
        -11   -1    0    0    0    0  0.00000000000E+00  0.00000000000E+00  0.45593999997E+02  0.45594000000E+02  0.51100000000E-03 0.  1.
         11   -1    0    0    0    0 -0.00000000000E+00 -0.00000000000E+00 -0.45593999997E+02  0.45594000000E+02  0.51100000000E-03 0. -1.
    9900012    2    1    2    0    0  0.15345755271E+02  0.20501539541E+02 -0.31581001749E+02  0.50528868186E+02  0.30000025337E+02 0.  0.
        -12    1    1    2    0    0 -0.15345755271E+02 -0.20501539541E+02  0.31581001749E+02  0.40659131814E+02  0.00000000000E+00 0.  1.
         11    1    3    3    0    0  0.58483189468E+01  0.29812399829E+01 -0.35355744015E+00  0.65738595561E+01  0.51100000000E-03 0. -1.
        -11    1    3    3    0    0  0.51222196102E+01 -0.17605390281E+01  0.15875645359E+01  0.56441999275E+01  0.51100000000E-03 0.  1.
        -12    1    3    3    0    0  0.43752167139E+01  0.19280838586E+02 -0.32815008845E+02  0.38310808702E+02  0.00000000000E+00 0.  1.
</event>
<event>
 7    1  0.2817603E-011  0.5052886E+02  0.7816164E-02  0.1300439E+00
        -11   -1    0    0    0    0  0.00000000000E+00  0.00000000000E+00  0.45593999997E+02  0.45594000000E+02  0.51100000000E-03 0.  1.
         11   -1    0    0    0    0 -0.00000000000E+00 -0.00000000000E+00 -0.45593999997E+02  0.45594000000E+02  0.51100000000E-03 0. -1.
    9900012    2    1    2    0    0  0.63835564957E+01 -0.69704789666E+01 -0.39545271356E+02  0.50528857643E+02  0.29999993293E+02 0.  0.
        -12    1    1    2    0    0 -0.63835564957E+01  0.69704789666E+01  0.39545271356E+02  0.40659142357E+02  0.00000000000E+00 0.  1.
         11    1    3    3    0    0 -0.51101617791E+01 -0.45538360956E+00 -0.10365044123E+02  0.11565261241E+02  0.51100000000E-03 0. -1.
        -11    1    3    3    0    0  0.79427731137E+01  0.83480287152E+00 -0.29728378054E+02  0.30782478824E+02  0.51100000000E-03 0.  1.
        -12    1    3    3    0    0  0.35509451611E+01 -0.73498982285E+01  0.54815082109E+00  0.81811175783E+01  0.00000000000E+00 0.  1.
</event>
<event>
 7    1  0.2817603E-011  0.5052886E+02  0.7816164E-02  0.1300439E+00
        -11   -1    0    0    0    0  0.00000000000E+00  0.00000000000E+00  0.45593999997E+02  0.45594000000E+02  0.51100000000E-03 0.  1.
         11   -1    0    0    0    0 -0.00000000000E+00 -0.00000000000E+00 -0.45593999997E+02  0.45594000000E+02  0.51100000000E-03 0. -1.
    9900012    2    1    2    0    0 -0.37925242973E+02 -0.14633534648E+01 -0.14584243816E+02  0.50528860491E+02  0.30000001949E+02 0.  0.
        -12    1    1    2    0    0  0.37925242973E+02  0.14633534648E+01  0.14584243816E+02  0.40659139509E+02  0.00000000000E+00 0.  1.
         11    1    3    3    0    0  0.29341860703E+01  0.37310094001E+01 -0.14755165002E+01  0.49706164851E+01  0.51100000000E-03 0. -1.
        -11    1    3    3    0    0 -0.32605748945E+01 -0.50029125114E+01 -0.26365817010E+01  0.65277902514E+01  0.51100000000E-03 0.  1.
        -12    1    3    3    0    0 -0.37598854149E+02 -0.19145035357E+00 -0.10472145614E+02  0.39030453755E+02  0.00000000000E+00 0.  1.
</event>
<event>
 7    1  0.2817603E-011  0.5052886E+02  0.7816164E-02  0.1300439E+00
        -11   -1    0    0    0    0  0.00000000000E+00  0.00000000000E+00  0.45593999997E+02  0.45594000000E+02  0.51100000000E-03 0.  1.
         11   -1    0    0    0    0 -0.00000000000E+00 -0.00000000000E+00 -0.45593999997E+02  0.45594000000E+02  0.51100000000E-03 0. -1.
    9900012    2    1    2    0    0 -0.32484669978E+02 -0.18989374088E+02 -0.15405036884E+02  0.50528864825E+02  0.30000015121E+02 0.  0.
        -12    1    1    2    0    0  0.32484669978E+02  0.18989374088E+02  0.15405036884E+02  0.40659135175E+02  0.00000000000E+00 0.  1.
         11    1    3    3    0    0 -0.75848225452E+01 -0.10916251719E+02  0.35241792252E+01  0.13751869840E+02  0.51100000000E-03 0. -1.
        -11    1    3    3    0    0  0.94681036272E+00  0.23039452496E+01 -0.51107749897E+01  0.56854757789E+01  0.51100000000E-03 0.  1.
         12    1    3    3    0    0 -0.25846657795E+02 -0.10377067619E+02 -0.13818441119E+02  0.31091519205E+02  0.00000000000E+00 0. -1.
</event>
<event>
 7    1  0.2817603E-011  0.5052886E+02  0.7816164E-02  0.1300439E+00
        -11   -1    0    0    0    0  0.00000000000E+00  0.00000000000E+00  0.45593999997E+02  0.45594000000E+02  0.51100000000E-03 0. -1.
         11   -1    0    0    0    0 -0.00000000000E+00 -0.00000000000E+00 -0.45593999997E+02  0.45594000000E+02  0.51100000000E-03 0.  1.
    9900012    2    1    2    0    0  0.30359751873E+02 -0.12861649679E+02  0.23791374520E+02  0.50528855053E+02  0.29999985420E+02 0.  0.
        -12    1    1    2    0    0 -0.30359751873E+02  0.12861649679E+02 -0.23791374520E+02  0.40659144947E+02  0.00000000000E+00 0.  1.
         11    1    3    3    0    0  0.11864360944E+02 -0.87471930408E+01  0.47249003881E+01  0.15479054578E+02  0.51100000000E-03 0. -1.
        -11    1    3    3    0    0  0.13954399208E+02  0.44702476235E+01  0.11844388080E+01  0.14700723336E+02  0.51100000000E-03 0.  1.
         12    1    3    3    0    0  0.45409917219E+01 -0.85847042616E+01  0.17882035324E+02  0.20349077139E+02  0.00000000000E+00 0. -1.
</event>
<event>
 7    1  0.2817603E-011  0.5052886E+02  0.7816164E-02  0.1300439E+00
        -11   -1    0    0    0    0  0.00000000000E+00  0.00000000000E+00  0.45593999997E+02  0.45594000000E+02  0.51100000000E-03 0.  1.
         11   -1    0    0    0    0 -0.00000000000E+00 -0.00000000000E+00 -0.45593999997E+02  0.45594000000E+02  0.51100000000E-03 0. -1.
    9900012    2    1    2    0    0 -0.11737252867E+02 -0.31350724039E+02 -0.23076715905E+02  0.50528858105E+02  0.29999994697E+02 0.  0.
        -12    1    1    2    0    0  0.11737252867E+02  0.31350724039E+02  0.23076715905E+02  0.40659141895E+02  0.00000000000E+00 0.  1.
         11    1    3    3    0    0 -0.13436324242E+02 -0.25561447212E+02 -0.25952009774E+02  0.38825625613E+02  0.51100000000E-03 0. -1.
        -11    1    3    3    0    0 -0.34933844807E+00 -0.11450975207E+01 -0.34159454199E+01  0.36196642187E+01  0.51100000000E-03 0.  1.
        -12    1    3    3    0    0  0.20484098233E+01 -0.46441793067E+01  0.62912392887E+01  0.80835682730E+01  0.00000000000E+00 0.  1.
</event>
<event>
 7    1  0.2817603E-011  0.5052886E+02  0.7816164E-02  0.1300439E+00
        -11   -1    0    0    0    0  0.00000000000E+00  0.00000000000E+00  0.45593999997E+02  0.45594000000E+02  0.51100000000E-03 0. -1.
         11   -1    0    0    0    0 -0.00000000000E+00 -0.00000000000E+00 -0.45593999997E+02  0.45594000000E+02  0.51100000000E-03 0.  1.
    9900012    2    1    2    0    0  0.22564710963E+02 -0.29733081615E+02  0.16122769709E+02  0.50528855564E+02  0.29999986973E+02 0.  0.
        -12    1    1    2    0    0 -0.22564710963E+02  0.29733081615E+02 -0.16122769709E+02  0.40659144436E+02  0.00000000000E+00 0.  1.
         11    1    3    3    0    0  0.25906092103E+01 -0.82036530278E+01  0.67149607201E+01  0.10913380632E+02  0.51100000000E-03 0. -1.
        -11    1    3    3    0    0  0.10149929150E+02 -0.21344595730E+02  0.15303156636E+02  0.28156694264E+02  0.51100000000E-03 0.  1.
        -12    1    3    3    0    0  0.98241726027E+01 -0.18483285773E+00 -0.58953476473E+01  0.11458780668E+02  0.00000000000E+00 0.  1.
</event>
<event>
 7    1  0.2817603E-011  0.5052886E+02  0.7816164E-02  0.1300439E+00
        -11   -1    0    0    0    0  0.00000000000E+00  0.00000000000E+00  0.45593999997E+02  0.45594000000E+02  0.51100000000E-03 0. -1.
         11   -1    0    0    0    0 -0.00000000000E+00 -0.00000000000E+00 -0.45593999997E+02  0.45594000000E+02  0.51100000000E-03 0.  1.
    9900012    2    1    2    0    0 -0.16182720524E+02  0.37262313499E+02 -0.16748873756E+01  0.50528859594E+02  0.29999999222E+02 0.  0.
        -12    1    1    2    0    0  0.16182720524E+02 -0.37262313499E+02  0.16748873756E+01  0.40659140406E+02  0.00000000000E+00 0.  1.
         11    1    3    3    0    0  0.35759961484E+01  0.56851786628E+01  0.13992932937E+01  0.68605412953E+01  0.51100000000E-03 0. -1.
        -11    1    3    3    0    0  0.43340450943E+01  0.10996307952E+02  0.12964883486E+00  0.11820302218E+02  0.51100000000E-03 0.  1.
         12    1    3    3    0    0 -0.24092761767E+02  0.20580826884E+02 -0.32038295042E+01  0.31848016080E+02  0.00000000000E+00 0. -1.
</event>
<event>
 7    1  0.2817603E-011  0.5052887E+02  0.7816164E-02  0.1300439E+00
        -11   -1    0    0    0    0  0.00000000000E+00  0.00000000000E+00  0.45593999997E+02  0.45594000000E+02  0.51100000000E-03 0. -1.
         11   -1    0    0    0    0 -0.00000000000E+00 -0.00000000000E+00 -0.45593999997E+02  0.45594000000E+02  0.51100000000E-03 0.  1.
    9900012    2    1    2    0    0 -0.64987134726E+01 -0.31614462284E+02  0.24727660585E+02  0.50528871870E+02  0.30000036536E+02 0.  0.
        -12    1    1    2    0    0  0.64987134726E+01  0.31614462284E+02 -0.24727660585E+02  0.40659128130E+02  0.00000000000E+00 0.  1.
         11    1    3    3    0    0  0.35053399923E+01 -0.52492074900E+01  0.12710913139E+02  0.14191860372E+02  0.51100000000E-03 0. -1.
        -11    1    3    3    0    0  0.29632421715E+01 -0.79452984385E+01 -0.32968379889E+01  0.90982257847E+01  0.51100000000E-03 0.  1.
        -12    1    3    3    0    0 -0.12967295636E+02 -0.18419956356E+02  0.15313585435E+02  0.27238785713E+02  0.00000000000E+00 0.  1.
</event>
<event>
 7    1  0.2817603E-011  0.5052887E+02  0.7816164E-02  0.1300439E+00
        -11   -1    0    0    0    0  0.00000000000E+00  0.00000000000E+00  0.45593999997E+02  0.45594000000E+02  0.51100000000E-03 0.  1.
         11   -1    0    0    0    0 -0.00000000000E+00 -0.00000000000E+00 -0.45593999997E+02  0.45594000000E+02  0.51100000000E-03 0. -1.
    9900012    2    1    2    0    0  0.16379265773E+02 -0.30899092492E+02 -0.20739590472E+02  0.50528869697E+02  0.30000029930E+02 0.  0.
        -12    1    1    2    0    0 -0.16379265773E+02  0.30899092492E+02  0.20739590472E+02  0.40659130303E+02  0.00000000000E+00 0.  1.
         11    1    3    3    0    0  0.62354174195E+01 -0.66335358649E+01 -0.20362349293E+02  0.22304920925E+02  0.51100000000E-03 0. -1.
        -11    1    3    3    0    0  0.19793186951E+01  0.57573716214E+00  0.18195090748E+00  0.20693675775E+01  0.51100000000E-03 0.  1.
         12    1    3    3    0    0  0.81645296581E+01 -0.24841293789E+02 -0.55919208634E+00  0.26154581194E+02  0.00000000000E+00 0. -1.
</event>
<event>
 7    1  0.2817603E-011  0.5052887E+02  0.7816164E-02  0.1300439E+00
        -11   -1    0    0    0    0  0.00000000000E+00  0.00000000000E+00  0.45593999997E+02  0.45594000000E+02  0.51100000000E-03 0.  1.
         11   -1    0    0    0    0 -0.00000000000E+00 -0.00000000000E+00 -0.45593999997E+02  0.45594000000E+02  0.51100000000E-03 0. -1.
    9900012    2    1    2    0    0 -0.22422515699E+02  0.32665065094E+02  0.91317778730E+01  0.50528867508E+02  0.30000023278E+02 0.  0.
        -12    1    1    2    0    0  0.22422515699E+02 -0.32665065094E+02 -0.91317778730E+01  0.40659132492E+02  0.00000000000E+00 0.  1.
         11    1    3    3    0    0 -0.46433256253E+01  0.69823117800E+01  0.11181311088E+02  0.13976225118E+02  0.51100000000E-03 0. -1.
        -11    1    3    3    0    0  0.23782580621E+01  0.86184520870E+01  0.34367248872E+01  0.95783561218E+01  0.51100000000E-03 0.  1.
         12    1    3    3    0    0 -0.20157448135E+02  0.17064301227E+02 -0.54862581018E+01  0.26974286268E+02  0.00000000000E+00 0. -1.
</event>
<event>
 7    1  0.2817603E-011  0.5052888E+02  0.7816164E-02  0.1300439E+00
        -11   -1    0    0    0    0  0.00000000000E+00  0.00000000000E+00  0.45593999997E+02  0.45594000000E+02  0.51100000000E-03 0.  1.
         11   -1    0    0    0    0 -0.00000000000E+00 -0.00000000000E+00 -0.45593999997E+02  0.45594000000E+02  0.51100000000E-03 0. -1.
    9900012    2    1    2    0    0  0.16092508360E+02  0.11261501459E+02 -0.35600190564E+02  0.50528882835E+02  0.30000069867E+02 0.  0.
        -12    1    1    2    0    0 -0.16092508360E+02 -0.11261501459E+02  0.35600190564E+02  0.40659117165E+02  0.00000000000E+00 0.  1.
         11    1    3    3    0    0  0.98676250824E+01  0.67724276897E+00 -0.12523455560E+02  0.15958246205E+02  0.51100000000E-03 0. -1.
        -11    1    3    3    0    0  0.54695567664E+01 -0.12698890215E+01 -0.21929755504E+02  0.22637200491E+02  0.51100000000E-03 0.  1.
        -12    1    3    3    0    0  0.75532651093E+00  0.11854147712E+02 -0.11469795003E+01  0.11933436139E+02  0.00000000000E+00 0.  1.
</event>
<event>
 7    1  0.2817603E-011  0.5052886E+02  0.7816164E-02  0.1300439E+00
        -11   -1    0    0    0    0  0.00000000000E+00  0.00000000000E+00  0.45593999997E+02  0.45594000000E+02  0.51100000000E-03 0.  1.
         11   -1    0    0    0    0 -0.00000000000E+00 -0.00000000000E+00 -0.45593999997E+02  0.45594000000E+02  0.51100000000E-03 0. -1.
    9900012    2    1    2    0    0  0.63785613115E+01  0.38649534834E+02 -0.10894651387E+02  0.50528855688E+02  0.29999987351E+02 0.  0.
        -12    1    1    2    0    0 -0.63785613115E+01 -0.38649534834E+02  0.10894651387E+02  0.40659144312E+02  0.00000000000E+00 0.  1.
         11    1    3    3    0    0  0.97561249364E+00  0.18555342297E+02 -0.61909831515E+01  0.19585219430E+02  0.51100000000E-03 0. -1.
        -11    1    3    3    0    0 -0.11554550090E+01  0.22984275985E+02 -0.14110435366E+01  0.23056518882E+02  0.51100000000E-03 0.  1.
         12    1    3    3    0    0  0.65584038269E+01 -0.28900834480E+01 -0.32926246984E+01  0.78871173756E+01  0.00000000000E+00 0. -1.
</event>
<event>
 7    1  0.2817603E-011  0.5052886E+02  0.7816164E-02  0.1300439E+00
        -11   -1    0    0    0    0  0.00000000000E+00  0.00000000000E+00  0.45593999997E+02  0.45594000000E+02  0.51100000000E-03 0. -1.
         11   -1    0    0    0    0 -0.00000000000E+00 -0.00000000000E+00 -0.45593999997E+02  0.45594000000E+02  0.51100000000E-03 0.  1.
    9900012    2    1    2    0    0 -0.15373359306E+01 -0.83356499837E+01  0.39765804720E+02  0.50528859730E+02  0.29999999637E+02 0.  0.
        -12    1    1    2    0    0  0.15373359306E+01  0.83356499837E+01 -0.39765804720E+02  0.40659140270E+02  0.00000000000E+00 0.  1.
         11    1    3    3    0    0 -0.57897776826E+01  0.22435579569E+01  0.21110464245E+02  0.22004699017E+02  0.51100000000E-03 0.  1.
        -11    1    3    3    0    0 -0.66050263517E+01 -0.61729917020E+01  0.12078360458E+02  0.15087047135E+02  0.51100000000E-03 0. -1.
         12    1    3    3    0    0  0.10857468104E+02 -0.44062162386E+01  0.65769800178E+01  0.13437113578E+02  0.00000000000E+00 0. -1.
</event>
<event>
 7    1  0.2817603E-011  0.5052886E+02  0.7816164E-02  0.1300439E+00
        -11   -1    0    0    0    0  0.00000000000E+00  0.00000000000E+00  0.45593999997E+02  0.45594000000E+02  0.51100000000E-03 0.  1.
         11   -1    0    0    0    0 -0.00000000000E+00 -0.00000000000E+00 -0.45593999997E+02  0.45594000000E+02  0.51100000000E-03 0. -1.
    9900012    2    1    2    0    0 -0.29194104673E+02  0.13680705944E+02 -0.24773138178E+02  0.50528857880E+02  0.29999994011E+02 0.  0.
        -12    1    1    2    0    0  0.29194104673E+02 -0.13680705944E+02  0.24773138178E+02  0.40659142120E+02  0.00000000000E+00 0.  1.
         11    1    3    3    0    0 -0.51160712908E+01 -0.37904125987E+01  0.21667860553E+01  0.67257992233E+01  0.51100000000E-03 0. -1.
        -11    1    3    3    0    0  0.90672886626E+00  0.26643554753E+01  0.14702237805E+01  0.31752961376E+01  0.51100000000E-03 0.  1.
         12    1    3    3    0    0 -0.24984762248E+02  0.14806763068E+02 -0.28410148013E+02  0.40627762519E+02  0.00000000000E+00 0. -1.
</event>
<event>
 7    1  0.2817603E-011  0.5052886E+02  0.7816164E-02  0.1300439E+00
        -11   -1    0    0    0    0  0.00000000000E+00  0.00000000000E+00  0.45593999997E+02  0.45594000000E+02  0.51100000000E-03 0.  1.
         11   -1    0    0    0    0 -0.00000000000E+00 -0.00000000000E+00 -0.45593999997E+02  0.45594000000E+02  0.51100000000E-03 0. -1.
    9900012    2    1    2    0    0  0.19909025667E+02 -0.35114755516E+02  0.48734619581E+01  0.50528856018E+02  0.29999988351E+02 0.  0.
        -12    1    1    2    0    0 -0.19909025667E+02  0.35114755516E+02 -0.48734619581E+01  0.40659143982E+02  0.00000000000E+00 0.  1.
         11    1    3    3    0    0  0.73971465538E+01 -0.65703637257E+01  0.89850843988E+01  0.13364849365E+02  0.51100000000E-03 0.  1.
        -11    1    3    3    0    0 -0.15075392197E+01 -0.11856388980E+01  0.47898866744E+01  0.51595957893E+01  0.51100000000E-03 0. -1.
         12    1    3    3    0    0  0.14019418333E+02 -0.27358752892E+02 -0.89015091151E+01  0.32004410863E+02  0.00000000000E+00 0. -1.
</event>
<event>
 7    1  0.2817603E-011  0.5052890E+02  0.7816164E-02  0.1300439E+00
        -11   -1    0    0    0    0  0.00000000000E+00  0.00000000000E+00  0.45593999997E+02  0.45594000000E+02  0.51100000000E-03 0.  1.
         11   -1    0    0    0    0 -0.00000000000E+00 -0.00000000000E+00 -0.45593999997E+02  0.45594000000E+02  0.51100000000E-03 0. -1.
    9900012    2    1    2    0    0  0.13841728913E+02 -0.91228185364E+00 -0.38219585305E+02  0.50528899932E+02  0.30000121832E+02 0.  0.
        -12    1    1    2    0    0 -0.13841728913E+02  0.91228185364E+00  0.38219585305E+02  0.40659100068E+02  0.00000000000E+00 0.  1.
         11    1    3    3    0    0 -0.48903751133E+01 -0.91635247679E+00 -0.14771834394E+02  0.15587256405E+02  0.51100000000E-03 0. -1.
        -11    1    3    3    0    0  0.28644578641E+01  0.72975035763E+00  0.29226047717E+01  0.41568345351E+01  0.51100000000E-03 0.  1.
         12    1    3    3    0    0  0.15867646162E+02 -0.72567973448E+00 -0.26370355683E+02  0.30784808991E+02  0.00000000000E+00 0. -1.
</event>
<event>
 7    1  0.2817603E-011  0.5052884E+02  0.7816164E-02  0.1300439E+00
        -11   -1    0    0    0    0  0.00000000000E+00  0.00000000000E+00  0.45593999997E+02  0.45594000000E+02  0.51100000000E-03 0. -1.
         11   -1    0    0    0    0 -0.00000000000E+00 -0.00000000000E+00 -0.45593999997E+02  0.45594000000E+02  0.51100000000E-03 0.  1.
    9900012    2    1    2    0    0 -0.10366691693E+01 -0.14248689260E+02  0.38066617132E+02  0.50528841518E+02  0.29999944278E+02 0.  0.
        -12    1    1    2    0    0  0.10366691693E+01  0.14248689260E+02 -0.38066617132E+02  0.40659158482E+02  0.00000000000E+00 0.  1.
         11    1    3    3    0    0  0.13387955868E-01 -0.47596600744E+01  0.25176422267E+02  0.25622388291E+02  0.51100000000E-03 0. -1.
        -11    1    3    3    0    0  0.53258212085E+00  0.57001565628E+01  0.55078098202E+01  0.79442682378E+01  0.51100000000E-03 0.  1.
        -12    1    3    3    0    0 -0.15826392460E+01 -0.15189185748E+02  0.73823850443E+01  0.16962184990E+02  0.00000000000E+00 0.  1.
</event>
<event>
 7    1  0.2817603E-011  0.5052886E+02  0.7816164E-02  0.1300439E+00
        -11   -1    0    0    0    0  0.00000000000E+00  0.00000000000E+00  0.45593999997E+02  0.45594000000E+02  0.51100000000E-03 0.  1.
         11   -1    0    0    0    0 -0.00000000000E+00 -0.00000000000E+00 -0.45593999997E+02  0.45594000000E+02  0.51100000000E-03 0. -1.
    9900012    2    1    2    0    0  0.10270850477E+02  0.37042146083E+01 -0.39165722145E+02  0.50528863677E+02  0.30000011632E+02 0.  0.
        -12    1    1    2    0    0 -0.10270850477E+02 -0.37042146083E+01  0.39165722145E+02  0.40659136323E+02  0.00000000000E+00 0.  1.
         11    1    3    3    0    0 -0.82663434218E+01 -0.15968165008E+00 -0.69969940780E+01  0.10831244535E+02  0.51100000000E-03 0. -1.
        -11    1    3    3    0    0  0.88728391315E+01  0.62966157228E+01 -0.78506012533E+01  0.13416653238E+02  0.51100000000E-03 0.  1.
        -12    1    3    3    0    0  0.96643547677E+01 -0.24327194645E+01 -0.24318126814E+02  0.26280965903E+02  0.00000000000E+00 0.  1.
</event>
<event>
 7    1  0.2817603E-011  0.5052886E+02  0.7816164E-02  0.1300439E+00
        -11   -1    0    0    0    0  0.00000000000E+00  0.00000000000E+00  0.45593999997E+02  0.45594000000E+02  0.51100000000E-03 0.  1.
         11   -1    0    0    0    0 -0.00000000000E+00 -0.00000000000E+00 -0.45593999997E+02  0.45594000000E+02  0.51100000000E-03 0. -1.
    9900012    2    1    2    0    0  0.98302024416E+01 -0.38969257639E+01 -0.39259986933E+02  0.50528862227E+02  0.30000007226E+02 0.  0.
        -12    1    1    2    0    0 -0.98302024416E+01  0.38969257639E+01  0.39259986933E+02  0.40659137773E+02  0.00000000000E+00 0.  1.
         11    1    3    3    0    0  0.59831725289E+01 -0.12960558470E+02 -0.26548439095E+02  0.30142893823E+02  0.51100000000E-03 0. -1.
        -11    1    3    3    0    0  0.78811137843E+00  0.88550271243E-01 -0.10653721228E+02  0.10683198817E+02  0.51100000000E-03 0.  1.
        -12    1    3    3    0    0  0.30589185343E+01  0.89750824345E+01 -0.20578266091E+01  0.97027695871E+01  0.00000000000E+00 0.  1.
</event>
<event>
 7    1  0.2817603E-011  0.5052886E+02  0.7816164E-02  0.1300439E+00
        -11   -1    0    0    0    0  0.00000000000E+00  0.00000000000E+00  0.45593999997E+02  0.45594000000E+02  0.51100000000E-03 0.  1.
         11   -1    0    0    0    0 -0.00000000000E+00 -0.00000000000E+00 -0.45593999997E+02  0.45594000000E+02  0.51100000000E-03 0. -1.
    9900012    2    1    2    0    0 -0.30350269182E+02 -0.17444501588E+02 -0.20681298945E+02  0.50528860792E+02  0.30000002864E+02 0.  0.
        -12    1    1    2    0    0  0.30350269182E+02  0.17444501588E+02  0.20681298945E+02  0.40659139208E+02  0.00000000000E+00 0.  1.
         11    1    3    3    0    0 -0.19764019145E+02 -0.13639422792E+02 -0.42428042367E+01  0.24385481232E+02  0.51100000000E-03 0. -1.
        -11    1    3    3    0    0 -0.10006447499E+02 -0.71317969263E+01 -0.35073942155E+01  0.12778627993E+02  0.51100000000E-03 0.  1.
         12    1    3    3    0    0 -0.57980253817E+00  0.33267181297E+01 -0.12931100493E+02  0.13364751567E+02  0.00000000000E+00 0. -1.
</event>
<event>
 7    1  0.2817603E-011  0.5052884E+02  0.7816164E-02  0.1300439E+00
        -11   -1    0    0    0    0  0.00000000000E+00  0.00000000000E+00  0.45593999997E+02  0.45594000000E+02  0.51100000000E-03 0.  1.
         11   -1    0    0    0    0 -0.00000000000E+00 -0.00000000000E+00 -0.45593999997E+02  0.45594000000E+02  0.51100000000E-03 0. -1.
    9900012    2    1    2    0    0  0.25347690944E+02  0.27561436867E+02 -0.15843887477E+02  0.50528843482E+02  0.29999950248E+02 0.  0.
        -12    1    1    2    0    0 -0.25347690944E+02 -0.27561436867E+02  0.15843887477E+02  0.40659156518E+02  0.00000000000E+00 0.  1.
         11    1    3    3    0    0  0.10078798882E+02  0.11534906703E+02 -0.25831751229E+01  0.15534125451E+02  0.51100000000E-03 0. -1.
        -11    1    3    3    0    0  0.21291817222E+02  0.14690030703E+02 -0.12649940154E+02  0.28795129256E+02  0.51100000000E-03 0.  1.
        -12    1    3    3    0    0 -0.60229251609E+01  0.13364994607E+01 -0.61077220039E+00  0.61995887753E+01  0.00000000000E+00 0.  1.
</event>
<event>
 7    1  0.2817603E-011  0.5052885E+02  0.7816164E-02  0.1300439E+00
        -11   -1    0    0    0    0  0.00000000000E+00  0.00000000000E+00  0.45593999997E+02  0.45594000000E+02  0.51100000000E-03 0.  1.
         11   -1    0    0    0    0 -0.00000000000E+00 -0.00000000000E+00 -0.45593999997E+02  0.45594000000E+02  0.51100000000E-03 0. -1.
    9900012    2    1    2    0    0 -0.60721380786E+01 -0.30008541901E-01 -0.40203163153E+02  0.50528854794E+02  0.29999984631E+02 0.  0.
        -12    1    1    2    0    0  0.60721380786E+01  0.30008541901E-01  0.40203163153E+02  0.40659145206E+02  0.00000000000E+00 0.  1.
         11    1    3    3    0    0 -0.51340332714E+01  0.11370540877E+02 -0.14208748044E+02  0.18908622866E+02  0.51100000000E-03 0. -1.
        -11    1    3    3    0    0  0.25125975491E+01 -0.51474416040E+00  0.63784515518E+00  0.26429064867E+01  0.51100000000E-03 0.  1.
        -12    1    3    3    0    0 -0.34507023564E+01 -0.10885805259E+02 -0.26632260265E+02  0.28977325441E+02  0.00000000000E+00 0.  1.
</event>
<event>
 7    1  0.2817603E-011  0.5052887E+02  0.7816164E-02  0.1300439E+00
        -11   -1    0    0    0    0  0.00000000000E+00  0.00000000000E+00  0.45593999997E+02  0.45594000000E+02  0.51100000000E-03 0.  1.
         11   -1    0    0    0    0 -0.00000000000E+00 -0.00000000000E+00 -0.45593999997E+02  0.45594000000E+02  0.51100000000E-03 0. -1.
    9900012    2    1    2    0    0 -0.16409191055E+02  0.16549505822E+02 -0.33316922747E+02  0.50528867750E+02  0.30000024012E+02 0.  0.
        -12    1    1    2    0    0  0.16409191055E+02 -0.16549505822E+02  0.33316922747E+02  0.40659132250E+02  0.00000000000E+00 0.  1.
         11    1    3    3    0    0  0.38651568794E+01  0.68895783127E+01 -0.53869602602E+01  0.95616456813E+01  0.51100000000E-03 0. -1.
        -11    1    3    3    0    0  0.25394459174E+01  0.30865675536E+01  0.38527386728E+00  0.40154851568E+01  0.51100000000E-03 0.  1.
         12    1    3    3    0    0 -0.22813793851E+02  0.65733599560E+01 -0.28315236354E+02  0.36951736912E+02  0.00000000000E+00 0. -1.
</event>
<event>
 7    1  0.2817603E-011  0.5052887E+02  0.7816164E-02  0.1300439E+00
        -11   -1    0    0    0    0  0.00000000000E+00  0.00000000000E+00  0.45593999997E+02  0.45594000000E+02  0.51100000000E-03 0.  1.
         11   -1    0    0    0    0 -0.00000000000E+00 -0.00000000000E+00 -0.45593999997E+02  0.45594000000E+02  0.51100000000E-03 0. -1.
    9900012    2    1    2    0    0  0.29445660396E+02 -0.27989143164E+02  0.16510467382E+01  0.50528868104E+02  0.30000025088E+02 0.  0.
        -12    1    1    2    0    0 -0.29445660396E+02  0.27989143164E+02 -0.16510467382E+01  0.40659131896E+02  0.00000000000E+00 0.  1.
         11    1    3    3    0    0  0.31495372735E+01 -0.28642588966E+01 -0.70189271363E+01  0.82090743979E+01  0.51100000000E-03 0. -1.
        -11    1    3    3    0    0 -0.30267558228E+01 -0.34930613903E+01 -0.75218718426E+00  0.46827891804E+01  0.51100000000E-03 0.  1.
        -12    1    3    3    0    0  0.29322878946E+02 -0.21631822877E+02  0.94221610588E+01  0.37637004526E+02  0.00000000000E+00 0.  1.
</event>
<event>
 7    1  0.2817603E-011  0.5052885E+02  0.7816164E-02  0.1300439E+00
        -11   -1    0    0    0    0  0.00000000000E+00  0.00000000000E+00  0.45593999997E+02  0.45594000000E+02  0.51100000000E-03 0.  1.
         11   -1    0    0    0    0 -0.00000000000E+00 -0.00000000000E+00 -0.45593999997E+02  0.45594000000E+02  0.51100000000E-03 0. -1.
    9900012    2    1    2    0    0 -0.25500294777E+02 -0.33113109671E+01 -0.31495030755E+02  0.50528846340E+02  0.29999958936E+02 0.  0.
        -12    1    1    2    0    0  0.25500294777E+02  0.33113109671E+01  0.31495030755E+02  0.40659153660E+02  0.00000000000E+00 0.  1.
         11    1    3    3    0    0 -0.98403692727E+01  0.39235541068E+00 -0.97706205001E+01  0.13872701086E+02  0.51100000000E-03 0. -1.
        -11    1    3    3    0    0 -0.12894955767E+02  0.88269642585E+01 -0.69943680483E+01  0.17120641545E+02  0.51100000000E-03 0.  1.
         12    1    3    3    0    0 -0.27649697375E+01 -0.12530630636E+02 -0.14730042207E+02  0.19535503710E+02  0.00000000000E+00 0. -1.
</event>
<event>
 7    1  0.2817603E-011  0.5052888E+02  0.7816164E-02  0.1300439E+00
        -11   -1    0    0    0    0  0.00000000000E+00  0.00000000000E+00  0.45593999997E+02  0.45594000000E+02  0.51100000000E-03 0. -1.
         11   -1    0    0    0    0 -0.00000000000E+00 -0.00000000000E+00 -0.45593999997E+02  0.45594000000E+02  0.51100000000E-03 0.  1.
    9900012    2    1    2    0    0 -0.39497758857E+02 -0.12585434995E+01  0.95659436663E+01  0.50528878457E+02  0.30000056557E+02 0.  0.
        -12    1    1    2    0    0  0.39497758857E+02  0.12585434995E+01 -0.95659436663E+01  0.40659121543E+02  0.00000000000E+00 0.  1.
         11    1    3    3    0    0 -0.20146410374E+02 -0.31688389913E+01  0.68004717792E+01  0.21498041961E+02  0.51100000000E-03 0. -1.
        -11    1    3    3    0    0 -0.81704798057E+00 -0.47758443583E+01  0.73478819230E+01  0.88015695051E+01  0.51100000000E-03 0.  1.
         12    1    3    3    0    0 -0.18534300503E+02  0.66861398502E+01 -0.45824100358E+01  0.20229266990E+02  0.00000000000E+00 0. -1.
</event>
<event>
 7    1  0.3786266E-011  0.5052886E+02  0.7816164E-02  0.1300439E+00
        -11   -1    0    0    0    0  0.00000000000E+00  0.00000000000E+00  0.45593999997E+02  0.45594000000E+02  0.51100000000E-03 0. -1.
         11   -1    0    0    0    0 -0.00000000000E+00 -0.00000000000E+00 -0.45593999997E+02  0.45594000000E+02  0.51100000000E-03 0.  1.
    9900012    2    1    2    0    0  0.33808589581E+02 -0.65500582658E+01  0.21615765228E+02  0.50528864506E+02  0.30000014153E+02 0.  0.
        -12    1    1    2    0    0 -0.33808589581E+02  0.65500582658E+01 -0.21615765228E+02  0.40659135494E+02  0.00000000000E+00 0.  1.
         11    1    3    3    0    0 -0.89838134191E+00  0.30553578814E+01  0.53099568363E+01  0.61917641011E+01  0.51100000000E-03 0. -1.
        -11    1    3    3    0    0  0.56414753887E-02 -0.42857061734E+01 -0.20168708981E+01  0.47365681365E+01  0.51100000000E-03 0.  1.
         12    1    3    3    0    0  0.34701329447E+02 -0.53197099739E+01  0.18322679290E+02  0.39600532269E+02  0.00000000000E+00 0. -1.
</event>
<event>
 7    1  0.2817603E-011  0.5052885E+02  0.7816164E-02  0.1300439E+00
        -11   -1    0    0    0    0  0.00000000000E+00  0.00000000000E+00  0.45593999997E+02  0.45594000000E+02  0.51100000000E-03 0. -1.
         11   -1    0    0    0    0 -0.00000000000E+00 -0.00000000000E+00 -0.45593999997E+02  0.45594000000E+02  0.51100000000E-03 0.  1.
    9900012    2    1    2    0    0 -0.24239300821E+02 -0.32787480836E-01  0.32643855703E+02  0.50528854725E+02  0.29999984423E+02 0.  0.
        -12    1    1    2    0    0  0.24239300821E+02  0.32787480836E-01 -0.32643855703E+02  0.40659145275E+02  0.00000000000E+00 0.  1.
         11    1    3    3    0    0 -0.26750227880E+02  0.67260872142E+00  0.17700291238E+02  0.32083132707E+02  0.51100000000E-03 0. -1.
        -11    1    3    3    0    0 -0.21696412733E+01  0.30150209339E+01  0.20722193259E+01  0.42534442141E+01  0.51100000000E-03 0.  1.
         12    1    3    3    0    0  0.46805683326E+01 -0.37204171361E+01  0.12871345139E+02  0.14192277804E+02  0.00000000000E+00 0. -1.
</event>
<event>
 7    1  0.2817603E-011  0.5052886E+02  0.7816164E-02  0.1300439E+00
        -11   -1    0    0    0    0  0.00000000000E+00  0.00000000000E+00  0.45593999997E+02  0.45594000000E+02  0.51100000000E-03 0.  1.
         11   -1    0    0    0    0 -0.00000000000E+00 -0.00000000000E+00 -0.45593999997E+02  0.45594000000E+02  0.51100000000E-03 0. -1.
    9900012    2    1    2    0    0 -0.79273117025E+00  0.39408804867E+02 -0.99741329020E+01  0.50528860180E+02  0.30000001003E+02 0.  0.
        -12    1    1    2    0    0  0.79273117025E+00 -0.39408804867E+02  0.99741329020E+01  0.40659139820E+02  0.00000000000E+00 0.  1.
         11    1    3    3    0    0  0.73822220641E+01  0.25311809610E+02 -0.14702005309E+01  0.26407317134E+02  0.51100000000E-03 0. -1.
        -11    1    3    3    0    0  0.46589838204E+01  0.40845724352E+01 -0.13501532987E+01  0.63413544617E+01  0.51100000000E-03 0.  1.
        -12    1    3    3    0    0 -0.12833937055E+02  0.10012422822E+02 -0.71537790725E+01  0.17780188585E+02  0.00000000000E+00 0.  1.
</event>
<event>
 7    1  0.2817603E-011  0.5052886E+02  0.7816164E-02  0.1300439E+00
        -11   -1    0    0    0    0  0.00000000000E+00  0.00000000000E+00  0.45593999997E+02  0.45594000000E+02  0.51100000000E-03 0.  1.
         11   -1    0    0    0    0 -0.00000000000E+00 -0.00000000000E+00 -0.45593999997E+02  0.45594000000E+02  0.51100000000E-03 0. -1.
    9900012    2    1    2    0    0 -0.13345141583E+02 -0.30626519998E+02 -0.23175179942E+02  0.50528862080E+02  0.30000006778E+02 0.  0.
        -12    1    1    2    0    0  0.13345141583E+02  0.30626519998E+02  0.23175179942E+02  0.40659137920E+02  0.00000000000E+00 0.  1.
         11    1    3    3    0    0  0.49616199726E+01 -0.37232299067E+01 -0.89824702442E+01  0.10916267019E+02  0.51100000000E-03 0.  1.
        -11    1    3    3    0    0 -0.13496908218E+02 -0.12066557146E+02  0.60285469022E+00  0.18114407714E+02  0.51100000000E-03 0. -1.
         12    1    3    3    0    0 -0.48098533383E+01 -0.14836732945E+02 -0.14795564388E+02  0.21498187346E+02  0.00000000000E+00 0. -1.
</event>
<event>
 7    1  0.2817603E-011  0.5052887E+02  0.7816164E-02  0.1300439E+00
        -11   -1    0    0    0    0  0.00000000000E+00  0.00000000000E+00  0.45593999997E+02  0.45594000000E+02  0.51100000000E-03 0.  1.
         11   -1    0    0    0    0 -0.00000000000E+00 -0.00000000000E+00 -0.45593999997E+02  0.45594000000E+02  0.51100000000E-03 0. -1.
    9900012    2    1    2    0    0 -0.29140020553E+02  0.21621384705E+02 -0.18345025527E+02  0.50528867742E+02  0.30000023988E+02 0.  0.
        -12    1    1    2    0    0  0.29140020553E+02 -0.21621384705E+02  0.18345025527E+02  0.40659132258E+02  0.00000000000E+00 0.  1.
         11    1    3    3    0    0 -0.24643163508E+02  0.93346629062E+01 -0.11587575779E+02  0.28787034442E+02  0.51100000000E-03 0. -1.
        -11    1    3    3    0    0 -0.48756763034E+01 -0.17390483956E+01 -0.56567943206E+01  0.76678439593E+01  0.51100000000E-03 0.  1.
        -12    1    3    3    0    0  0.37881925875E+00  0.14025770195E+02 -0.11006554273E+01  0.14073989341E+02  0.00000000000E+00 0.  1.
</event>
<event>
 7    1  0.2817603E-011  0.5052887E+02  0.7816164E-02  0.1300439E+00
        -11   -1    0    0    0    0  0.00000000000E+00  0.00000000000E+00  0.45593999997E+02  0.45594000000E+02  0.51100000000E-03 0. -1.
         11   -1    0    0    0    0 -0.00000000000E+00 -0.00000000000E+00 -0.45593999997E+02  0.45594000000E+02  0.51100000000E-03 0.  1.
    9900012    2    1    2    0    0  0.13685641261E+02 -0.35950909193E+02  0.13168137375E+02  0.50528874450E+02  0.30000044379E+02 0.  0.
        -12    1    1    2    0    0 -0.13685641261E+02  0.35950909193E+02 -0.13168137375E+02  0.40659125550E+02  0.00000000000E+00 0.  1.
         11    1    3    3    0    0  0.62248768618E+01 -0.12647220220E+02  0.15037431166E+02  0.20611298056E+02  0.51100000000E-03 0. -1.
        -11    1    3    3    0    0  0.10001192104E+01  0.17243376394E+00 -0.52392066913E+01  0.53365961861E+01  0.51100000000E-03 0.  1.
        -12    1    3    3    0    0  0.64606451883E+01 -0.23476122737E+02  0.33699129010E+01  0.24580980208E+02  0.00000000000E+00 0.  1.
</event>
<event>
 7    1  0.2817603E-011  0.5052885E+02  0.7816164E-02  0.1300439E+00
        -11   -1    0    0    0    0  0.00000000000E+00  0.00000000000E+00  0.45593999997E+02  0.45594000000E+02  0.51100000000E-03 0.  1.
         11   -1    0    0    0    0 -0.00000000000E+00 -0.00000000000E+00 -0.45593999997E+02  0.45594000000E+02  0.51100000000E-03 0. -1.
    9900012    2    1    2    0    0  0.96788961598E+01  0.29530836404E+02 -0.26218602083E+02  0.50528850663E+02  0.29999972075E+02 0.  0.
        -12    1    1    2    0    0 -0.96788961598E+01 -0.29530836404E+02  0.26218602083E+02  0.40659149337E+02  0.00000000000E+00 0.  1.
         11    1    3    3    0    0 -0.29655144907E-01  0.10064039835E+02 -0.17291324492E+02  0.20006890817E+02  0.51100000000E-03 0. -1.
        -11    1    3    3    0    0 -0.13556111066E+01 -0.34672055542E+01 -0.10531285177E+01  0.38688855971E+01  0.51100000000E-03 0.  1.
         12    1    3    3    0    0  0.11064162411E+02  0.22934002124E+02 -0.78741490738E+01  0.26653074249E+02  0.00000000000E+00 0. -1.
</event>
<event>
 7    1  0.2817603E-011  0.5052886E+02  0.7816164E-02  0.1300439E+00
        -11   -1    0    0    0    0  0.00000000000E+00  0.00000000000E+00  0.45593999997E+02  0.45594000000E+02  0.51100000000E-03 0. -1.
         11   -1    0    0    0    0 -0.00000000000E+00 -0.00000000000E+00 -0.45593999997E+02  0.45594000000E+02  0.51100000000E-03 0.  1.
    9900012    2    1    2    0    0 -0.20535057312E+02 -0.12010514475E+02  0.32973089088E+02  0.50528860304E+02  0.30000001381E+02 0.  0.
        -12    1    1    2    0    0  0.20535057312E+02  0.12010514475E+02 -0.32973089088E+02  0.40659139696E+02  0.00000000000E+00 0.  1.
         11    1    3    3    0    0 -0.50007924734E+01 -0.10230918678E+02  0.12040577174E+02  0.16572722205E+02  0.51100000000E-03 0. -1.
        -11    1    3    3    0    0 -0.24128989469E+00  0.47224265663E+01  0.15907167698E+02  0.16595105240E+02  0.51100000000E-03 0.  1.
         12    1    3    3    0    0 -0.15292974944E+02 -0.65020223635E+01  0.50253442165E+01  0.17361032860E+02  0.00000000000E+00 0. -1.
</event>
<event>
 7    1  0.2817603E-011  0.5052886E+02  0.7816164E-02  0.1300439E+00
        -11   -1    0    0    0    0  0.00000000000E+00  0.00000000000E+00  0.45593999997E+02  0.45594000000E+02  0.51100000000E-03 0.  1.
         11   -1    0    0    0    0 -0.00000000000E+00 -0.00000000000E+00 -0.45593999997E+02  0.45594000000E+02  0.51100000000E-03 0. -1.
    9900012    2    1    2    0    0 -0.31300611085E+02  0.23241953512E+02  0.11543350262E+02  0.50528860897E+02  0.30000003182E+02 0.  0.
        -12    1    1    2    0    0  0.31300611085E+02 -0.23241953512E+02 -0.11543350262E+02  0.40659139103E+02  0.00000000000E+00 0.  1.
         11    1    3    3    0    0 -0.15563477884E+02  0.58300377589E+01  0.70785579428E+01  0.18064251076E+02  0.51100000000E-03 0. -1.
        -11    1    3    3    0    0 -0.52447463949E+01 -0.11625007930E+01  0.91617856674E+01  0.10620597428E+02  0.51100000000E-03 0.  1.
         12    1    3    3    0    0 -0.10492386805E+02  0.18574416547E+02 -0.46969933484E+01  0.21844012393E+02  0.00000000000E+00 0. -1.
</event>
<event>
 7    1  0.2817603E-011  0.5052886E+02  0.7816164E-02  0.1300439E+00
        -11   -1    0    0    0    0  0.00000000000E+00  0.00000000000E+00  0.45593999997E+02  0.45594000000E+02  0.51100000000E-03 0.  1.
         11   -1    0    0    0    0 -0.00000000000E+00 -0.00000000000E+00 -0.45593999997E+02  0.45594000000E+02  0.51100000000E-03 0. -1.
    9900012    2    1    2    0    0 -0.17301496178E+02 -0.60545569165E+01 -0.36292785508E+02  0.50528859461E+02  0.29999998817E+02 0.  0.
        -12    1    1    2    0    0  0.17301496178E+02  0.60545569165E+01  0.36292785508E+02  0.40659140539E+02  0.00000000000E+00 0.  1.
         11    1    3    3    0    0  0.30207057049E+01  0.12205202299E+00 -0.11110136237E+02  0.11514108177E+02  0.51100000000E-03 0. -1.
        -11    1    3    3    0    0 -0.47070707449E+01  0.64444178896E+01 -0.13782175880E+02  0.15925935111E+02  0.51100000000E-03 0.  1.
        -12    1    3    3    0    0 -0.15615131138E+02 -0.12621026829E+02 -0.11400473391E+02  0.23088816172E+02  0.00000000000E+00 0.  1.
</event>
<event>
 7    1  0.2817603E-011  0.5052892E+02  0.7816164E-02  0.1300439E+00
        -11   -1    0    0    0    0  0.00000000000E+00  0.00000000000E+00  0.45593999997E+02  0.45594000000E+02  0.51100000000E-03 0.  1.
         11   -1    0    0    0    0 -0.00000000000E+00 -0.00000000000E+00 -0.45593999997E+02  0.45594000000E+02  0.51100000000E-03 0. -1.
    9900012    2    1    2    0    0  0.11974966211E+02  0.11008846211E+02 -0.37263465630E+02  0.50528924981E+02  0.30000197971E+02 0.  0.
        -12    1    1    2    0    0 -0.11974966211E+02 -0.11008846211E+02  0.37263465630E+02  0.40659075019E+02  0.00000000000E+00 0.  1.
         11    1    3    3    0    0  0.57719706337E+01  0.11028937045E+02 -0.15840498591E+02  0.20146327040E+02  0.51100000000E-03 0. -1.
        -11    1    3    3    0    0 -0.15375179241E+01 -0.59221696069E+01 -0.19530370207E+02  0.20466348353E+02  0.51100000000E-03 0.  1.
         12    1    3    3    0    0  0.77405135018E+01  0.59020787727E+01 -0.18925968321E+01  0.99162495874E+01  0.00000000000E+00 0. -1.
</event>
<event>
 7    1  0.2817603E-011  0.5052888E+02  0.7816164E-02  0.1300439E+00
        -11   -1    0    0    0    0  0.00000000000E+00  0.00000000000E+00  0.45593999997E+02  0.45594000000E+02  0.51100000000E-03 0.  1.
         11   -1    0    0    0    0 -0.00000000000E+00 -0.00000000000E+00 -0.45593999997E+02  0.45594000000E+02  0.51100000000E-03 0. -1.
    9900012    2    1    2    0    0 -0.36523348080E+02  0.12359281254E+02 -0.12901828121E+02  0.50528881011E+02  0.30000064321E+02 0.  0.
        -12    1    1    2    0    0  0.36523348080E+02 -0.12359281254E+02  0.12901828121E+02  0.40659118989E+02  0.00000000000E+00 0.  1.
         11    1    3    3    0    0 -0.13929513661E+02  0.11272984361E+02 -0.38453922034E+01  0.18327535805E+02  0.51100000000E-03 0. -1.
        -11    1    3    3    0    0  0.10956315107E+01 -0.55918019486E+01 -0.42870691455E+01  0.71307516826E+01  0.51100000000E-03 0.  1.
         12    1    3    3    0    0 -0.23689465930E+02  0.66780988418E+01 -0.47693667722E+01  0.25070593523E+02  0.00000000000E+00 0. -1.
</event>
<event>
 7    1  0.2817603E-011  0.5052886E+02  0.7816164E-02  0.1300439E+00
        -11   -1    0    0    0    0  0.00000000000E+00  0.00000000000E+00  0.45593999997E+02  0.45594000000E+02  0.51100000000E-03 0.  1.
         11   -1    0    0    0    0 -0.00000000000E+00 -0.00000000000E+00 -0.45593999997E+02  0.45594000000E+02  0.51100000000E-03 0. -1.
    9900012    2    1    2    0    0  0.44457012629E+01  0.26717373558E+02 -0.30324632800E+02  0.50528860019E+02  0.30000000513E+02 0.  0.
        -12    1    1    2    0    0 -0.44457012629E+01 -0.26717373558E+02  0.30324632800E+02  0.40659139981E+02  0.00000000000E+00 0.  1.
         11    1    3    3    0    0 -0.20119405642E+01  0.17029782240E+01 -0.14220159858E+02  0.14462399051E+02  0.51100000000E-03 0. -1.
        -11    1    3    3    0    0 -0.67306084320E+01  0.73801507491E+01 -0.72045182455E+01  0.12315551078E+02  0.51100000000E-03 0.  1.
        -12    1    3    3    0    0  0.13188250259E+02  0.17634244585E+02 -0.88999546966E+01  0.23750909890E+02  0.00000000000E+00 0.  1.
</event>
<event>
 7    1  0.2817603E-011  0.5052887E+02  0.7816164E-02  0.1300439E+00
        -11   -1    0    0    0    0  0.00000000000E+00  0.00000000000E+00  0.45593999997E+02  0.45594000000E+02  0.51100000000E-03 0.  1.
         11   -1    0    0    0    0 -0.00000000000E+00 -0.00000000000E+00 -0.45593999997E+02  0.45594000000E+02  0.51100000000E-03 0. -1.
    9900012    2    1    2    0    0  0.19177761069E+02 -0.13473130136E+02 -0.33224285761E+02  0.50528869173E+02  0.30000028338E+02 0.  0.
        -12    1    1    2    0    0 -0.19177761069E+02  0.13473130136E+02  0.33224285761E+02  0.40659130827E+02  0.00000000000E+00 0.  1.
         11    1    3    3    0    0  0.17787742833E+02 -0.19935372468E+02 -0.16667881693E+02  0.31490334246E+02  0.51100000000E-03 0.  1.
        -11    1    3    3    0    0 -0.17433112042E+00  0.11129430479E+01 -0.11368898082E+02  0.11424573403E+02  0.51100000000E-03 0. -1.
        -12    1    3    3    0    0  0.15643493566E+01  0.53492992842E+01 -0.51875059865E+01  0.76139615248E+01  0.00000000000E+00 0.  1.
</event>
<event>
 7    1  0.2817603E-011  0.5052886E+02  0.7816164E-02  0.1300439E+00
        -11   -1    0    0    0    0  0.00000000000E+00  0.00000000000E+00  0.45593999997E+02  0.45594000000E+02  0.51100000000E-03 0.  1.
         11   -1    0    0    0    0 -0.00000000000E+00 -0.00000000000E+00 -0.45593999997E+02  0.45594000000E+02  0.51100000000E-03 0. -1.
    9900012    2    1    2    0    0  0.32469133349E+02  0.19189268593E+00 -0.24472103703E+02  0.50528864460E+02  0.30000014012E+02 0.  0.
        -12    1    1    2    0    0 -0.32469133349E+02 -0.19189268593E+00  0.24472103703E+02  0.40659135540E+02  0.00000000000E+00 0.  1.
         11    1    3    3    0    0  0.29038201668E+01  0.43901873794E+01 -0.25673344579E+01  0.58563745839E+01  0.51100000000E-03 0.  1.
        -11    1    3    3    0    0  0.25815224266E+02 -0.12962626808E+02 -0.13187511449E+02  0.31754778478E+02  0.51100000000E-03 0. -1.
         12    1    3    3    0    0  0.37500889155E+01  0.87643321143E+01 -0.87172577962E+01  0.12917711398E+02  0.00000000000E+00 0. -1.
</event>
<event>
 7    1  0.2817603E-011  0.5052886E+02  0.7816164E-02  0.1300439E+00
        -11   -1    0    0    0    0  0.00000000000E+00  0.00000000000E+00  0.45593999997E+02  0.45594000000E+02  0.51100000000E-03 0.  1.
         11   -1    0    0    0    0 -0.00000000000E+00 -0.00000000000E+00 -0.45593999997E+02  0.45594000000E+02  0.51100000000E-03 0. -1.
    9900012    2    1    2    0    0  0.10419073545E+02  0.39095984908E+02 -0.40140293586E+01  0.50528861284E+02  0.30000004358E+02 0.  0.
        -12    1    1    2    0    0 -0.10419073545E+02 -0.39095984908E+02  0.40140293586E+01  0.40659138716E+02  0.00000000000E+00 0.  1.
         11    1    3    3    0    0 -0.11468705793E+01  0.15857124771E+02 -0.20728914247E+01  0.16033109406E+02  0.51100000000E-03 0. -1.
        -11    1    3    3    0    0  0.63687006881E-01  0.17947073930E+02  0.67107900104E+01  0.19160799083E+02  0.51100000000E-03 0.  1.
        -12    1    3    3    0    0  0.11502257117E+02  0.52917862076E+01 -0.86519279443E+01  0.15334952794E+02  0.00000000000E+00 0.  1.
</event>
<event>
 7    1  0.2817603E-011  0.5052887E+02  0.7816164E-02  0.1300439E+00
        -11   -1    0    0    0    0  0.00000000000E+00  0.00000000000E+00  0.45593999997E+02  0.45594000000E+02  0.51100000000E-03 0. -1.
         11   -1    0    0    0    0 -0.00000000000E+00 -0.00000000000E+00 -0.45593999997E+02  0.45594000000E+02  0.51100000000E-03 0.  1.
    9900012    2    1    2    0    0  0.12472594682E+01 -0.34999017297E+02  0.20656190893E+02  0.50528867076E+02  0.30000021965E+02 0.  0.
        -12    1    1    2    0    0 -0.12472594682E+01  0.34999017297E+02 -0.20656190893E+02  0.40659132924E+02  0.00000000000E+00 0.  1.
         11    1    3    3    0    0 -0.61218489259E+00 -0.23358558038E+02  0.99602488503E+00  0.23387797455E+02  0.51100000000E-03 0. -1.
        -11    1    3    3    0    0 -0.42841429651E+01 -0.91165037190E+01  0.54441903643E+01  0.11450053711E+02  0.51100000000E-03 0.  1.
        -12    1    3    3    0    0  0.61435873259E+01 -0.25239555396E+01  0.14215975643E+02  0.15691015910E+02  0.00000000000E+00 0.  1.
</event>
<event>
 7    1  0.2817603E-011  0.5052886E+02  0.7816164E-02  0.1300439E+00
        -11   -1    0    0    0    0  0.00000000000E+00  0.00000000000E+00  0.45593999997E+02  0.45594000000E+02  0.51100000000E-03 0.  1.
         11   -1    0    0    0    0 -0.00000000000E+00 -0.00000000000E+00 -0.45593999997E+02  0.45594000000E+02  0.51100000000E-03 0. -1.
    9900012    2    1    2    0    0  0.22712711278E+02  0.12431794769E+02 -0.31348822169E+02  0.50528862944E+02  0.30000009405E+02 0.  0.
        -12    1    1    2    0    0 -0.22712711278E+02 -0.12431794769E+02  0.31348822169E+02  0.40659137056E+02  0.00000000000E+00 0.  1.
         11    1    3    3    0    0  0.15847776287E+02  0.32249174819E+01 -0.25359935721E+02  0.30077873031E+02  0.51100000000E-03 0. -1.
        -11    1    3    3    0    0 -0.17403375477E+01  0.50319963781E+01 -0.89712116941E+01  0.10432276925E+02  0.51100000000E-03 0.  1.
         12    1    3    3    0    0  0.86052725380E+01  0.41748809089E+01  0.29823252462E+01  0.10018712988E+02  0.00000000000E+00 0. -1.
</event>
<event>
 7    1  0.2817603E-011  0.5052886E+02  0.7816164E-02  0.1300439E+00
        -11   -1    0    0    0    0  0.00000000000E+00  0.00000000000E+00  0.45593999997E+02  0.45594000000E+02  0.51100000000E-03 0.  1.
         11   -1    0    0    0    0 -0.00000000000E+00 -0.00000000000E+00 -0.45593999997E+02  0.45594000000E+02  0.51100000000E-03 0. -1.
    9900012    2    1    2    0    0  0.36415482376E+02  0.13273166293E+01 -0.18036533890E+02  0.50528859812E+02  0.29999999884E+02 0.  0.
        -12    1    1    2    0    0 -0.36415482376E+02 -0.13273166293E+01  0.18036533890E+02  0.40659140188E+02  0.00000000000E+00 0.  1.
         11    1    3    3    0    0  0.14446929123E+02 -0.59006554617E+01 -0.78319449531E+01  0.17460551479E+02  0.51100000000E-03 0. -1.
        -11    1    3    3    0    0  0.96879258571E+01 -0.67599192687E+01  0.56872831637E-01  0.11813367459E+02  0.51100000000E-03 0.  1.
        -12    1    3    3    0    0  0.12280627396E+02  0.13987891360E+02 -0.10261461768E+02  0.21254940874E+02  0.00000000000E+00 0.  1.
</event>
<event>
 7    1  0.2817603E-011  0.5052887E+02  0.7816164E-02  0.1300439E+00
        -11   -1    0    0    0    0  0.00000000000E+00  0.00000000000E+00  0.45593999997E+02  0.45594000000E+02  0.51100000000E-03 0.  1.
         11   -1    0    0    0    0 -0.00000000000E+00 -0.00000000000E+00 -0.45593999997E+02  0.45594000000E+02  0.51100000000E-03 0. -1.
    9900012    2    1    2    0    0 -0.98013502967E+00  0.33899307867E+02  0.22428571623E+02  0.50528873551E+02  0.30000041646E+02 0.  0.
        -12    1    1    2    0    0  0.98013502967E+00 -0.33899307867E+02 -0.22428571623E+02  0.40659126449E+02  0.00000000000E+00 0.  1.
         11    1    3    3    0    0 -0.30029055083E+00  0.14744035904E+02  0.17541270756E+02  0.22916652223E+02  0.51100000000E-03 0. -1.
        -11    1    3    3    0    0 -0.32498753657E+01 -0.16766448630E+01  0.55100564031E+01  0.66131346361E+01  0.51100000000E-03 0.  1.
         12    1    3    3    0    0  0.25700308869E+01  0.20831916826E+02 -0.62275553550E+00  0.20999086692E+02  0.00000000000E+00 0. -1.
</event>
<event>
 7    1  0.2817603E-011  0.5052886E+02  0.7816164E-02  0.1300439E+00
        -11   -1    0    0    0    0  0.00000000000E+00  0.00000000000E+00  0.45593999997E+02  0.45594000000E+02  0.51100000000E-03 0. -1.
         11   -1    0    0    0    0 -0.00000000000E+00 -0.00000000000E+00 -0.45593999997E+02  0.45594000000E+02  0.51100000000E-03 0.  1.
    9900012    2    1    2    0    0 -0.33047647647E+02  0.22740234736E+02  0.66257419526E+01  0.50528858995E+02  0.29999997400E+02 0.  0.
        -12    1    1    2    0    0  0.33047647647E+02 -0.22740234736E+02 -0.66257419526E+01  0.40659141005E+02  0.00000000000E+00 0.  1.
         11    1    3    3    0    0 -0.62050028381E-01  0.14884471173E+01 -0.23956615286E+01  0.28210847998E+01  0.51100000000E-03 0. -1.
        -11    1    3    3    0    0 -0.32543707854E+02  0.11431417152E+02  0.19076601620E+00  0.34493573473E+02  0.51100000000E-03 0.  1.
         12    1    3    3    0    0 -0.44188976444E+00  0.98203704670E+01  0.88306374651E+01  0.13214200722E+02  0.00000000000E+00 0. -1.
</event>
<event>
 7    1  0.2817603E-011  0.5052887E+02  0.7816164E-02  0.1300439E+00
        -11   -1    0    0    0    0  0.00000000000E+00  0.00000000000E+00  0.45593999997E+02  0.45594000000E+02  0.51100000000E-03 0. -1.
         11   -1    0    0    0    0 -0.00000000000E+00 -0.00000000000E+00 -0.45593999997E+02  0.45594000000E+02  0.51100000000E-03 0.  1.
    9900012    2    1    2    0    0  0.29849737414E+02 -0.16848554335E+01  0.27555752424E+02  0.50528867530E+02  0.30000023346E+02 0.  0.
        -12    1    1    2    0    0 -0.29849737414E+02  0.16848554335E+01 -0.27555752424E+02  0.40659132470E+02  0.00000000000E+00 0.  1.
         11    1    3    3    0    0  0.44850423627E+01 -0.53937594357E+01  0.37055001243E+01  0.79334089317E+01  0.51100000000E-03 0. -1.
        -11    1    3    3    0    0  0.46495126094E+01 -0.39891557677E+01 -0.37922005817E+01  0.72050063676E+01  0.51100000000E-03 0.  1.
         12    1    3    3    0    0  0.20715182442E+02  0.76980597700E+01  0.27642452881E+02  0.35390452231E+02  0.00000000000E+00 0. -1.
</event>
<event>
 7    1  0.2817603E-011  0.5052889E+02  0.7816164E-02  0.1300439E+00
        -11   -1    0    0    0    0  0.00000000000E+00  0.00000000000E+00  0.45593999997E+02  0.45594000000E+02  0.51100000000E-03 0.  1.
         11   -1    0    0    0    0 -0.00000000000E+00 -0.00000000000E+00 -0.45593999997E+02  0.45594000000E+02  0.51100000000E-03 0. -1.
    9900012    2    1    2    0    0  0.23373846768E+02 -0.32348112360E+02  0.77734399028E+01  0.50528887197E+02  0.30000083124E+02 0.  0.
        -12    1    1    2    0    0 -0.23373846768E+02  0.32348112360E+02 -0.77734399028E+01  0.40659112803E+02  0.00000000000E+00 0.  1.
         11    1    3    3    0    0  0.51294855003E+01 -0.13177511442E+02  0.10972712406E+01  0.14183174319E+02  0.51100000000E-03 0. -1.
        -11    1    3    3    0    0  0.14156560529E+02 -0.21448376415E+02  0.12742092002E+02  0.28684524847E+02  0.51100000000E-03 0.  1.
        -12    1    3    3    0    0  0.40878007386E+01  0.22777754967E+01 -0.60659233399E+01  0.76611880317E+01  0.00000000000E+00 0.  1.
</event>
<event>
 7    1  0.2817603E-011  0.5052886E+02  0.7816164E-02  0.1300439E+00
        -11   -1    0    0    0    0  0.00000000000E+00  0.00000000000E+00  0.45593999997E+02  0.45594000000E+02  0.51100000000E-03 0.  1.
         11   -1    0    0    0    0 -0.00000000000E+00 -0.00000000000E+00 -0.45593999997E+02  0.45594000000E+02  0.51100000000E-03 0. -1.
    9900012    2    1    2    0    0  0.10477692395E+02 -0.34878560691E+02 -0.18079538947E+02  0.50528858810E+02  0.29999996838E+02 0.  0.
        -12    1    1    2    0    0 -0.10477692395E+02  0.34878560691E+02  0.18079538947E+02  0.40659141190E+02  0.00000000000E+00 0.  1.
         11    1    3    3    0    0  0.64483618472E+00 -0.27888484918E+02 -0.51076223549E+01  0.28359675793E+02  0.51100000000E-03 0. -1.
        -11    1    3    3    0    0  0.61333647846E+01 -0.93741681320E+01 -0.35192675425E+01  0.11742164879E+02  0.51100000000E-03 0.  1.
        -12    1    3    3    0    0  0.36994914259E+01  0.23840923590E+01 -0.94526490499E+01  0.10427018138E+02  0.00000000000E+00 0.  1.
</event>
<event>
 7    1  0.2817603E-011  0.5052886E+02  0.7816164E-02  0.1300439E+00
        -11   -1    0    0    0    0  0.00000000000E+00  0.00000000000E+00  0.45593999997E+02  0.45594000000E+02  0.51100000000E-03 0.  1.
         11   -1    0    0    0    0 -0.00000000000E+00 -0.00000000000E+00 -0.45593999997E+02  0.45594000000E+02  0.51100000000E-03 0. -1.
    9900012    2    1    2    0    0  0.34395399184E+02 -0.44530803946E+01 -0.21220097187E+02  0.50528856691E+02  0.29999990397E+02 0.  0.
        -12    1    1    2    0    0 -0.34395399184E+02  0.44530803946E+01  0.21220097187E+02  0.40659143309E+02  0.00000000000E+00 0.  1.
         11    1    3    3    0    0  0.97353805845E+01 -0.10711854451E+02 -0.13216225379E+02  0.19600767189E+02  0.51100000000E-03 0. -1.
        -11    1    3    3    0    0  0.16220474027E+02 -0.14431488539E+01  0.10961271167E+01  0.16321395503E+02  0.51100000000E-03 0.  1.
        -12    1    3    3    0    0  0.84395445727E+01  0.77019229100E+01 -0.90999989255E+01  0.14606693998E+02  0.00000000000E+00 0.  1.
</event>
<event>
 7    1  0.2817603E-011  0.5052890E+02  0.7816164E-02  0.1300439E+00
        -11   -1    0    0    0    0  0.00000000000E+00  0.00000000000E+00  0.45593999997E+02  0.45594000000E+02  0.51100000000E-03 0.  1.
         11   -1    0    0    0    0 -0.00000000000E+00 -0.00000000000E+00 -0.45593999997E+02  0.45594000000E+02  0.51100000000E-03 0. -1.
    9900012    2    1    2    0    0 -0.39460539933E+02 -0.85603429763E+01 -0.47695531664E+01  0.50528901128E+02  0.30000125470E+02 0.  0.
        -12    1    1    2    0    0  0.39460539933E+02  0.85603429763E+01  0.47695531664E+01  0.40659098872E+02  0.00000000000E+00 0.  1.
         11    1    3    3    0    0 -0.13187712197E+02  0.10532509563E+01 -0.33304491728E+01  0.13642469810E+02  0.51100000000E-03 0. -1.
        -11    1    3    3    0    0 -0.15256030746E+01 -0.32862199123E+01 -0.94464765839E+01  0.10117441681E+02  0.51100000000E-03 0.  1.
         12    1    3    3    0    0 -0.24747224661E+02 -0.63273740202E+01  0.80073725904E+01  0.26768989637E+02  0.00000000000E+00 0. -1.
</event>
<event>
 7    1  0.2817603E-011  0.5052888E+02  0.7816164E-02  0.1300439E+00
        -11   -1    0    0    0    0  0.00000000000E+00  0.00000000000E+00  0.45593999997E+02  0.45594000000E+02  0.51100000000E-03 0.  1.
         11   -1    0    0    0    0 -0.00000000000E+00 -0.00000000000E+00 -0.45593999997E+02  0.45594000000E+02  0.51100000000E-03 0. -1.
    9900012    2    1    2    0    0 -0.24552974359E+01 -0.18284942597E+02 -0.36232528841E+02  0.50528883464E+02  0.30000071777E+02 0.  0.
        -12    1    1    2    0    0  0.24552974359E+01  0.18284942597E+02  0.36232528841E+02  0.40659116536E+02  0.00000000000E+00 0.  1.
         11    1    3    3    0    0  0.74016993958E+00 -0.11920982826E+02 -0.16296038865E+02  0.20204419468E+02  0.51100000000E-03 0. -1.
        -11    1    3    3    0    0  0.70741536512E+01 -0.86747680100E+01 -0.14951579273E+02  0.18677392027E+02  0.51100000000E-03 0.  1.
         12    1    3    3    0    0 -0.10269621027E+02  0.23108082389E+01 -0.49849107030E+01  0.11647071970E+02  0.00000000000E+00 0. -1.
</event>
<event>
 7    1  0.2817603E-011  0.5052886E+02  0.7816164E-02  0.1300439E+00
        -11   -1    0    0    0    0  0.00000000000E+00  0.00000000000E+00  0.45593999997E+02  0.45594000000E+02  0.51100000000E-03 0.  1.
         11   -1    0    0    0    0 -0.00000000000E+00 -0.00000000000E+00 -0.45593999997E+02  0.45594000000E+02  0.51100000000E-03 0. -1.
    9900012    2    1    2    0    0 -0.18076618562E+02  0.24415116582E+02 -0.27024131576E+02  0.50528859037E+02  0.29999997530E+02 0.  0.
        -12    1    1    2    0    0  0.18076618562E+02 -0.24415116582E+02  0.27024131576E+02  0.40659140963E+02  0.00000000000E+00 0.  1.
         11    1    3    3    0    0 -0.12827310954E+01  0.78363184035E+01  0.13247941289E+01  0.80503642730E+01  0.51100000000E-03 0. -1.
        -11    1    3    3    0    0  0.26655135892E+01  0.66916657519E+00  0.17549717943E+01  0.32607779531E+01  0.51100000000E-03 0.  1.
         12    1    3    3    0    0 -0.19459401056E+02  0.15909631603E+02 -0.30103897500E+02  0.39217716811E+02  0.00000000000E+00 0. -1.
</event>
<event>
 7    1  0.2817603E-011  0.5052886E+02  0.7816164E-02  0.1300439E+00
        -11   -1    0    0    0    0  0.00000000000E+00  0.00000000000E+00  0.45593999997E+02  0.45594000000E+02  0.51100000000E-03 0.  1.
         11   -1    0    0    0    0 -0.00000000000E+00 -0.00000000000E+00 -0.45593999997E+02  0.45594000000E+02  0.51100000000E-03 0. -1.
    9900012    2    1    2    0    0  0.11376189332E+01  0.19301969740E+02 -0.35767382963E+02  0.50528857158E+02  0.29999991817E+02 0.  0.
        -12    1    1    2    0    0 -0.11376189332E+01 -0.19301969740E+02  0.35767382963E+02  0.40659142842E+02  0.00000000000E+00 0.  1.
         11    1    3    3    0    0  0.99267566427E+01  0.75060397681E+00 -0.10153095573E+02  0.14219326769E+02  0.51100000000E-03 0. -1.
        -11    1    3    3    0    0 -0.11878169886E+01  0.55204317990E+01 -0.19028600951E+02  0.19848771520E+02  0.51100000000E-03 0.  1.
        -12    1    3    3    0    0 -0.76013207210E+01  0.13030933964E+02 -0.65856864385E+01  0.16460758869E+02  0.00000000000E+00 0.  1.
</event>
<event>
 7    1  0.2817603E-011  0.5052886E+02  0.7816164E-02  0.1300439E+00
        -11   -1    0    0    0    0  0.00000000000E+00  0.00000000000E+00  0.45593999997E+02  0.45594000000E+02  0.51100000000E-03 0.  1.
         11   -1    0    0    0    0 -0.00000000000E+00 -0.00000000000E+00 -0.45593999997E+02  0.45594000000E+02  0.51100000000E-03 0. -1.
    9900012    2    1    2    0    0  0.10421733250E+02 -0.37239963198E+02  0.12559391865E+02  0.50528859491E+02  0.29999998910E+02 0.  0.
        -12    1    1    2    0    0 -0.10421733250E+02  0.37239963198E+02 -0.12559391865E+02  0.40659140509E+02  0.00000000000E+00 0.  1.
         11    1    3    3    0    0 -0.48857678009E+01 -0.64697972005E+01 -0.31110302854E+00  0.81133093233E+01  0.51100000000E-03 0. -1.
        -11    1    3    3    0    0 -0.24278323509E+01 -0.82290489896E+01  0.10609890071E+02  0.13644829965E+02  0.51100000000E-03 0.  1.
        -12    1    3    3    0    0  0.17735333401E+02 -0.22541117008E+02  0.22606048218E+01  0.28770720203E+02  0.00000000000E+00 0.  1.
</event>
<event>
 7    1  0.2817603E-011  0.5052886E+02  0.7816164E-02  0.1300439E+00
        -11   -1    0    0    0    0  0.00000000000E+00  0.00000000000E+00  0.45593999997E+02  0.45594000000E+02  0.51100000000E-03 0.  1.
         11   -1    0    0    0    0 -0.00000000000E+00 -0.00000000000E+00 -0.45593999997E+02  0.45594000000E+02  0.51100000000E-03 0. -1.
    9900012    2    1    2    0    0  0.68503559661E+01 -0.32620350773E+02 -0.23284137043E+02  0.50528859586E+02  0.29999999197E+02 0.  0.
        -12    1    1    2    0    0 -0.68503559661E+01  0.32620350773E+02  0.23284137043E+02  0.40659140414E+02  0.00000000000E+00 0.  1.
         11    1    3    3    0    0  0.13653733156E+02 -0.74336193061E+01 -0.77220225514E+01  0.17358362758E+02  0.51100000000E-03 0. -1.
        -11    1    3    3    0    0  0.40402922356E+01 -0.72913761756E+01 -0.51524368819E+01  0.97997823428E+01  0.51100000000E-03 0.  1.
        -12    1    3    3    0    0 -0.10843669426E+02 -0.17895355291E+02 -0.10409677609E+02  0.23370714485E+02  0.00000000000E+00 0.  1.
</event>
<event>
 7    1  0.2817603E-011  0.5052882E+02  0.7816164E-02  0.1300439E+00
        -11   -1    0    0    0    0  0.00000000000E+00  0.00000000000E+00  0.45593999997E+02  0.45594000000E+02  0.51100000000E-03 0. -1.
         11   -1    0    0    0    0 -0.00000000000E+00 -0.00000000000E+00 -0.45593999997E+02  0.45594000000E+02  0.51100000000E-03 0.  1.
    9900012    2    1    2    0    0  0.58770334411E+01 -0.40020298844E+02  0.41237210283E+01  0.50528820019E+02  0.29999878929E+02 0.  0.
        -12    1    1    2    0    0 -0.58770334411E+01  0.40020298844E+02 -0.41237210283E+01  0.40659179981E+02  0.00000000000E+00 0.  1.
         11    1    3    3    0    0 -0.83902667801E+01 -0.14186155357E+02  0.63843082370E+01  0.17674924961E+02  0.51100000000E-03 0. -1.
        -11    1    3    3    0    0 -0.87948645275E+00  0.84886210743E+00 -0.17904811800E+01  0.21679221423E+01  0.51100000000E-03 0.  1.
        -12    1    3    3    0    0  0.15146786674E+02 -0.26683005595E+02 -0.47010602871E+00  0.30685972916E+02  0.00000000000E+00 0.  1.
</event>
<event>
 7    1  0.2817603E-011  0.5052886E+02  0.7816164E-02  0.1300439E+00
        -11   -1    0    0    0    0  0.00000000000E+00  0.00000000000E+00  0.45593999997E+02  0.45594000000E+02  0.51100000000E-03 0.  1.
         11   -1    0    0    0    0 -0.00000000000E+00 -0.00000000000E+00 -0.45593999997E+02  0.45594000000E+02  0.51100000000E-03 0. -1.
    9900012    2    1    2    0    0 -0.31805717476E+02  0.80592236563E+01 -0.24012719458E+02  0.50528862701E+02  0.30000008666E+02 0.  0.
        -12    1    1    2    0    0  0.31805717476E+02 -0.80592236563E+01  0.24012719458E+02  0.40659137299E+02  0.00000000000E+00 0.  1.
         11    1    3    3    0    0 -0.18009906131E+01  0.56118964351E+00  0.26047863931E+01  0.32161177558E+01  0.51100000000E-03 0. -1.
        -11    1    3    3    0    0 -0.19328895395E+01  0.42435316248E+01  0.36363641860E+01  0.59132704468E+01  0.51100000000E-03 0.  1.
         12    1    3    3    0    0 -0.28071837324E+02  0.32545023879E+01 -0.30253870037E+02  0.41399474498E+02  0.00000000000E+00 0. -1.
</event>
<event>
 7    1  0.2817603E-011  0.5052886E+02  0.7816164E-02  0.1300439E+00
        -11   -1    0    0    0    0  0.00000000000E+00  0.00000000000E+00  0.45593999997E+02  0.45594000000E+02  0.51100000000E-03 0.  1.
         11   -1    0    0    0    0 -0.00000000000E+00 -0.00000000000E+00 -0.45593999997E+02  0.45594000000E+02  0.51100000000E-03 0. -1.
    9900012    2    1    2    0    0 -0.14647604252E+02  0.65572316320E+01 -0.37357940547E+02  0.50528864263E+02  0.30000013414E+02 0.  0.
        -12    1    1    2    0    0  0.14647604252E+02 -0.65572316320E+01  0.37357940547E+02  0.40659135737E+02  0.00000000000E+00 0.  1.
         11    1    3    3    0    0 -0.16766466922E+01  0.69426001834E+01 -0.14179864213E+02  0.15877008245E+02  0.51100000000E-03 0. -1.
        -11    1    3    3    0    0 -0.60458248662E+01  0.10922745416E+02 -0.10657487760E+02  0.16414640152E+02  0.51100000000E-03 0.  1.
        -12    1    3    3    0    0 -0.69251326931E+01 -0.11308113967E+02 -0.12520588574E+02  0.18237215866E+02  0.00000000000E+00 0.  1.
</event>
<event>
 7    1  0.2817603E-011  0.5052881E+02  0.7816164E-02  0.1300439E+00
        -11   -1    0    0    0    0  0.00000000000E+00  0.00000000000E+00  0.45593999997E+02  0.45594000000E+02  0.51100000000E-03 0.  1.
         11   -1    0    0    0    0 -0.00000000000E+00 -0.00000000000E+00 -0.45593999997E+02  0.45594000000E+02  0.51100000000E-03 0. -1.
    9900012    2    1    2    0    0 -0.71095337055E+01  0.21803187707E+02 -0.33574475045E+02  0.50528808686E+02  0.29999844483E+02 0.  0.
        -12    1    1    2    0    0  0.71095337055E+01 -0.21803187707E+02  0.33574475045E+02  0.40659191314E+02  0.00000000000E+00 0.  1.
         11    1    3    3    0    0 -0.48266104450E+01 -0.17427084944E+01 -0.12774728973E+01  0.52882074986E+01  0.51100000000E-03 0. -1.
        -11    1    3    3    0    0 -0.32949671354E+01  0.59205269577E+01  0.16532768294E+01  0.69744370680E+01  0.51100000000E-03 0.  1.
         12    1    3    3    0    0  0.10120438749E+01  0.17625369244E+02 -0.33950278977E+02  0.38266164120E+02  0.00000000000E+00 0. -1.
</event>
<event>
 7    1  0.2817603E-011  0.5052886E+02  0.7816164E-02  0.1300439E+00
        -11   -1    0    0    0    0  0.00000000000E+00  0.00000000000E+00  0.45593999997E+02  0.45594000000E+02  0.51100000000E-03 0.  1.
         11   -1    0    0    0    0 -0.00000000000E+00 -0.00000000000E+00 -0.45593999997E+02  0.45594000000E+02  0.51100000000E-03 0. -1.
    9900012    2    1    2    0    0  0.10539505838E+02 -0.26789471298E+02 -0.28712518605E+02  0.50528859818E+02  0.29999999902E+02 0.  0.
        -12    1    1    2    0    0 -0.10539505838E+02  0.26789471298E+02  0.28712518605E+02  0.40659140182E+02  0.00000000000E+00 0.  1.
         11    1    3    3    0    0 -0.22187073406E+01  0.38782445283E+01 -0.27169762839E+01  0.52292832466E+01  0.51100000000E-03 0. -1.
        -11    1    3    3    0    0  0.74164301198E+01 -0.16567360166E+01 -0.54099044357E+01  0.93281979083E+01  0.51100000000E-03 0.  1.
        -12    1    3    3    0    0  0.53417830583E+01 -0.29010979810E+02 -0.20585637885E+02  0.35971378663E+02  0.00000000000E+00 0.  1.
</event>
<event>
 7    1  0.2817603E-011  0.5052886E+02  0.7816164E-02  0.1300439E+00
        -11   -1    0    0    0    0  0.00000000000E+00  0.00000000000E+00  0.45593999997E+02  0.45594000000E+02  0.51100000000E-03 0.  1.
         11   -1    0    0    0    0 -0.00000000000E+00 -0.00000000000E+00 -0.45593999997E+02  0.45594000000E+02  0.51100000000E-03 0. -1.
    9900012    2    1    2    0    0 -0.78428194100E+01  0.32416011953E+02 -0.23256353587E+02  0.50528860444E+02  0.30000001806E+02 0.  0.
        -12    1    1    2    0    0  0.78428194100E+01 -0.32416011953E+02  0.23256353587E+02  0.40659139556E+02  0.00000000000E+00 0.  1.
         11    1    3    3    0    0 -0.13039997229E+02  0.40047964194E+01 -0.13116069275E+02  0.18923826135E+02  0.51100000000E-03 0. -1.
        -11    1    3    3    0    0  0.34826326009E+01  0.39358995561E+01 -0.63853997240E+00  0.52941258680E+01  0.51100000000E-03 0.  1.
        -12    1    3    3    0    0  0.17145452183E+01  0.24475315978E+02 -0.95017443395E+01  0.26310908441E+02  0.00000000000E+00 0.  1.
</event>
<event>
 7    1  0.2817603E-011  0.5052884E+02  0.7816164E-02  0.1300439E+00
        -11   -1    0    0    0    0  0.00000000000E+00  0.00000000000E+00  0.45593999997E+02  0.45594000000E+02  0.51100000000E-03 0.  1.
         11   -1    0    0    0    0 -0.00000000000E+00 -0.00000000000E+00 -0.45593999997E+02  0.45594000000E+02  0.51100000000E-03 0. -1.
    9900012    2    1    2    0    0  0.59740498823E+01  0.43535495814E+01 -0.39981548739E+02  0.50528844752E+02  0.29999954108E+02 0.  0.
        -12    1    1    2    0    0 -0.59740498823E+01 -0.43535495814E+01  0.39981548739E+02  0.40659155248E+02  0.00000000000E+00 0.  1.
         11    1    3    3    0    0  0.37906963157E+01  0.63513024760E+01  0.20767413396E+00  0.73994290663E+01  0.51100000000E-03 0.  1.
        -11    1    3    3    0    0  0.60980897609E+01  0.36914178741E+01 -0.10804768795E+02  0.12944353735E+02  0.51100000000E-03 0. -1.
        -12    1    3    3    0    0 -0.39147361943E+01 -0.56891707687E+01 -0.29384454078E+02  0.30185061951E+02  0.00000000000E+00 0.  1.
</event>
<event>
 7    1  0.2817603E-011  0.5052884E+02  0.7816164E-02  0.1300439E+00
        -11   -1    0    0    0    0  0.00000000000E+00  0.00000000000E+00  0.45593999997E+02  0.45594000000E+02  0.51100000000E-03 0.  1.
         11   -1    0    0    0    0 -0.00000000000E+00 -0.00000000000E+00 -0.45593999997E+02  0.45594000000E+02  0.51100000000E-03 0. -1.
    9900012    2    1    2    0    0  0.35087207556E+02  0.19127306464E+02  0.74967466898E+01  0.50528841160E+02  0.29999943189E+02 0.  0.
        -12    1    1    2    0    0 -0.35087207556E+02 -0.19127306464E+02 -0.74967466898E+01  0.40659158840E+02  0.00000000000E+00 0.  1.
         11    1    3    3    0    0  0.29330317111E+01  0.49879019588E+01  0.36668170570E-01  0.57864657422E+01  0.51100000000E-03 0. -1.
        -11    1    3    3    0    0  0.19236014461E+02  0.19680438332E+02  0.11927013899E+02  0.29993292019E+02  0.51100000000E-03 0.  1.
         12    1    3    3    0    0  0.12918161384E+02 -0.55410338274E+01 -0.44669353801E+01  0.14749083399E+02  0.00000000000E+00 0. -1.
</event>
<event>
 7    1  0.2817603E-011  0.5052886E+02  0.7816164E-02  0.1300439E+00
        -11   -1    0    0    0    0  0.00000000000E+00  0.00000000000E+00  0.45593999997E+02  0.45594000000E+02  0.51100000000E-03 0.  1.
         11   -1    0    0    0    0 -0.00000000000E+00 -0.00000000000E+00 -0.45593999997E+02  0.45594000000E+02  0.51100000000E-03 0. -1.
    9900012    2    1    2    0    0 -0.53347027358E+01 -0.24457064572E+02 -0.32039953043E+02  0.50528860169E+02  0.30000000970E+02 0.  0.
        -12    1    1    2    0    0  0.53347027358E+01  0.24457064572E+02  0.32039953043E+02  0.40659139831E+02  0.00000000000E+00 0.  1.
         11    1    3    3    0    0 -0.10487755344E+01 -0.25573420690E+02 -0.19328896983E+02  0.32073447503E+02  0.51100000000E-03 0. -1.
        -11    1    3    3    0    0 -0.34193695392E+01 -0.44916117830E+01 -0.14235149358E+01  0.58217745996E+01  0.51100000000E-03 0.  1.
         12    1    3    3    0    0 -0.86655766215E+00  0.56079679006E+01 -0.11287541124E+02  0.12633638066E+02  0.00000000000E+00 0. -1.
</event>
<event>
 7    1  0.2817603E-011  0.5052887E+02  0.7816164E-02  0.1300439E+00
        -11   -1    0    0    0    0  0.00000000000E+00  0.00000000000E+00  0.45593999997E+02  0.45594000000E+02  0.51100000000E-03 0. -1.
         11   -1    0    0    0    0 -0.00000000000E+00 -0.00000000000E+00 -0.45593999997E+02  0.45594000000E+02  0.51100000000E-03 0.  1.
    9900012    2    1    2    0    0  0.27877333743E+01 -0.32531646917E+02  0.24229837447E+02  0.50528873950E+02  0.30000042858E+02 0.  0.
        -12    1    1    2    0    0 -0.27877333743E+01  0.32531646917E+02 -0.24229837447E+02  0.40659126050E+02  0.00000000000E+00 0.  1.
         11    1    3    3    0    0 -0.67829959000E+01 -0.13677554462E+02  0.96763129200E+01  0.18075274864E+02  0.51100000000E-03 0. -1.
        -11    1    3    3    0    0  0.64604357329E+01 -0.17875326490E+01  0.13501678019E+02  0.15074077498E+02  0.51100000000E-03 0.  1.
         12    1    3    3    0    0  0.31102935414E+01 -0.17066559806E+02  0.10518465075E+01  0.17379521587E+02  0.00000000000E+00 0. -1.
</event>
<event>
 7    1  0.2817603E-011  0.5052886E+02  0.7816164E-02  0.1300439E+00
        -11   -1    0    0    0    0  0.00000000000E+00  0.00000000000E+00  0.45593999997E+02  0.45594000000E+02  0.51100000000E-03 0.  1.
         11   -1    0    0    0    0 -0.00000000000E+00 -0.00000000000E+00 -0.45593999997E+02  0.45594000000E+02  0.51100000000E-03 0. -1.
    9900012    2    1    2    0    0 -0.30623957499E+02 -0.70077153225E+01 -0.25811442687E+02  0.50528863014E+02  0.30000009616E+02 0.  0.
        -12    1    1    2    0    0  0.30623957499E+02  0.70077153225E+01  0.25811442687E+02  0.40659136986E+02  0.00000000000E+00 0.  1.
         11    1    3    3    0    0 -0.64749712626E+01 -0.25297654040E+01 -0.23135898712E+02  0.24157706334E+02  0.51100000000E-03 0. -1.
        -11    1    3    3    0    0 -0.12123193262E+01  0.22120791950E+00 -0.26891420629E+01  0.29580629453E+01  0.51100000000E-03 0.  1.
        -12    1    3    3    0    0 -0.22936666910E+02 -0.46991578380E+01  0.13598088016E-01  0.23413093735E+02  0.00000000000E+00 0.  1.
</event>
<event>
 7    1  0.2817603E-011  0.5052879E+02  0.7816164E-02  0.1300439E+00
        -11   -1    0    0    0    0  0.00000000000E+00  0.00000000000E+00  0.45593999997E+02  0.45594000000E+02  0.51100000000E-03 0. -1.
         11   -1    0    0    0    0 -0.00000000000E+00 -0.00000000000E+00 -0.45593999997E+02  0.45594000000E+02  0.51100000000E-03 0.  1.
    9900012    2    1    2    0    0  0.31331809100E+02 -0.15720432081E+02  0.20599921593E+02  0.50528794205E+02  0.29999800464E+02 0.  0.
        -12    1    1    2    0    0 -0.31331809100E+02  0.15720432081E+02 -0.20599921593E+02  0.40659205795E+02  0.00000000000E+00 0.  1.
         11    1    3    3    0    0 -0.31324011961E+01 -0.51269971336E+00  0.45390750672E+01  0.55387725153E+01  0.51100000000E-03 0.  1.
        -11    1    3    3    0    0  0.34880927735E+01  0.35733212648E+01 -0.75854230246E+00  0.50508219870E+01  0.51100000000E-03 0. -1.
         12    1    3    3    0    0  0.30976117522E+02 -0.18781053633E+02  0.16819388829E+02  0.39939199702E+02  0.00000000000E+00 0. -1.
</event>
<event>
 7    1  0.2817603E-011  0.5052886E+02  0.7816164E-02  0.1300439E+00
        -11   -1    0    0    0    0  0.00000000000E+00  0.00000000000E+00  0.45593999997E+02  0.45594000000E+02  0.51100000000E-03 0.  1.
         11   -1    0    0    0    0 -0.00000000000E+00 -0.00000000000E+00 -0.45593999997E+02  0.45594000000E+02  0.51100000000E-03 0. -1.
    9900012    2    1    2    0    0 -0.24459671387E+02  0.20689821811E+02 -0.25036401084E+02  0.50528860435E+02  0.30000001778E+02 0.  0.
        -12    1    1    2    0    0  0.24459671387E+02 -0.20689821811E+02  0.25036401084E+02  0.40659139565E+02  0.00000000000E+00 0.  1.
         11    1    3    3    0    0 -0.88144615549E+01  0.69258699760E+01 -0.14458345682E+02  0.18294976566E+02  0.51100000000E-03 0. -1.
        -11    1    3    3    0    0 -0.12362563347E+02 -0.34619722414E+01 -0.33602044843E+01  0.13270614106E+02  0.51100000000E-03 0.  1.
        -12    1    3    3    0    0 -0.32826464851E+01  0.17225924076E+02 -0.72178509178E+01  0.18963269763E+02  0.00000000000E+00 0.  1.
</event>
<event>
 7    1  0.2817603E-011  0.5052888E+02  0.7816164E-02  0.1300439E+00
        -11   -1    0    0    0    0  0.00000000000E+00  0.00000000000E+00  0.45593999997E+02  0.45594000000E+02  0.51100000000E-03 0.  1.
         11   -1    0    0    0    0 -0.00000000000E+00 -0.00000000000E+00 -0.45593999997E+02  0.45594000000E+02  0.51100000000E-03 0. -1.
    9900012    2    1    2    0    0  0.29500105740E+02 -0.86821741083E+01 -0.26599389740E+02  0.50528881460E+02  0.30000065684E+02 0.  0.
        -12    1    1    2    0    0 -0.29500105740E+02  0.86821741083E+01  0.26599389740E+02  0.40659118540E+02  0.00000000000E+00 0.  1.
         11    1    3    3    0    0  0.87868072679E+01 -0.13182520089E+02 -0.14348152112E+02  0.21374196760E+02  0.51100000000E-03 0. -1.
        -11    1    3    3    0    0  0.63479793320E+01 -0.18079661072E+01 -0.11726562039E+02  0.13456516657E+02  0.51100000000E-03 0.  1.
        -12    1    3    3    0    0  0.14365319140E+02  0.63083120877E+01 -0.52467558968E+00  0.15698168042E+02  0.00000000000E+00 0.  1.
</event>
<event>
 7    1  0.2817603E-011  0.5052884E+02  0.7816164E-02  0.1300439E+00
        -11   -1    0    0    0    0  0.00000000000E+00  0.00000000000E+00  0.45593999997E+02  0.45594000000E+02  0.51100000000E-03 0. -1.
         11   -1    0    0    0    0 -0.00000000000E+00 -0.00000000000E+00 -0.45593999997E+02  0.45594000000E+02  0.51100000000E-03 0.  1.
    9900012    2    1    2    0    0  0.14721819792E+02 -0.23870590197E+02  0.29438581318E+02  0.50528842061E+02  0.29999945927E+02 0.  0.
        -12    1    1    2    0    0 -0.14721819792E+02  0.23870590197E+02 -0.29438581318E+02  0.40659157939E+02  0.00000000000E+00 0.  1.
         11    1    3    3    0    0 -0.77524395914E+01 -0.19704470715E+01  0.86768977575E+01  0.11801336206E+02  0.51100000000E-03 0.  1.
        -11    1    3    3    0    0  0.10427563526E+02 -0.11579957481E+02  0.15590725098E+02  0.22043144188E+02  0.51100000000E-03 0. -1.
        -12    1    3    3    0    0  0.12046695857E+02 -0.10320185644E+02  0.51709584618E+01  0.16684361667E+02  0.00000000000E+00 0.  1.
</event>
<event>
 7    1  0.2817603E-011  0.5052886E+02  0.7816164E-02  0.1300439E+00
        -11   -1    0    0    0    0  0.00000000000E+00  0.00000000000E+00  0.45593999997E+02  0.45594000000E+02  0.51100000000E-03 0.  1.
         11   -1    0    0    0    0 -0.00000000000E+00 -0.00000000000E+00 -0.45593999997E+02  0.45594000000E+02  0.51100000000E-03 0. -1.
    9900012    2    1    2    0    0  0.13296474043E+02  0.28025231738E+02 -0.26286042537E+02  0.50528857508E+02  0.29999992881E+02 0.  0.
        -12    1    1    2    0    0 -0.13296474043E+02 -0.28025231738E+02  0.26286042537E+02  0.40659142492E+02  0.00000000000E+00 0.  1.
         11    1    3    3    0    0  0.33679909350E+01 -0.13530383979E+01 -0.93536349813E+00  0.37481970304E+01  0.51100000000E-03 0.  1.
        -11    1    3    3    0    0  0.14064380066E+02  0.81720567191E+01 -0.17240623096E+02  0.23702919285E+02  0.51100000000E-03 0. -1.
         12    1    3    3    0    0 -0.41358969583E+01  0.21206213417E+02 -0.81100559430E+01  0.23077741192E+02  0.00000000000E+00 0. -1.
</event>
<event>
 7    1  0.2817603E-011  0.5052894E+02  0.7816164E-02  0.1300439E+00
        -11   -1    0    0    0    0  0.00000000000E+00  0.00000000000E+00  0.45593999997E+02  0.45594000000E+02  0.51100000000E-03 0. -1.
         11   -1    0    0    0    0 -0.00000000000E+00 -0.00000000000E+00 -0.45593999997E+02  0.45594000000E+02  0.51100000000E-03 0.  1.
    9900012    2    1    2    0    0 -0.36166939402E+02  0.11209107359E+02  0.14814443550E+02  0.50528937895E+02  0.30000237226E+02 0.  0.
        -12    1    1    2    0    0  0.36166939402E+02 -0.11209107359E+02 -0.14814443550E+02  0.40659062105E+02  0.00000000000E+00 0.  1.
         11    1    3    3    0    0 -0.12087412710E+02  0.92475714856E+00 -0.13011254594E+01  0.12192360293E+02  0.51100000000E-03 0.  1.
        -11    1    3    3    0    0 -0.85220042054E+00  0.34937728974E+01  0.13529387391E+02  0.13999179192E+02  0.51100000000E-03 0. -1.
         12    1    3    3    0    0 -0.23227326272E+02  0.67905773132E+01  0.25861816184E+01  0.24337398410E+02  0.00000000000E+00 0. -1.
</event>
<event>
 7    1  0.2817603E-011  0.5052886E+02  0.7816164E-02  0.1300439E+00
        -11   -1    0    0    0    0  0.00000000000E+00  0.00000000000E+00  0.45593999997E+02  0.45594000000E+02  0.51100000000E-03 0. -1.
         11   -1    0    0    0    0 -0.00000000000E+00 -0.00000000000E+00 -0.45593999997E+02  0.45594000000E+02  0.51100000000E-03 0.  1.
    9900012    2    1    2    0    0  0.11147368713E+02 -0.38784550057E+02  0.49659375991E+01  0.50528859717E+02  0.29999999595E+02 0.  0.
        -12    1    1    2    0    0 -0.11147368713E+02  0.38784550057E+02 -0.49659375991E+01  0.40659140283E+02  0.00000000000E+00 0.  1.
         11    1    3    3    0    0  0.45159026257E+01 -0.29226222401E+01  0.15227314446E+01  0.55905105846E+01  0.51100000000E-03 0. -1.
        -11    1    3    3    0    0  0.72394159269E+01 -0.33399987204E+02  0.11838887437E+02  0.36168045899E+02  0.51100000000E-03 0.  1.
        -12    1    3    3    0    0 -0.60794983978E+00 -0.24619406132E+01 -0.83956812830E+01  0.87703032328E+01  0.00000000000E+00 0.  1.
</event>
<event>
 7    1  0.2817603E-011  0.5052886E+02  0.7816164E-02  0.1300439E+00
        -11   -1    0    0    0    0  0.00000000000E+00  0.00000000000E+00  0.45593999997E+02  0.45594000000E+02  0.51100000000E-03 0.  1.
         11   -1    0    0    0    0 -0.00000000000E+00 -0.00000000000E+00 -0.45593999997E+02  0.45594000000E+02  0.51100000000E-03 0. -1.
    9900012    2    1    2    0    0 -0.34634305311E+02 -0.19987678397E+02 -0.73568715270E+01  0.50528856492E+02  0.29999989794E+02 0.  0.
        -12    1    1    2    0    0  0.34634305311E+02  0.19987678397E+02  0.73568715270E+01  0.40659143508E+02  0.00000000000E+00 0.  1.
         11    1    3    3    0    0 -0.12922121221E+02 -0.14746742878E+02 -0.68067669730E+01  0.20755233539E+02  0.51100000000E-03 0. -1.
        -11    1    3    3    0    0  0.23038803305E+01  0.23908482774E+01 -0.29744867049E+01  0.44577563282E+01  0.51100000000E-03 0.  1.
        -12    1    3    3    0    0 -0.24016064421E+02 -0.76317837968E+01  0.24243821509E+01  0.25315866626E+02  0.00000000000E+00 0.  1.
</event>
<event>
 7    1  0.2817603E-011  0.5052887E+02  0.7816164E-02  0.1300439E+00
        -11   -1    0    0    0    0  0.00000000000E+00  0.00000000000E+00  0.45593999997E+02  0.45594000000E+02  0.51100000000E-03 0. -1.
         11   -1    0    0    0    0 -0.00000000000E+00 -0.00000000000E+00 -0.45593999997E+02  0.45594000000E+02  0.51100000000E-03 0.  1.
    9900012    2    1    2    0    0  0.28493639539E+02  0.19891600950E+02  0.21109279868E+02  0.50528868441E+02  0.30000026114E+02 0.  0.
        -12    1    1    2    0    0 -0.28493639539E+02 -0.19891600950E+02 -0.21109279868E+02  0.40659131559E+02  0.00000000000E+00 0.  1.
         11    1    3    3    0    0  0.17689115029E+02  0.11553546129E+02  0.69830251009E+00  0.21139461803E+02  0.51100000000E-03 0. -1.
        -11    1    3    3    0    0 -0.67122453797E+00  0.81921398565E+01  0.34587325703E+01  0.89176526655E+01  0.51100000000E-03 0.  1.
         12    1    3    3    0    0  0.11475749049E+02  0.14591496477E+00  0.16952244788E+02  0.20471753973E+02  0.00000000000E+00 0. -1.
</event>
<event>
 7    1  0.2817603E-011  0.5052887E+02  0.7816164E-02  0.1300439E+00
        -11   -1    0    0    0    0  0.00000000000E+00  0.00000000000E+00  0.45593999997E+02  0.45594000000E+02  0.51100000000E-03 0. -1.
         11   -1    0    0    0    0 -0.00000000000E+00 -0.00000000000E+00 -0.45593999997E+02  0.45594000000E+02  0.51100000000E-03 0.  1.
    9900012    2    1    2    0    0 -0.14562976279E+02  0.11346039849E+02  0.36226397500E+02  0.50528870961E+02  0.30000033774E+02 0.  0.
        -12    1    1    2    0    0  0.14562976279E+02 -0.11346039849E+02 -0.36226397500E+02  0.40659129039E+02  0.00000000000E+00 0.  1.
         11    1    3    3    0    0 -0.10202748105E+02  0.37179340526E+01  0.64287553744E+01  0.12619350159E+02  0.51100000000E-03 0. -1.
        -11    1    3    3    0    0 -0.76856384550E+01  0.12718692774E+02  0.11996175790E+02  0.19098230761E+02  0.51100000000E-03 0.  1.
        -12    1    3    3    0    0  0.33254102809E+01 -0.50905869782E+01  0.17801466336E+02  0.18811290041E+02  0.00000000000E+00 0.  1.
</event>
<event>
 7    1  0.2817603E-011  0.5052888E+02  0.7816164E-02  0.1300439E+00
        -11   -1    0    0    0    0  0.00000000000E+00  0.00000000000E+00  0.45593999997E+02  0.45594000000E+02  0.51100000000E-03 0.  1.
         11   -1    0    0    0    0 -0.00000000000E+00 -0.00000000000E+00 -0.45593999997E+02  0.45594000000E+02  0.51100000000E-03 0. -1.
    9900012    2    1    2    0    0  0.37621353397E+02  0.65801471315E+01 -0.13946317525E+02  0.50528876298E+02  0.30000049997E+02 0.  0.
        -12    1    1    2    0    0 -0.37621353397E+02 -0.65801471315E+01  0.13946317525E+02  0.40659123702E+02  0.00000000000E+00 0.  1.
         11    1    3    3    0    0  0.20500459995E+02 -0.38464160868E+01 -0.38286969489E+01  0.21206666341E+02  0.51100000000E-03 0. -1.
        -11    1    3    3    0    0  0.38883852728E+01 -0.49610276551E+01  0.66953443407E+00  0.63387389948E+01  0.51100000000E-03 0.  1.
        -12    1    3    3    0    0  0.13232508129E+02  0.15387590873E+02 -0.10787155010E+02  0.22983470963E+02  0.00000000000E+00 0.  1.
</event>
<event>
 7    1  0.2817603E-011  0.5052886E+02  0.7816164E-02  0.1300439E+00
        -11   -1    0    0    0    0  0.00000000000E+00  0.00000000000E+00  0.45593999997E+02  0.45594000000E+02  0.51100000000E-03 0.  1.
         11   -1    0    0    0    0 -0.00000000000E+00 -0.00000000000E+00 -0.45593999997E+02  0.45594000000E+02  0.51100000000E-03 0. -1.
    9900012    2    1    2    0    0 -0.22458019005E+02  0.33848900653E+02  0.17478801918E+01  0.50528858614E+02  0.29999996244E+02 0.  0.
        -12    1    1    2    0    0  0.22458019005E+02 -0.33848900653E+02 -0.17478801918E+01  0.40659141386E+02  0.00000000000E+00 0.  1.
         11    1    3    3    0    0 -0.29692121401E+01  0.30884607856E+01  0.10526930467E+01  0.44116860348E+01  0.51100000000E-03 0. -1.
        -11    1    3    3    0    0 -0.18242230541E+02  0.14108688601E+02  0.11956119000E+02  0.25976582742E+02  0.51100000000E-03 0.  1.
         12    1    3    3    0    0 -0.12465763235E+01  0.16651751267E+02 -0.11260931854E+02  0.20140589838E+02  0.00000000000E+00 0. -1.
</event>
<event>
 7    1  0.2817603E-011  0.5052886E+02  0.7816164E-02  0.1300439E+00
        -11   -1    0    0    0    0  0.00000000000E+00  0.00000000000E+00  0.45593999997E+02  0.45594000000E+02  0.51100000000E-03 0.  1.
         11   -1    0    0    0    0 -0.00000000000E+00 -0.00000000000E+00 -0.45593999997E+02  0.45594000000E+02  0.51100000000E-03 0. -1.
    9900012    2    1    2    0    0  0.28471157743E+02  0.19459802218E+02 -0.21537746818E+02  0.50528864943E+02  0.30000015481E+02 0.  0.
        -12    1    1    2    0    0 -0.28471157743E+02 -0.19459802218E+02  0.21537746818E+02  0.40659135057E+02  0.00000000000E+00 0.  1.
         11    1    3    3    0    0  0.10370456060E+02  0.67480585109E+01 -0.43251909544E+01  0.13106865743E+02  0.51100000000E-03 0. -1.
        -11    1    3    3    0    0  0.23414053685E+02  0.61865714821E+01 -0.95221525674E+01  0.26022355129E+02  0.51100000000E-03 0.  1.
        -12    1    3    3    0    0 -0.53133520028E+01  0.65251722247E+01 -0.76904032967E+01  0.11399644071E+02  0.00000000000E+00 0.  1.
</event>
<event>
 7    1  0.2817603E-011  0.5052887E+02  0.7816164E-02  0.1300439E+00
        -11   -1    0    0    0    0  0.00000000000E+00  0.00000000000E+00  0.45593999997E+02  0.45594000000E+02  0.51100000000E-03 0. -1.
         11   -1    0    0    0    0 -0.00000000000E+00 -0.00000000000E+00 -0.45593999997E+02  0.45594000000E+02  0.51100000000E-03 0.  1.
    9900012    2    1    2    0    0 -0.22618965318E+02  0.31936214576E+02  0.11028408974E+02  0.50528865750E+02  0.30000017933E+02 0.  0.
        -12    1    1    2    0    0  0.22618965318E+02 -0.31936214576E+02 -0.11028408974E+02  0.40659134250E+02  0.00000000000E+00 0.  1.
         11    1    3    3    0    0 -0.70711781619E+00  0.13630698596E+02 -0.20325400338E+01  0.13799535466E+02  0.51100000000E-03 0. -1.
        -11    1    3    3    0    0 -0.25501678152E+01 -0.26609748757E+01 -0.22746226162E+01  0.43310566242E+01  0.51100000000E-03 0.  1.
         12    1    3    3    0    0 -0.19361679687E+02  0.20966490855E+02  0.15335571624E+02  0.32398273659E+02  0.00000000000E+00 0. -1.
</event>
<event>
 7    1  0.2817603E-011  0.5052887E+02  0.7816164E-02  0.1300439E+00
        -11   -1    0    0    0    0  0.00000000000E+00  0.00000000000E+00  0.45593999997E+02  0.45594000000E+02  0.51100000000E-03 0.  1.
         11   -1    0    0    0    0 -0.00000000000E+00 -0.00000000000E+00 -0.45593999997E+02  0.45594000000E+02  0.51100000000E-03 0. -1.
    9900012    2    1    2    0    0  0.31260545013E+01 -0.37316048162E+02 -0.15839992123E+02  0.50528867968E+02  0.30000024676E+02 0.  0.
        -12    1    1    2    0    0 -0.31260545013E+01  0.37316048162E+02  0.15839992123E+02  0.40659132032E+02  0.00000000000E+00 0.  1.
         11    1    3    3    0    0  0.98085134071E+01 -0.26266332167E+02 -0.45192745575E+01  0.28399841260E+02  0.51100000000E-03 0. -1.
        -11    1    3    3    0    0  0.42816766491E+01 -0.17265868981E+01 -0.25276869445E+01  0.52633695286E+01  0.51100000000E-03 0.  1.
         12    1    3    3    0    0 -0.10964135555E+02 -0.93231290960E+01 -0.87930306208E+01  0.16865657180E+02  0.00000000000E+00 0. -1.
</event>
<event>
 7    1  0.2817603E-011  0.5052886E+02  0.7816164E-02  0.1300439E+00
        -11   -1    0    0    0    0  0.00000000000E+00  0.00000000000E+00  0.45593999997E+02  0.45594000000E+02  0.51100000000E-03 0.  1.
         11   -1    0    0    0    0 -0.00000000000E+00 -0.00000000000E+00 -0.45593999997E+02  0.45594000000E+02  0.51100000000E-03 0. -1.
    9900012    2    1    2    0    0  0.40577704632E+02 -0.25417817200E+01 -0.39382269637E+00  0.50528857561E+02  0.29999993043E+02 0.  0.
        -12    1    1    2    0    0 -0.40577704632E+02  0.25417817200E+01  0.39382269637E+00  0.40659142439E+02  0.00000000000E+00 0.  1.
         11    1    3    3    0    0  0.23825838077E+02  0.38516226226E+01  0.67234064906E+01  0.25054136425E+02  0.51100000000E-03 0. -1.
        -11    1    3    3    0    0  0.19602354475E+02 -0.51085873299E+01 -0.32734852936E+01  0.20519884787E+02  0.51100000000E-03 0.  1.
        -12    1    3    3    0    0 -0.28504879189E+01 -0.12848170127E+01 -0.38437438934E+01  0.49548363494E+01  0.00000000000E+00 0.  1.
</event>
<event>
 7    1  0.2817603E-011  0.5052886E+02  0.7816164E-02  0.1300439E+00
        -11   -1    0    0    0    0  0.00000000000E+00  0.00000000000E+00  0.45593999997E+02  0.45594000000E+02  0.51100000000E-03 0. -1.
         11   -1    0    0    0    0 -0.00000000000E+00 -0.00000000000E+00 -0.45593999997E+02  0.45594000000E+02  0.51100000000E-03 0.  1.
    9900012    2    1    2    0    0 -0.12621957087E+02 -0.38542570976E+02 -0.28847412247E+01  0.50528864371E+02  0.30000013743E+02 0.  0.
        -12    1    1    2    0    0  0.12621957087E+02  0.38542570976E+02  0.28847412247E+01  0.40659135629E+02  0.00000000000E+00 0.  1.
         11    1    3    3    0    0 -0.10670368516E+02 -0.86314765900E+01  0.47818122545E+01  0.14533577711E+02  0.51100000000E-03 0. -1.
        -11    1    3    3    0    0 -0.52279789779E+01 -0.23693777543E+00 -0.20305488731E+01  0.56134688643E+01  0.51100000000E-03 0.  1.
        -12    1    3    3    0    0  0.32763904072E+01 -0.29674156611E+02 -0.56360046061E+01  0.30381817796E+02  0.00000000000E+00 0.  1.
</event>
<event>
 7    1  0.2817603E-011  0.5052885E+02  0.7816164E-02  0.1300439E+00
        -11   -1    0    0    0    0  0.00000000000E+00  0.00000000000E+00  0.45593999997E+02  0.45594000000E+02  0.51100000000E-03 0.  1.
         11   -1    0    0    0    0 -0.00000000000E+00 -0.00000000000E+00 -0.45593999997E+02  0.45594000000E+02  0.51100000000E-03 0. -1.
    9900012    2    1    2    0    0  0.90114337441E+01 -0.37500582197E+02 -0.12871153192E+02  0.50528853579E+02  0.29999980938E+02 0.  0.
        -12    1    1    2    0    0 -0.90114337441E+01  0.37500582197E+02  0.12871153192E+02  0.40659146421E+02  0.00000000000E+00 0.  1.
         11    1    3    3    0    0  0.87964184789E+01 -0.95816297754E+01 -0.49394633403E+01  0.13913407403E+02  0.51100000000E-03 0. -1.
        -11    1    3    3    0    0  0.10776130233E+02 -0.93391300602E+01 -0.46143363553E+01  0.14987876212E+02  0.51100000000E-03 0.  1.
        -12    1    3    3    0    0 -0.10561114968E+02 -0.18579822361E+02 -0.33173534964E+01  0.21627569964E+02  0.00000000000E+00 0.  1.
</event>
<event>
 7    1  0.2817603E-011  0.5052886E+02  0.7816164E-02  0.1300439E+00
        -11   -1    0    0    0    0  0.00000000000E+00  0.00000000000E+00  0.45593999997E+02  0.45594000000E+02  0.51100000000E-03 0.  1.
         11   -1    0    0    0    0 -0.00000000000E+00 -0.00000000000E+00 -0.45593999997E+02  0.45594000000E+02  0.51100000000E-03 0. -1.
    9900012    2    1    2    0    0 -0.31040021163E+02  0.12641854760E+02 -0.23018827774E+02  0.50528857883E+02  0.29999994020E+02 0.  0.
        -12    1    1    2    0    0  0.31040021163E+02 -0.12641854760E+02  0.23018827774E+02  0.40659142117E+02  0.00000000000E+00 0.  1.
         11    1    3    3    0    0 -0.13008545939E+02  0.35766846515E+01 -0.84072980151E+01  0.15896465038E+02  0.51100000000E-03 0. -1.
        -11    1    3    3    0    0 -0.20277224895E+02  0.80231557079E+01 -0.21332644894E+01  0.21910903555E+02  0.51100000000E-03 0.  1.
        -12    1    3    3    0    0  0.22457496705E+01  0.10420144009E+01 -0.12478265270E+02  0.12721489289E+02  0.00000000000E+00 0.  1.
</event>
<event>
 7    1  0.2817603E-011  0.5052885E+02  0.7816164E-02  0.1300439E+00
        -11   -1    0    0    0    0  0.00000000000E+00  0.00000000000E+00  0.45593999997E+02  0.45594000000E+02  0.51100000000E-03 0.  1.
         11   -1    0    0    0    0 -0.00000000000E+00 -0.00000000000E+00 -0.45593999997E+02  0.45594000000E+02  0.51100000000E-03 0. -1.
    9900012    2    1    2    0    0  0.54626770196E+01 -0.11353423364E+02 -0.38657793986E+02  0.50528854679E+02  0.29999984283E+02 0.  0.
        -12    1    1    2    0    0 -0.54626770196E+01  0.11353423364E+02  0.38657793986E+02  0.40659145321E+02  0.00000000000E+00 0.  1.
         11    1    3    3    0    0  0.43462753264E+01 -0.32536241395E+01 -0.41406842138E+01  0.68279898414E+01  0.51100000000E-03 0. -1.
        -11    1    3    3    0    0  0.11176279519E+02 -0.30240283913E+01 -0.60045333551E+01  0.13042560818E+02  0.51100000000E-03 0.  1.
         12    1    3    3    0    0 -0.10059877826E+02 -0.50757708334E+01 -0.28512576418E+02  0.30658304020E+02  0.00000000000E+00 0. -1.
</event>
<event>
 7    1  0.2817603E-011  0.5052888E+02  0.7816164E-02  0.1300439E+00
        -11   -1    0    0    0    0  0.00000000000E+00  0.00000000000E+00  0.45593999997E+02  0.45594000000E+02  0.51100000000E-03 0.  1.
         11   -1    0    0    0    0 -0.00000000000E+00 -0.00000000000E+00 -0.45593999997E+02  0.45594000000E+02  0.51100000000E-03 0. -1.
    9900012    2    1    2    0    0  0.36789324837E+02 -0.16421198895E+01 -0.17234070823E+02  0.50528878307E+02  0.30000056102E+02 0.  0.
        -12    1    1    2    0    0 -0.36789324837E+02  0.16421198895E+01  0.17234070823E+02  0.40659121693E+02  0.00000000000E+00 0.  1.
         11    1    3    3    0    0  0.95456012626E+01  0.97552869213E+01 -0.10264329857E+02  0.17077487931E+02  0.51100000000E-03 0. -1.
        -11    1    3    3    0    0  0.50883993557E+01  0.23010208206E+01  0.19549256072E+01  0.59167760826E+01  0.51100000000E-03 0.  1.
         12    1    3    3    0    0  0.22155324219E+02 -0.13698427631E+02 -0.89246665732E+01  0.27534614293E+02  0.00000000000E+00 0. -1.
</event>
<event>
 7    1  0.2817603E-011  0.5052886E+02  0.7816164E-02  0.1300439E+00
        -11   -1    0    0    0    0  0.00000000000E+00  0.00000000000E+00  0.45593999997E+02  0.45594000000E+02  0.51100000000E-03 0.  1.
         11   -1    0    0    0    0 -0.00000000000E+00 -0.00000000000E+00 -0.45593999997E+02  0.45594000000E+02  0.51100000000E-03 0. -1.
    9900012    2    1    2    0    0  0.36225352337E+02 -0.16410174273E+02 -0.84614211052E+01  0.50528860576E+02  0.30000002207E+02 0.  0.
        -12    1    1    2    0    0 -0.36225352337E+02  0.16410174273E+02  0.84614211052E+01  0.40659139424E+02  0.00000000000E+00 0.  1.
         11    1    3    3    0    0  0.28001875505E+01  0.88037170036E+00 -0.33218380006E+01  0.44329124300E+01  0.51100000000E-03 0. -1.
        -11    1    3    3    0    0  0.64229024404E+01  0.28937594890E+01  0.73158050670E+01  0.10156206171E+02  0.51100000000E-03 0.  1.
         12    1    3    3    0    0  0.27002262346E+02 -0.20184305462E+02 -0.12455388172E+02  0.35939741976E+02  0.00000000000E+00 0. -1.
</event>
<event>
 7    1  0.2817603E-011  0.5052886E+02  0.7816164E-02  0.1300439E+00
        -11   -1    0    0    0    0  0.00000000000E+00  0.00000000000E+00  0.45593999997E+02  0.45594000000E+02  0.51100000000E-03 0. -1.
         11   -1    0    0    0    0 -0.00000000000E+00 -0.00000000000E+00 -0.45593999997E+02  0.45594000000E+02  0.51100000000E-03 0.  1.
    9900012    2    1    2    0    0 -0.16233359237E+02 -0.27926129749E+02  0.24693622119E+02  0.50528860213E+02  0.30000001103E+02 0.  0.
        -12    1    1    2    0    0  0.16233359237E+02  0.27926129749E+02 -0.24693622119E+02  0.40659139787E+02  0.00000000000E+00 0.  1.
         11    1    3    3    0    0 -0.88451812612E+00 -0.64241058703E+00 -0.15177489360E+01  0.18704613793E+01  0.51100000000E-03 0. -1.
        -11    1    3    3    0    0 -0.90453163652E+01  0.16306075895E+01  0.13770914677E+02  0.16556410256E+02  0.51100000000E-03 0.  1.
         12    1    3    3    0    0 -0.63035247458E+01 -0.28914326752E+02  0.12440456377E+02  0.32101988577E+02  0.00000000000E+00 0. -1.
</event>
<event>
 7    1  0.2817603E-011  0.5052886E+02  0.7816164E-02  0.1300439E+00
        -11   -1    0    0    0    0  0.00000000000E+00  0.00000000000E+00  0.45593999997E+02  0.45594000000E+02  0.51100000000E-03 0.  1.
         11   -1    0    0    0    0 -0.00000000000E+00 -0.00000000000E+00 -0.45593999997E+02  0.45594000000E+02  0.51100000000E-03 0. -1.
    9900012    2    1    2    0    0  0.32979543832E+02 -0.20233913648E+02  0.12494162199E+02  0.50528860044E+02  0.30000000590E+02 0.  0.
        -12    1    1    2    0    0 -0.32979543832E+02  0.20233913648E+02 -0.12494162199E+02  0.40659139956E+02  0.00000000000E+00 0.  1.
         11    1    3    3    0    0  0.74651689713E+01 -0.80438538707E+01  0.57357472165E+00  0.10989145603E+02  0.51100000000E-03 0. -1.
        -11    1    3    3    0    0 -0.24890283344E+01 -0.85312076549E+01  0.34578117754E-02  0.88868879996E+01  0.51100000000E-03 0.  1.
        -12    1    3    3    0    0  0.28003403195E+02 -0.36588521228E+01  0.11917129666E+02  0.30652826441E+02  0.00000000000E+00 0.  1.
</event>
<event>
 7    1  0.2817603E-011  0.5052886E+02  0.7816164E-02  0.1300439E+00
        -11   -1    0    0    0    0  0.00000000000E+00  0.00000000000E+00  0.45593999997E+02  0.45594000000E+02  0.51100000000E-03 0.  1.
         11   -1    0    0    0    0 -0.00000000000E+00 -0.00000000000E+00 -0.45593999997E+02  0.45594000000E+02  0.51100000000E-03 0. -1.
    9900012    2    1    2    0    0  0.20815215227E+02  0.22733182664E+02 -0.26515943230E+02  0.50528855587E+02  0.29999987043E+02 0.  0.
        -12    1    1    2    0    0 -0.20815215227E+02 -0.22733182664E+02  0.26515943230E+02  0.40659144413E+02  0.00000000000E+00 0.  1.
         11    1    3    3    0    0 -0.10935963200E+01  0.55835077122E+01 -0.52926879491E+00  0.57141610934E+01  0.51100000000E-03 0. -1.
        -11    1    3    3    0    0 -0.30116717813E+01  0.95889984777E+01 -0.10406820841E+02  0.14467929327E+02  0.51100000000E-03 0.  1.
        -12    1    3    3    0    0  0.24920483329E+02  0.75606764741E+01 -0.15579853594E+02  0.30346765167E+02  0.00000000000E+00 0.  1.
</event>
<event>
 7    1  0.2817603E-011  0.5052888E+02  0.7816164E-02  0.1300439E+00
        -11   -1    0    0    0    0  0.00000000000E+00  0.00000000000E+00  0.45593999997E+02  0.45594000000E+02  0.51100000000E-03 0.  1.
         11   -1    0    0    0    0 -0.00000000000E+00 -0.00000000000E+00 -0.45593999997E+02  0.45594000000E+02  0.51100000000E-03 0. -1.
    9900012    2    1    2    0    0  0.26486270931E+01  0.28343797355E+02 -0.29030642392E+02  0.50528877141E+02  0.30000052558E+02 0.  0.
        -12    1    1    2    0    0 -0.26486270931E+01 -0.28343797355E+02  0.29030642392E+02  0.40659122859E+02  0.00000000000E+00 0.  1.
         11    1    3    3    0    0  0.21159308664E+01  0.32930900196E+01 -0.12734554149E+02  0.13322555120E+02  0.51100000000E-03 0. -1.
        -11    1    3    3    0    0  0.32255989508E+01 -0.24920244988E+01  0.14554902138E+01  0.43281782215E+01  0.51100000000E-03 0.  1.
         12    1    3    3    0    0 -0.26929027241E+01  0.27542731834E+02 -0.17751578457E+02  0.32878143799E+02  0.00000000000E+00 0. -1.
</event>
<event>
 7    1  0.2817603E-011  0.5052887E+02  0.7816164E-02  0.1300439E+00
        -11   -1    0    0    0    0  0.00000000000E+00  0.00000000000E+00  0.45593999997E+02  0.45594000000E+02  0.51100000000E-03 0.  1.
         11   -1    0    0    0    0 -0.00000000000E+00 -0.00000000000E+00 -0.45593999997E+02  0.45594000000E+02  0.51100000000E-03 0. -1.
    9900012    2    1    2    0    0 -0.39790925027E+02 -0.75119947860E+01 -0.36629808939E+01  0.50528865612E+02  0.30000017513E+02 0.  0.
        -12    1    1    2    0    0  0.39790925027E+02  0.75119947860E+01  0.36629808939E+01  0.40659134388E+02  0.00000000000E+00 0.  1.
         11    1    3    3    0    0 -0.22558630696E+02 -0.72149936493E+01  0.39255612114E+01  0.24007456827E+02  0.51100000000E-03 0. -1.
        -11    1    3    3    0    0 -0.12498350088E+01 -0.32800705837E+01 -0.95220114507E+01  0.10148381788E+02  0.51100000000E-03 0.  1.
         12    1    3    3    0    0 -0.15982459322E+02  0.29830694471E+01  0.19334693454E+01  0.16373026996E+02  0.00000000000E+00 0. -1.
</event>
<event>
 7    1  0.2817603E-011  0.5052888E+02  0.7816164E-02  0.1300439E+00
        -11   -1    0    0    0    0  0.00000000000E+00  0.00000000000E+00  0.45593999997E+02  0.45594000000E+02  0.51100000000E-03 0.  1.
         11   -1    0    0    0    0 -0.00000000000E+00 -0.00000000000E+00 -0.45593999997E+02  0.45594000000E+02  0.51100000000E-03 0. -1.
    9900012    2    1    2    0    0 -0.31555131832E+02  0.83366382933E+01 -0.24247428697E+02  0.50528884400E+02  0.30000074621E+02 0.  0.
        -12    1    1    2    0    0  0.31555131832E+02 -0.83366382933E+01  0.24247428697E+02  0.40659115600E+02  0.00000000000E+00 0.  1.
         11    1    3    3    0    0 -0.22798978722E+02 -0.41358888762E+01 -0.47872587552E+01  0.23660449155E+02  0.51100000000E-03 0. -1.
        -11    1    3    3    0    0 -0.59698109294E+01  0.24747825755E+01 -0.23890475724E+01  0.68899012978E+01  0.51100000000E-03 0.  1.
        -12    1    3    3    0    0 -0.27863421806E+01  0.99977445940E+01 -0.17071122370E+02  0.19978533947E+02  0.00000000000E+00 0.  1.
</event>
<event>
 7    1  0.2817603E-011  0.5052884E+02  0.7816164E-02  0.1300439E+00
        -11   -1    0    0    0    0  0.00000000000E+00  0.00000000000E+00  0.45593999997E+02  0.45594000000E+02  0.51100000000E-03 0.  1.
         11   -1    0    0    0    0 -0.00000000000E+00 -0.00000000000E+00 -0.45593999997E+02  0.45594000000E+02  0.51100000000E-03 0. -1.
    9900012    2    1    2    0    0  0.11657646708E+02  0.10696804913E+02 -0.37454571459E+02  0.50528840082E+02  0.29999939912E+02 0.  0.
        -12    1    1    2    0    0 -0.11657646708E+02 -0.10696804913E+02  0.37454571459E+02  0.40659159918E+02  0.00000000000E+00 0.  1.
         11    1    3    3    0    0  0.78537781995E+01  0.25011910800E+01 -0.14667194063E+02  0.16824516955E+02  0.51100000000E-03 0. -1.
        -11    1    3    3    0    0  0.11031874905E+02 -0.30605577847E+01 -0.10077871419E+02  0.15252303776E+02  0.51100000000E-03 0.  1.
         12    1    3    3    0    0 -0.72280063966E+01  0.11256171618E+02 -0.12709505977E+02  0.18452019351E+02  0.00000000000E+00 0. -1.
</event>
<event>
 7    1  0.2817603E-011  0.5052886E+02  0.7816164E-02  0.1300439E+00
        -11   -1    0    0    0    0  0.00000000000E+00  0.00000000000E+00  0.45593999997E+02  0.45594000000E+02  0.51100000000E-03 0.  1.
         11   -1    0    0    0    0 -0.00000000000E+00 -0.00000000000E+00 -0.45593999997E+02  0.45594000000E+02  0.51100000000E-03 0. -1.
    9900012    2    1    2    0    0  0.39374433130E+02  0.65506001498E+01 -0.77400945618E+01  0.50528863137E+02  0.30000009992E+02 0.  0.
        -12    1    1    2    0    0 -0.39374433130E+02 -0.65506001498E+01  0.77400945618E+01  0.40659136863E+02  0.00000000000E+00 0.  1.
         11    1    3    3    0    0  0.21295129338E+02  0.16346601068E+01 -0.71062592521E+01  0.22508966391E+02  0.51100000000E-03 0. -1.
        -11    1    3    3    0    0  0.21820833409E+02  0.93487121444E+00  0.20426978017E+01  0.21936165787E+02  0.51100000000E-03 0.  1.
         12    1    3    3    0    0 -0.37415296169E+01  0.39810688286E+01 -0.26765331115E+01  0.60837309596E+01  0.00000000000E+00 0. -1.
</event>
<event>
 7    1  0.2817603E-011  0.5052885E+02  0.7816164E-02  0.1300439E+00
        -11   -1    0    0    0    0  0.00000000000E+00  0.00000000000E+00  0.45593999997E+02  0.45594000000E+02  0.51100000000E-03 0. -1.
         11   -1    0    0    0    0 -0.00000000000E+00 -0.00000000000E+00 -0.45593999997E+02  0.45594000000E+02  0.51100000000E-03 0.  1.
    9900012    2    1    2    0    0 -0.24191497930E+01 -0.23938637912E+02  0.32775839865E+02  0.50528851588E+02  0.29999974886E+02 0.  0.
        -12    1    1    2    0    0  0.24191497930E+01  0.23938637912E+02 -0.32775839865E+02  0.40659148412E+02  0.00000000000E+00 0.  1.
         11    1    3    3    0    0 -0.18833799282E+01  0.65486426581E+00 -0.34405791991E+01  0.39766257867E+01  0.51100000000E-03 0. -1.
        -11    1    3    3    0    0 -0.33756835290E+01  0.96685133482E+00  0.49230177506E+01  0.60469946937E+01  0.51100000000E-03 0.  1.
         12    1    3    3    0    0  0.28399136641E+01 -0.25560353513E+02  0.31293401313E+02  0.40505231107E+02  0.00000000000E+00 0. -1.
</event>
<event>
 7    1  0.2817603E-011  0.5052886E+02  0.7816164E-02  0.1300439E+00
        -11   -1    0    0    0    0  0.00000000000E+00  0.00000000000E+00  0.45593999997E+02  0.45594000000E+02  0.51100000000E-03 0. -1.
         11   -1    0    0    0    0 -0.00000000000E+00 -0.00000000000E+00 -0.45593999997E+02  0.45594000000E+02  0.51100000000E-03 0.  1.
    9900012    2    1    2    0    0  0.71820959691E+01 -0.35512823186E+02  0.18450542044E+02  0.50528860623E+02  0.30000002350E+02 0.  0.
        -12    1    1    2    0    0 -0.71820959691E+01  0.35512823186E+02 -0.18450542044E+02  0.40659139377E+02  0.00000000000E+00 0.  1.
         11    1    3    3    0    0  0.60477546723E+01 -0.14785214262E+02  0.56886572516E+01  0.16956966678E+02  0.51100000000E-03 0. -1.
        -11    1    3    3    0    0  0.17879399065E+01  0.26407809231E+01  0.94342858435E+01  0.99587249500E+01  0.51100000000E-03 0.  1.
         12    1    3    3    0    0 -0.65359860979E+00 -0.23368389847E+02  0.33275989489E+01  0.23613168995E+02  0.00000000000E+00 0. -1.
</event>
<event>
 7    1  0.2817603E-011  0.5052878E+02  0.7816164E-02  0.1300439E+00
        -11   -1    0    0    0    0  0.00000000000E+00  0.00000000000E+00  0.45593999997E+02  0.45594000000E+02  0.51100000000E-03 0.  1.
         11   -1    0    0    0    0 -0.00000000000E+00 -0.00000000000E+00 -0.45593999997E+02  0.45594000000E+02  0.51100000000E-03 0. -1.
    9900012    2    1    2    0    0 -0.34119196223E+02 -0.71724405716E+01 -0.20919106521E+02  0.50528776295E+02  0.29999746026E+02 0.  0.
        -12    1    1    2    0    0  0.34119196223E+02  0.71724405716E+01  0.20919106521E+02  0.40659223705E+02  0.00000000000E+00 0.  1.
         11    1    3    3    0    0 -0.14656961778E+02 -0.92978234878E+01 -0.34595607903E+01  0.17698717786E+02  0.51100000000E-03 0. -1.
        -11    1    3    3    0    0 -0.68966675453E+00 -0.65089345923E+01 -0.72993317931E+01  0.98041886276E+01  0.51100000000E-03 0.  1.
         12    1    3    3    0    0 -0.18772567691E+02  0.86343175085E+01 -0.10160213938E+02  0.23025869881E+02  0.00000000000E+00 0. -1.
</event>
<event>
 7    1  0.2817603E-011  0.5052889E+02  0.7816164E-02  0.1300439E+00
        -11   -1    0    0    0    0  0.00000000000E+00  0.00000000000E+00  0.45593999997E+02  0.45594000000E+02  0.51100000000E-03 0.  1.
         11   -1    0    0    0    0 -0.00000000000E+00 -0.00000000000E+00 -0.45593999997E+02  0.45594000000E+02  0.51100000000E-03 0. -1.
    9900012    2    1    2    0    0 -0.33636937731E+02  0.23135765186E+01 -0.22723707047E+02  0.50528891818E+02  0.30000097169E+02 0.  0.
        -12    1    1    2    0    0  0.33636937731E+02 -0.23135765186E+01  0.22723707047E+02  0.40659108182E+02  0.00000000000E+00 0.  1.
         11    1    3    3    0    0  0.16522193241E+01 -0.16045378436E+01 -0.41828124684E+01  0.47749650044E+01  0.51100000000E-03 0. -1.
        -11    1    3    3    0    0  0.17313826054E+01 -0.53021238696E+00 -0.62292447141E+01  0.64870872408E+01  0.51100000000E-03 0.  1.
         12    1    3    3    0    0 -0.37020539660E+02  0.44483267492E+01 -0.12311649865E+02  0.39266839572E+02  0.00000000000E+00 0. -1.
</event>
<event>
 7    1  0.2817603E-011  0.5052886E+02  0.7816164E-02  0.1300439E+00
        -11   -1    0    0    0    0  0.00000000000E+00  0.00000000000E+00  0.45593999997E+02  0.45594000000E+02  0.51100000000E-03 0.  1.
         11   -1    0    0    0    0 -0.00000000000E+00 -0.00000000000E+00 -0.45593999997E+02  0.45594000000E+02  0.51100000000E-03 0. -1.
    9900012    2    1    2    0    0  0.31387404022E+02  0.12323173018E+02 -0.22718626613E+02  0.50528859334E+02  0.29999998433E+02 0.  0.
        -12    1    1    2    0    0 -0.31387404022E+02 -0.12323173018E+02  0.22718626613E+02  0.40659140666E+02  0.00000000000E+00 0.  1.
         11    1    3    3    0    0  0.10535487050E+02  0.21725571107E+01 -0.12067986942E+02  0.16166409647E+02  0.51100000000E-03 0. -1.
        -11    1    3    3    0    0  0.19257218428E+02 -0.18424176518E+01 -0.11009432396E+02  0.22258539178E+02  0.51100000000E-03 0.  1.
        -12    1    3    3    0    0  0.15946985436E+01  0.11993033559E+02  0.35879272489E+00  0.12103910509E+02  0.00000000000E+00 0.  1.
</event>
<event>
 7    1  0.2817603E-011  0.5052887E+02  0.7816164E-02  0.1300439E+00
        -11   -1    0    0    0    0  0.00000000000E+00  0.00000000000E+00  0.45593999997E+02  0.45594000000E+02  0.51100000000E-03 0.  1.
         11   -1    0    0    0    0 -0.00000000000E+00 -0.00000000000E+00 -0.45593999997E+02  0.45594000000E+02  0.51100000000E-03 0. -1.
    9900012    2    1    2    0    0  0.20999966551E+02  0.13494103889E+02 -0.32094786980E+02  0.50528870814E+02  0.30000033325E+02 0.  0.
        -12    1    1    2    0    0 -0.20999966551E+02 -0.13494103889E+02  0.32094786980E+02  0.40659129186E+02  0.00000000000E+00 0.  1.
         11    1    3    3    0    0  0.29589838559E+01 -0.44831607291E+01  0.10276421700E+01  0.54690368689E+01  0.51100000000E-03 0. -1.
        -11    1    3    3    0    0  0.98119621976E+01 -0.41944513666E+00 -0.69691000940E+01  0.12042379033E+02  0.51100000000E-03 0.  1.
         12    1    3    3    0    0  0.82290204973E+01  0.18396709755E+02 -0.26153329056E+02  0.33017454912E+02  0.00000000000E+00 0. -1.
</event>
<event>
 7    1  0.2817603E-011  0.5052890E+02  0.7816164E-02  0.1300439E+00
        -11   -1    0    0    0    0  0.00000000000E+00  0.00000000000E+00  0.45593999997E+02  0.45594000000E+02  0.51100000000E-03 0.  1.
         11   -1    0    0    0    0 -0.00000000000E+00 -0.00000000000E+00 -0.45593999997E+02  0.45594000000E+02  0.51100000000E-03 0. -1.
    9900012    2    1    2    0    0 -0.37290222968E+02  0.16102435532E+02  0.18203310726E+01  0.50528895678E+02  0.30000108903E+02 0.  0.
        -12    1    1    2    0    0  0.37290222968E+02 -0.16102435532E+02 -0.18203310726E+01  0.40659104322E+02  0.00000000000E+00 0.  1.
         11    1    3    3    0    0 -0.12273533276E+02  0.87219342687E+00 -0.33120513572E+01  0.12742449721E+02  0.51100000000E-03 0. -1.
        -11    1    3    3    0    0 -0.15668400990E+02 -0.36705461877E+01  0.34228330106E-01  0.16092634052E+02  0.51100000000E-03 0.  1.
        -12    1    3    3    0    0 -0.93482887023E+01  0.18900788293E+02  0.50981540997E+01  0.21693811905E+02  0.00000000000E+00 0.  1.
</event>
<event>
 7    1  0.2817603E-011  0.5052888E+02  0.7816164E-02  0.1300439E+00
        -11   -1    0    0    0    0  0.00000000000E+00  0.00000000000E+00  0.45593999997E+02  0.45594000000E+02  0.51100000000E-03 0.  1.
         11   -1    0    0    0    0 -0.00000000000E+00 -0.00000000000E+00 -0.45593999997E+02  0.45594000000E+02  0.51100000000E-03 0. -1.
    9900012    2    1    2    0    0 -0.15517409890E+02  0.18515272663E+02 -0.32704108381E+02  0.50528880033E+02  0.30000061348E+02 0.  0.
        -12    1    1    2    0    0  0.15517409890E+02 -0.18515272663E+02  0.32704108381E+02  0.40659119967E+02  0.00000000000E+00 0.  1.
         11    1    3    3    0    0 -0.13977296155E+02  0.20215324020E+02 -0.13290774706E+02  0.27940451421E+02  0.51100000000E-03 0. -1.
        -11    1    3    3    0    0 -0.64666177167E+01 -0.57886792976E+00 -0.10653216159E+02  0.12475706295E+02  0.51100000000E-03 0.  1.
        -12    1    3    3    0    0  0.49265039814E+01 -0.11211834275E+01 -0.87601175164E+01  0.10112722317E+02  0.00000000000E+00 0.  1.
</event>
<event>
 7    1  0.2817603E-011  0.5052888E+02  0.7816164E-02  0.1300439E+00
        -11   -1    0    0    0    0  0.00000000000E+00  0.00000000000E+00  0.45593999997E+02  0.45594000000E+02  0.51100000000E-03 0.  1.
         11   -1    0    0    0    0 -0.00000000000E+00 -0.00000000000E+00 -0.45593999997E+02  0.45594000000E+02  0.51100000000E-03 0. -1.
    9900012    2    1    2    0    0 -0.24805545211E+02  0.64581607662E+01 -0.31561707836E+02  0.50528876605E+02  0.30000050930E+02 0.  0.
        -12    1    1    2    0    0  0.24805545211E+02 -0.64581607662E+01  0.31561707836E+02  0.40659123395E+02  0.00000000000E+00 0.  1.
         11    1    3    3    0    0 -0.33870976001E+01 -0.38888775271E+00  0.76943367283E+00  0.34950954600E+01  0.51100000000E-03 0. -1.
        -11    1    3    3    0    0 -0.17041700395E+02 -0.78230248914E+01 -0.16010176529E+02  0.24656541192E+02  0.51100000000E-03 0.  1.
         12    1    3    3    0    0 -0.43767472160E+01  0.14670073410E+02 -0.16320964980E+02  0.22377239954E+02  0.00000000000E+00 0. -1.
</event>
<event>
 7    1  0.2817603E-011  0.5052879E+02  0.7816164E-02  0.1300439E+00
        -11   -1    0    0    0    0  0.00000000000E+00  0.00000000000E+00  0.45593999997E+02  0.45594000000E+02  0.51100000000E-03 0.  1.
         11   -1    0    0    0    0 -0.00000000000E+00 -0.00000000000E+00 -0.45593999997E+02  0.45594000000E+02  0.51100000000E-03 0. -1.
    9900012    2    1    2    0    0  0.19970145794E+02 -0.21557613370E+02 -0.28100430694E+02  0.50528786746E+02  0.29999777794E+02 0.  0.
        -12    1    1    2    0    0 -0.19970145794E+02  0.21557613370E+02  0.28100430694E+02  0.40659213254E+02  0.00000000000E+00 0.  1.
         11    1    3    3    0    0  0.13973132030E+01 -0.15705632840E+02 -0.43085336943E+01  0.16345728798E+02  0.51100000000E-03 0. -1.
        -11    1    3    3    0    0 -0.11574871088E+01 -0.43970597474E+01 -0.63393632007E+01  0.78013740380E+01  0.51100000000E-03 0.  1.
        -12    1    3    3    0    0  0.19730319700E+02 -0.14549207823E+01 -0.17452533799E+02  0.26381683910E+02  0.00000000000E+00 0.  1.
</event>
<event>
 7    1  0.2817603E-011  0.5052886E+02  0.7816164E-02  0.1300439E+00
        -11   -1    0    0    0    0  0.00000000000E+00  0.00000000000E+00  0.45593999997E+02  0.45594000000E+02  0.51100000000E-03 0.  1.
         11   -1    0    0    0    0 -0.00000000000E+00 -0.00000000000E+00 -0.45593999997E+02  0.45594000000E+02  0.51100000000E-03 0. -1.
    9900012    2    1    2    0    0 -0.12706749050E+02  0.23035951180E+02 -0.31000789925E+02  0.50528862107E+02  0.30000006862E+02 0.  0.
        -12    1    1    2    0    0  0.12706749050E+02 -0.23035951180E+02  0.31000789925E+02  0.40659137893E+02  0.00000000000E+00 0.  1.
         11    1    3    3    0    0 -0.30816422454E+01  0.12949233404E+02 -0.25645198397E+01  0.13555660328E+02  0.51100000000E-03 0.  1.
        -11    1    3    3    0    0  0.23885356748E+01  0.10930737610E+02 -0.17091108238E+02  0.20427728910E+02  0.51100000000E-03 0. -1.
        -12    1    3    3    0    0 -0.12013642480E+02 -0.84401983343E+00 -0.11345161847E+02  0.16545472869E+02  0.00000000000E+00 0.  1.
</event>
<event>
 7    1  0.2817603E-011  0.5052886E+02  0.7816164E-02  0.1300439E+00
        -11   -1    0    0    0    0  0.00000000000E+00  0.00000000000E+00  0.45593999997E+02  0.45594000000E+02  0.51100000000E-03 0.  1.
         11   -1    0    0    0    0 -0.00000000000E+00 -0.00000000000E+00 -0.45593999997E+02  0.45594000000E+02  0.51100000000E-03 0. -1.
    9900012    2    1    2    0    0 -0.69836468505E+01  0.38906154779E+02  0.95239275664E+01  0.50528863274E+02  0.30000010406E+02 0.  0.
        -12    1    1    2    0    0  0.69836468505E+01 -0.38906154779E+02 -0.95239275664E+01  0.40659136726E+02  0.00000000000E+00 0.  1.
         11    1    3    3    0    0 -0.87946241662E+01  0.87796502614E+01  0.49289379062E+01  0.13368698593E+02  0.51100000000E-03 0. -1.
        -11    1    3    3    0    0  0.74622834659E+01  0.14310650277E+01  0.15572022172E+01  0.77561911171E+01  0.51100000000E-03 0.  1.
         12    1    3    3    0    0 -0.56513061501E+01  0.28695439490E+02  0.30377874430E+01  0.29403973563E+02  0.00000000000E+00 0. -1.
</event>
<event>
 7    1  0.2817603E-011  0.5052885E+02  0.7816164E-02  0.1300439E+00
        -11   -1    0    0    0    0  0.00000000000E+00  0.00000000000E+00  0.45593999997E+02  0.45594000000E+02  0.51100000000E-03 0. -1.
         11   -1    0    0    0    0 -0.00000000000E+00 -0.00000000000E+00 -0.45593999997E+02  0.45594000000E+02  0.51100000000E-03 0.  1.
    9900012    2    1    2    0    0 -0.10877894157E+02  0.39040267154E+02  0.32703502917E+01  0.50528853037E+02  0.29999979290E+02 0.  0.
        -12    1    1    2    0    0  0.10877894157E+02 -0.39040267154E+02 -0.32703502917E+01  0.40659146963E+02  0.00000000000E+00 0.  1.
         11    1    3    3    0    0 -0.91611489761E+01  0.95668046470E+01 -0.95114342422E+00  0.13279874841E+02  0.51100000000E-03 0. -1.
        -11    1    3    3    0    0 -0.64679624898E+01  0.53461256035E+00 -0.28404644281E+01  0.70843904317E+01  0.51100000000E-03 0.  1.
        -12    1    3    3    0    0  0.47512173086E+01  0.28938849947E+02  0.70619581440E+01  0.30164587764E+02  0.00000000000E+00 0.  1.
</event>
<event>
 7    1  0.2817603E-011  0.5052887E+02  0.7816164E-02  0.1300439E+00
        -11   -1    0    0    0    0  0.00000000000E+00  0.00000000000E+00  0.45593999997E+02  0.45594000000E+02  0.51100000000E-03 0. -1.
         11   -1    0    0    0    0 -0.00000000000E+00 -0.00000000000E+00 -0.45593999997E+02  0.45594000000E+02  0.51100000000E-03 0.  1.
    9900012    2    1    2    0    0 -0.38780766342E+02  0.21878262189E+01 -0.12017931876E+02  0.50528866853E+02  0.30000021287E+02 0.  0.
        -12    1    1    2    0    0  0.38780766342E+02 -0.21878262189E+01  0.12017931876E+02  0.40659133147E+02  0.00000000000E+00 0.  1.
         11    1    3    3    0    0 -0.24282739563E+01  0.35709890410E+01  0.52176560007E+00  0.43497950228E+01  0.51100000000E-03 0. -1.
        -11    1    3    3    0    0 -0.61551230238E+01  0.41006678364E+01 -0.13587413387E+02  0.15469932739E+02  0.51100000000E-03 0.  1.
         12    1    3    3    0    0 -0.30197369362E+02 -0.54838306585E+01  0.10477159110E+01  0.30709139091E+02  0.00000000000E+00 0. -1.
</event>
<event>
 7    1  0.2817603E-011  0.5052887E+02  0.7816164E-02  0.1300439E+00
        -11   -1    0    0    0    0  0.00000000000E+00  0.00000000000E+00  0.45593999997E+02  0.45594000000E+02  0.51100000000E-03 0. -1.
         11   -1    0    0    0    0 -0.00000000000E+00 -0.00000000000E+00 -0.45593999997E+02  0.45594000000E+02  0.51100000000E-03 0.  1.
    9900012    2    1    2    0    0  0.38451810656E+02 -0.11690008320E+02  0.61617289761E+01  0.50528868907E+02  0.30000027531E+02 0.  0.
        -12    1    1    2    0    0 -0.38451810656E+02  0.11690008320E+02 -0.61617289761E+01  0.40659131093E+02  0.00000000000E+00 0.  1.
         11    1    3    3    0    0  0.14462159547E+02 -0.74599305770E+01  0.17782225521E+01  0.16369688411E+02  0.51100000000E-03 0. -1.
        -11    1    3    3    0    0 -0.22969663701E+01 -0.29291733338E+01 -0.49860979136E+01  0.62223213988E+01  0.51100000000E-03 0.  1.
         12    1    3    3    0    0  0.26286617479E+02 -0.13009044090E+01  0.93696043377E+01  0.27936859097E+02  0.00000000000E+00 0. -1.
</event>
<event>
 7    1  0.2817603E-011  0.5052886E+02  0.7816164E-02  0.1300439E+00
        -11   -1    0    0    0    0  0.00000000000E+00  0.00000000000E+00  0.45593999997E+02  0.45594000000E+02  0.51100000000E-03 0. -1.
         11   -1    0    0    0    0 -0.00000000000E+00 -0.00000000000E+00 -0.45593999997E+02  0.45594000000E+02  0.51100000000E-03 0.  1.
    9900012    2    1    2    0    0 -0.13788798695E+02 -0.37785215490E+02 -0.59424091315E+01  0.50528859510E+02  0.29999998966E+02 0.  0.
        -12    1    1    2    0    0  0.13788798695E+02  0.37785215490E+02  0.59424091315E+01  0.40659140490E+02  0.00000000000E+00 0.  1.
         11    1    3    3    0    0  0.10475671453E+01 -0.28058782174E+02 -0.96806946507E+01  0.29700311500E+02  0.51100000000E-03 0. -1.
        -11    1    3    3    0    0 -0.20971187689E+01 -0.26832666283E+01 -0.32267351383E+01  0.46914440041E+01  0.51100000000E-03 0.  1.
        -12    1    3    3    0    0 -0.12739247071E+02 -0.70431666886E+01  0.69650206576E+01  0.16137104006E+02  0.00000000000E+00 0.  1.
</event>
<event>
 7    1  0.2817603E-011  0.5052889E+02  0.7816164E-02  0.1300439E+00
        -11   -1    0    0    0    0  0.00000000000E+00  0.00000000000E+00  0.45593999997E+02  0.45594000000E+02  0.51100000000E-03 0. -1.
         11   -1    0    0    0    0 -0.00000000000E+00 -0.00000000000E+00 -0.45593999997E+02  0.45594000000E+02  0.51100000000E-03 0.  1.
    9900012    2    1    2    0    0 -0.10496164833E+02  0.26145946226E+02  0.29315243241E+02  0.50528887042E+02  0.30000082653E+02 0.  0.
        -12    1    1    2    0    0  0.10496164833E+02 -0.26145946226E+02 -0.29315243241E+02  0.40659112958E+02  0.00000000000E+00 0.  1.
         11    1    3    3    0    0  0.22505674055E+01  0.15476104420E+02  0.58948645238E+01  0.16712997627E+02  0.51100000000E-03 0. -1.
        -11    1    3    3    0    0 -0.63222751718E+01  0.13379692377E+02  0.78405865032E+01  0.16747003566E+02  0.51100000000E-03 0.  1.
         12    1    3    3    0    0 -0.64244570671E+01 -0.27098505710E+01  0.15579792214E+02  0.17068885849E+02  0.00000000000E+00 0. -1.
</event>
<event>
 7    1  0.2817603E-011  0.5052887E+02  0.7816164E-02  0.1300439E+00
        -11   -1    0    0    0    0  0.00000000000E+00  0.00000000000E+00  0.45593999997E+02  0.45594000000E+02  0.51100000000E-03 0.  1.
         11   -1    0    0    0    0 -0.00000000000E+00 -0.00000000000E+00 -0.45593999997E+02  0.45594000000E+02  0.51100000000E-03 0. -1.
    9900012    2    1    2    0    0 -0.30007295706E+02 -0.99571450012E+01 -0.25565257699E+02  0.50528869003E+02  0.30000027822E+02 0.  0.
        -12    1    1    2    0    0  0.30007295706E+02  0.99571450012E+01  0.25565257699E+02  0.40659130997E+02  0.00000000000E+00 0.  1.
         11    1    3    3    0    0 -0.11127165319E+02  0.55036519546E+01 -0.16047939525E+02  0.20288922005E+02  0.51100000000E-03 0. -1.
        -11    1    3    3    0    0 -0.16331674424E+02 -0.43783463015E+01 -0.31249604997E+01  0.17194734200E+02  0.51100000000E-03 0.  1.
        -12    1    3    3    0    0 -0.25484559629E+01 -0.11082450654E+02 -0.63923576750E+01  0.13045212798E+02  0.00000000000E+00 0.  1.
</event>
<event>
 7    1  0.2817603E-011  0.5052886E+02  0.7816164E-02  0.1300439E+00
        -11   -1    0    0    0    0  0.00000000000E+00  0.00000000000E+00  0.45593999997E+02  0.45594000000E+02  0.51100000000E-03 0.  1.
         11   -1    0    0    0    0 -0.00000000000E+00 -0.00000000000E+00 -0.45593999997E+02  0.45594000000E+02  0.51100000000E-03 0. -1.
    9900012    2    1    2    0    0 -0.12952519596E+01  0.40140152201E+02 -0.63447571202E+01  0.50528862783E+02  0.30000008915E+02 0.  0.
        -12    1    1    2    0    0  0.12952519596E+01 -0.40140152201E+02  0.63447571202E+01  0.40659137217E+02  0.00000000000E+00 0.  1.
         11    1    3    3    0    0 -0.50467812039E+01 -0.53820371553E+00  0.19373886515E+00  0.50790942862E+01  0.51100000000E-03 0. -1.
        -11    1    3    3    0    0 -0.62736803676E+01  0.12913253673E+02  0.25103928457E+01  0.14574404217E+02  0.51100000000E-03 0.  1.
         12    1    3    3    0    0  0.10025209612E+02  0.27765102243E+02 -0.90488888310E+01  0.30875364280E+02  0.00000000000E+00 0. -1.
</event>
<event>
 7    1  0.2817603E-011  0.5052886E+02  0.7816164E-02  0.1300439E+00
        -11   -1    0    0    0    0  0.00000000000E+00  0.00000000000E+00  0.45593999997E+02  0.45594000000E+02  0.51100000000E-03 0.  1.
         11   -1    0    0    0    0 -0.00000000000E+00 -0.00000000000E+00 -0.45593999997E+02  0.45594000000E+02  0.51100000000E-03 0. -1.
    9900012    2    1    2    0    0  0.15802639653E+02 -0.14101003862E+02 -0.34707406099E+02  0.50528858739E+02  0.29999996624E+02 0.  0.
        -12    1    1    2    0    0 -0.15802639653E+02  0.14101003862E+02  0.34707406099E+02  0.40659141261E+02  0.00000000000E+00 0.  1.
         11    1    3    3    0    0  0.66494234497E-01 -0.19458140424E+01  0.26606720956E+00  0.19650460025E+01  0.51100000000E-03 0. -1.
        -11    1    3    3    0    0 -0.51665828378E+01 -0.70388619021E+01 -0.21420842068E+02  0.23132047688E+02  0.51100000000E-03 0.  1.
         12    1    3    3    0    0  0.20902728257E+02 -0.51163279177E+01 -0.13552631241E+02  0.25431765049E+02  0.00000000000E+00 0. -1.
</event>
<event>
 7    1  0.2817603E-011  0.5052887E+02  0.7816164E-02  0.1300439E+00
        -11   -1    0    0    0    0  0.00000000000E+00  0.00000000000E+00  0.45593999997E+02  0.45594000000E+02  0.51100000000E-03 0.  1.
         11   -1    0    0    0    0 -0.00000000000E+00 -0.00000000000E+00 -0.45593999997E+02  0.45594000000E+02  0.51100000000E-03 0. -1.
    9900012    2    1    2    0    0 -0.44866398955E+00 -0.14301034553E+02 -0.38058426486E+02  0.50528871686E+02  0.30000035977E+02 0.  0.
        -12    1    1    2    0    0  0.44866398955E+00  0.14301034553E+02  0.38058426486E+02  0.40659128314E+02  0.00000000000E+00 0.  1.
         11    1    3    3    0    0 -0.59332992492E+01 -0.17200051764E+02 -0.22725179457E+02  0.29111502920E+02  0.51100000000E-03 0. -1.
        -11    1    3    3    0    0 -0.13638577371E+01 -0.41866399215E+01 -0.19958416386E+01  0.48344023278E+01  0.51100000000E-03 0.  1.
         12    1    3    3    0    0  0.68484929967E+01  0.70856571328E+01 -0.13337405391E+02  0.16582966438E+02  0.00000000000E+00 0. -1.
</event>
<event>
 7    1  0.2817603E-011  0.5052886E+02  0.7816164E-02  0.1300439E+00
        -11   -1    0    0    0    0  0.00000000000E+00  0.00000000000E+00  0.45593999997E+02  0.45594000000E+02  0.51100000000E-03 0.  1.
         11   -1    0    0    0    0 -0.00000000000E+00 -0.00000000000E+00 -0.45593999997E+02  0.45594000000E+02  0.51100000000E-03 0. -1.
    9900012    2    1    2    0    0  0.18867370847E+02  0.14952448231E+02 -0.32766021016E+02  0.50528861741E+02  0.30000005747E+02 0.  0.
        -12    1    1    2    0    0 -0.18867370847E+02 -0.14952448231E+02  0.32766021016E+02  0.40659138259E+02  0.00000000000E+00 0.  1.
         11    1    3    3    0    0  0.95881193820E+01  0.10662184553E+02 -0.78686108338E+01  0.16356321391E+02  0.51100000000E-03 0. -1.
        -11    1    3    3    0    0 -0.14919050770E+01  0.17141706492E+00  0.33449465329E+01  0.36665831694E+01  0.51100000000E-03 0.  1.
         12    1    3    3    0    0  0.10771156542E+02  0.41188466133E+01 -0.28242356715E+02  0.30505957181E+02  0.00000000000E+00 0. -1.
</event>
<event>
 7    1  0.2817603E-011  0.5052886E+02  0.7816164E-02  0.1300439E+00
        -11   -1    0    0    0    0  0.00000000000E+00  0.00000000000E+00  0.45593999997E+02  0.45594000000E+02  0.51100000000E-03 0. -1.
         11   -1    0    0    0    0 -0.00000000000E+00 -0.00000000000E+00 -0.45593999997E+02  0.45594000000E+02  0.51100000000E-03 0.  1.
    9900012    2    1    2    0    0 -0.15837730759E+01  0.35263183404E+02 -0.20178334162E+02  0.50528860677E+02  0.30000002513E+02 0.  0.
        -12    1    1    2    0    0  0.15837730759E+01 -0.35263183404E+02  0.20178334162E+02  0.40659139323E+02  0.00000000000E+00 0.  1.
         11    1    3    3    0    0 -0.23460168126E+01  0.26647467835E+02 -0.10129386976E+02  0.28604122389E+02  0.51100000000E-03 0. -1.
        -11    1    3    3    0    0 -0.17920890042E+01  0.13332680236E+02 -0.44466365078E+01  0.14168433991E+02  0.51100000000E-03 0.  1.
        -12    1    3    3    0    0  0.25543327408E+01 -0.47169646660E+01 -0.56023106776E+01  0.77563042965E+01  0.00000000000E+00 0.  1.
</event>
<event>
 7    1  0.2817603E-011  0.5052882E+02  0.7816164E-02  0.1300439E+00
        -11   -1    0    0    0    0  0.00000000000E+00  0.00000000000E+00  0.45593999997E+02  0.45594000000E+02  0.51100000000E-03 0.  1.
         11   -1    0    0    0    0 -0.00000000000E+00 -0.00000000000E+00 -0.45593999997E+02  0.45594000000E+02  0.51100000000E-03 0. -1.
    9900012    2    1    2    0    0  0.18478398174E+02 -0.11890621127E+02 -0.34210094100E+02  0.50528823813E+02  0.29999890462E+02 0.  0.
        -12    1    1    2    0    0 -0.18478398174E+02  0.11890621127E+02  0.34210094100E+02  0.40659176187E+02  0.00000000000E+00 0.  1.
         11    1    3    3    0    0  0.57276493593E+01 -0.44082649261E+01  0.32025126497E+00  0.72347306775E+01  0.51100000000E-03 0. -1.
        -11    1    3    3    0    0 -0.35209126265E+01 -0.60553514256E+01 -0.26803681753E+01  0.74998986945E+01  0.51100000000E-03 0.  1.
         12    1    3    3    0    0  0.16271661441E+02 -0.14270047757E+01 -0.31849977190E+02  0.35794194441E+02  0.00000000000E+00 0. -1.
</event>
<event>
 7    1  0.2817603E-011  0.5052886E+02  0.7816164E-02  0.1300439E+00
        -11   -1    0    0    0    0  0.00000000000E+00  0.00000000000E+00  0.45593999997E+02  0.45594000000E+02  0.51100000000E-03 0. -1.
         11   -1    0    0    0    0 -0.00000000000E+00 -0.00000000000E+00 -0.45593999997E+02  0.45594000000E+02  0.51100000000E-03 0.  1.
    9900012    2    1    2    0    0 -0.11567577242E+02 -0.23210115181E+01  0.38909762951E+02  0.50528860922E+02  0.30000003257E+02 0.  0.
        -12    1    1    2    0    0  0.11567577242E+02  0.23210115181E+01 -0.38909762951E+02  0.40659139078E+02  0.00000000000E+00 0.  1.
         11    1    3    3    0    0  0.12964443053E+01 -0.25357618225E+01 -0.14476244869E+01  0.31947570758E+01  0.51100000000E-03 0.  1.
        -11    1    3    3    0    0 -0.49667904575E+01  0.62987018017E+01  0.28312532659E+01  0.85063886081E+01  0.51100000000E-03 0. -1.
         12    1    3    3    0    0 -0.78972310895E+01 -0.60839514973E+01  0.37526134172E+02  0.38827715238E+02  0.00000000000E+00 0. -1.
</event>
<event>
 7    1  0.2817603E-011  0.5052886E+02  0.7816164E-02  0.1300439E+00
        -11   -1    0    0    0    0  0.00000000000E+00  0.00000000000E+00  0.45593999997E+02  0.45594000000E+02  0.51100000000E-03 0. -1.
         11   -1    0    0    0    0 -0.00000000000E+00 -0.00000000000E+00 -0.45593999997E+02  0.45594000000E+02  0.51100000000E-03 0.  1.
    9900012    2    1    2    0    0  0.21115505495E+01  0.36660789833E+01  0.40438434769E+02  0.50528858501E+02  0.29999995901E+02 0.  0.
        -12    1    1    2    0    0 -0.21115505495E+01 -0.36660789833E+01 -0.40438434769E+02  0.40659141499E+02  0.00000000000E+00 0.  1.
         11    1    3    3    0    0  0.21636973409E+00 -0.75648639801E+01  0.57120068272E+01  0.94816140585E+01  0.51100000000E-03 0. -1.
        -11    1    3    3    0    0 -0.63420566830E+01  0.35487141328E+01  0.39436311476E+01  0.82684509950E+01  0.51100000000E-03 0.  1.
        -12    1    3    3    0    0  0.82372374985E+01  0.76822288306E+01  0.30782796794E+02  0.32778793448E+02  0.00000000000E+00 0.  1.
</event>
<event>
 7    1  0.2817603E-011  0.5052878E+02  0.7816164E-02  0.1300439E+00
        -11   -1    0    0    0    0  0.00000000000E+00  0.00000000000E+00  0.45593999997E+02  0.45594000000E+02  0.51100000000E-03 0.  1.
         11   -1    0    0    0    0 -0.00000000000E+00 -0.00000000000E+00 -0.45593999997E+02  0.45594000000E+02  0.51100000000E-03 0. -1.
    9900012    2    1    2    0    0 -0.39005875391E+02  0.11446425382E+02 -0.83248035442E+00  0.50528782194E+02  0.29999763955E+02 0.  0.
        -12    1    1    2    0    0  0.39005875391E+02 -0.11446425382E+02  0.83248035442E+00  0.40659217806E+02  0.00000000000E+00 0.  1.
         11    1    3    3    0    0 -0.98606290934E+01 -0.25105652324E+01 -0.52323719592E+01  0.11441707062E+02  0.51100000000E-03 0. -1.
        -11    1    3    3    0    0 -0.23169159022E+02  0.78769893215E+01  0.12366620903E+02  0.27418792887E+02  0.51100000000E-03 0.  1.
         12    1    3    3    0    0 -0.59760872760E+01  0.60800012931E+01 -0.79667292979E+01  0.11668282245E+02  0.00000000000E+00 0. -1.
</event>
<event>
 7    1  0.2817603E-011  0.5052887E+02  0.7816164E-02  0.1300439E+00
        -11   -1    0    0    0    0  0.00000000000E+00  0.00000000000E+00  0.45593999997E+02  0.45594000000E+02  0.51100000000E-03 0.  1.
         11   -1    0    0    0    0 -0.00000000000E+00 -0.00000000000E+00 -0.45593999997E+02  0.45594000000E+02  0.51100000000E-03 0. -1.
    9900012    2    1    2    0    0  0.11966352047E+02 -0.35607216471E+02 -0.15559490263E+02  0.50528865929E+02  0.30000018478E+02 0.  0.
        -12    1    1    2    0    0 -0.11966352047E+02  0.35607216471E+02  0.15559490263E+02  0.40659134071E+02  0.00000000000E+00 0.  1.
         11    1    3    3    0    0  0.53296450600E+01 -0.15733850635E+02 -0.46632537613E+01  0.17254133075E+02  0.51100000000E-03 0. -1.
        -11    1    3    3    0    0 -0.40167361588E+01 -0.18281946266E+02 -0.11582249283E+01  0.18753805318E+02  0.51100000000E-03 0.  1.
        -12    1    3    3    0    0  0.10653443146E+02 -0.15914195700E+01 -0.97380115735E+01  0.14520927536E+02  0.00000000000E+00 0.  1.
</event>
<event>
 7    1  0.2817603E-011  0.5052886E+02  0.7816164E-02  0.1300439E+00
        -11   -1    0    0    0    0  0.00000000000E+00  0.00000000000E+00  0.45593999997E+02  0.45594000000E+02  0.51100000000E-03 0. -1.
         11   -1    0    0    0    0 -0.00000000000E+00 -0.00000000000E+00 -0.45593999997E+02  0.45594000000E+02  0.51100000000E-03 0.  1.
    9900012    2    1    2    0    0  0.37280827361E+02  0.16140948455E+02 -0.16659354878E+01  0.50528860231E+02  0.30000001157E+02 0.  0.
        -12    1    1    2    0    0 -0.37280827361E+02 -0.16140948455E+02  0.16659354878E+01  0.40659139769E+02  0.00000000000E+00 0.  1.
         11    1    3    3    0    0  0.97024209350E+00  0.54053143186E+01 -0.31508852448E+01  0.63314193267E+01  0.51100000000E-03 0. -1.
        -11    1    3    3    0    0  0.58828095957E+00  0.15860916032E+01 -0.62880909070E+01  0.65116701834E+01  0.51100000000E-03 0.  1.
         12    1    3    3    0    0  0.35722304308E+02  0.91495425336E+01  0.77730406640E+01  0.37685770720E+02  0.00000000000E+00 0. -1.
</event>
<event>
 7    1  0.2817603E-011  0.5052887E+02  0.7816164E-02  0.1300439E+00
        -11   -1    0    0    0    0  0.00000000000E+00  0.00000000000E+00  0.45593999997E+02  0.45594000000E+02  0.51100000000E-03 0.  1.
         11   -1    0    0    0    0 -0.00000000000E+00 -0.00000000000E+00 -0.45593999997E+02  0.45594000000E+02  0.51100000000E-03 0. -1.
    9900012    2    1    2    0    0 -0.65144448804E+01  0.35073663871E+02 -0.19508075127E+02  0.50528869603E+02  0.30000029645E+02 0.  0.
        -12    1    1    2    0    0  0.65144448804E+01 -0.35073663871E+02  0.19508075127E+02  0.40659130397E+02  0.00000000000E+00 0.  1.
         11    1    3    3    0    0 -0.24020523794E+01  0.54831439862E+00 -0.82214074121E+01  0.85826595184E+01  0.51100000000E-03 0. -1.
        -11    1    3    3    0    0  0.27931170352E+01  0.95031347682E+01 -0.12513914363E+02  0.15959609210E+02  0.51100000000E-03 0.  1.
         12    1    3    3    0    0 -0.69055095362E+01  0.25022214705E+02  0.12272466476E+01  0.25986600875E+02  0.00000000000E+00 0. -1.
</event>
<event>
 7    1  0.2817603E-011  0.5052886E+02  0.7816164E-02  0.1300439E+00
        -11   -1    0    0    0    0  0.00000000000E+00  0.00000000000E+00  0.45593999997E+02  0.45594000000E+02  0.51100000000E-03 0.  1.
         11   -1    0    0    0    0 -0.00000000000E+00 -0.00000000000E+00 -0.45593999997E+02  0.45594000000E+02  0.51100000000E-03 0. -1.
    9900012    2    1    2    0    0 -0.14737061662E+02  0.43714747746E+01 -0.37641401120E+02  0.50528857653E+02  0.29999993321E+02 0.  0.
        -12    1    1    2    0    0  0.14737061662E+02 -0.43714747746E+01  0.37641401120E+02  0.40659142347E+02  0.00000000000E+00 0.  1.
         11    1    3    3    0    0 -0.11682468492E+02 -0.26724160872E+01 -0.29030105437E+02  0.31406510467E+02  0.51100000000E-03 0. -1.
        -11    1    3    3    0    0  0.26118789038E+01 -0.20209374785E+01 -0.77180585338E+01  0.83949108091E+01  0.51100000000E-03 0.  1.
        -12    1    3    3    0    0 -0.56664720735E+01  0.90648283403E+01 -0.89323714988E+00  0.10727436376E+02  0.00000000000E+00 0.  1.
</event>
<event>
 7    1  0.2817603E-011  0.5052887E+02  0.7816164E-02  0.1300439E+00
        -11   -1    0    0    0    0  0.00000000000E+00  0.00000000000E+00  0.45593999997E+02  0.45594000000E+02  0.51100000000E-03 0.  1.
         11   -1    0    0    0    0 -0.00000000000E+00 -0.00000000000E+00 -0.45593999997E+02  0.45594000000E+02  0.51100000000E-03 0. -1.
    9900012    2    1    2    0    0 -0.97573705179E+01 -0.11969140543E+02 -0.37612469619E+02  0.50528874633E+02  0.30000044934E+02 0.  0.
        -12    1    1    2    0    0  0.97573705179E+01  0.11969140543E+02  0.37612469619E+02  0.40659125367E+02  0.00000000000E+00 0.  1.
         11    1    3    3    0    0 -0.86008466595E+01 -0.16172333635E+02 -0.25991301254E+02  0.31797274720E+02  0.51100000000E-03 0. -1.
        -11    1    3    3    0    0 -0.71702900758E+01  0.32620874280E+01 -0.93707808053E+01  0.12241969095E+02  0.51100000000E-03 0.  1.
        -12    1    3    3    0    0  0.60137662174E+01  0.94110566434E+00 -0.22503875604E+01  0.64896308185E+01  0.00000000000E+00 0.  1.
</event>
<event>
 7    1  0.2817603E-011  0.5052885E+02  0.7816164E-02  0.1300439E+00
        -11   -1    0    0    0    0  0.00000000000E+00  0.00000000000E+00  0.45593999997E+02  0.45594000000E+02  0.51100000000E-03 0.  1.
         11   -1    0    0    0    0 -0.00000000000E+00 -0.00000000000E+00 -0.45593999997E+02  0.45594000000E+02  0.51100000000E-03 0. -1.
    9900012    2    1    2    0    0 -0.10856488725E+02  0.38708245794E+02 -0.60806745205E+01  0.50528852905E+02  0.29999978890E+02 0.  0.
        -12    1    1    2    0    0  0.10856488725E+02 -0.38708245794E+02  0.60806745205E+01  0.40659147095E+02  0.00000000000E+00 0.  1.
         11    1    3    3    0    0  0.86721000203E+00  0.12638015027E+02 -0.49717803226E+01  0.13608456078E+02  0.51100000000E-03 0. -1.
        -11    1    3    3    0    0  0.62511183885E+01  0.13759518892E+02 -0.17403768174E+00  0.15113938290E+02  0.51100000000E-03 0.  1.
         12    1    3    3    0    0 -0.17974817115E+02  0.12310711875E+02 -0.93485651624E+00  0.21806458536E+02  0.00000000000E+00 0. -1.
</event>
<event>
 7    1  0.2817603E-011  0.5052887E+02  0.7816164E-02  0.1300439E+00
        -11   -1    0    0    0    0  0.00000000000E+00  0.00000000000E+00  0.45593999997E+02  0.45594000000E+02  0.51100000000E-03 0. -1.
         11   -1    0    0    0    0 -0.00000000000E+00 -0.00000000000E+00 -0.45593999997E+02  0.45594000000E+02  0.51100000000E-03 0.  1.
    9900012    2    1    2    0    0  0.33076505031E+02 -0.16406044624E+02  0.17027966554E+02  0.50528866583E+02  0.30000020467E+02 0.  0.
        -12    1    1    2    0    0 -0.33076505031E+02  0.16406044624E+02 -0.17027966554E+02  0.40659133417E+02  0.00000000000E+00 0.  1.
         11    1    3    3    0    0  0.45900515366E+01 -0.17616970763E+01 -0.44750867202E+01  0.66481990879E+01  0.51100000000E-03 0. -1.
        -11    1    3    3    0    0 -0.85218668187E+00  0.35297793829E+01  0.11237005001E+01  0.38010877006E+01  0.51100000000E-03 0.  1.
         12    1    3    3    0    0  0.29338640176E+02 -0.18174126930E+02  0.20379352774E+02  0.40079579795E+02  0.00000000000E+00 0. -1.
</event>
<event>
 7    1  0.2817603E-011  0.5052883E+02  0.7816164E-02  0.1300439E+00
        -11   -1    0    0    0    0  0.00000000000E+00  0.00000000000E+00  0.45593999997E+02  0.45594000000E+02  0.51100000000E-03 0.  1.
         11   -1    0    0    0    0 -0.00000000000E+00 -0.00000000000E+00 -0.45593999997E+02  0.45594000000E+02  0.51100000000E-03 0. -1.
    9900012    2    1    2    0    0 -0.26335362314E+02  0.25822604162E+02 -0.17111690487E+02  0.50528829506E+02  0.29999907766E+02 0.  0.
        -12    1    1    2    0    0  0.26335362314E+02 -0.25822604162E+02  0.17111690487E+02  0.40659170494E+02  0.00000000000E+00 0.  1.
         11    1    3    3    0    0 -0.16154786962E+02  0.81347219930E+01 -0.19558136418E+01  0.18192747208E+02  0.51100000000E-03 0. -1.
        -11    1    3    3    0    0 -0.11525073380E+02  0.10519242725E+01 -0.39309675713E+01  0.12222371594E+02  0.51100000000E-03 0.  1.
        -12    1    3    3    0    0  0.13444980275E+01  0.16635957897E+02 -0.11224909274E+02  0.20113710704E+02  0.00000000000E+00 0.  1.
</event>
<event>
 7    1  0.2817603E-011  0.5052886E+02  0.7816164E-02  0.1300439E+00
        -11   -1    0    0    0    0  0.00000000000E+00  0.00000000000E+00  0.45593999997E+02  0.45594000000E+02  0.51100000000E-03 0.  1.
         11   -1    0    0    0    0 -0.00000000000E+00 -0.00000000000E+00 -0.45593999997E+02  0.45594000000E+02  0.51100000000E-03 0. -1.
    9900012    2    1    2    0    0  0.26249749467E+02  0.46306018156E+01 -0.30702989559E+02  0.50528863412E+02  0.30000010826E+02 0.  0.
        -12    1    1    2    0    0 -0.26249749467E+02 -0.46306018156E+01  0.30702989559E+02  0.40659136588E+02  0.00000000000E+00 0.  1.
         11    1    3    3    0    0  0.10920047808E+02  0.14766273016E+02 -0.19474338419E+02  0.26768267035E+02  0.51100000000E-03 0. -1.
        -11    1    3    3    0    0  0.12236748744E+02 -0.29120084286E+01 -0.93725841378E+01  0.15686400052E+02  0.51100000000E-03 0.  1.
        -12    1    3    3    0    0  0.30929529142E+01 -0.72236627717E+01 -0.18560670022E+01  0.80741963244E+01  0.00000000000E+00 0.  1.
</event>
<event>
 7    1  0.2817603E-011  0.5052886E+02  0.7816164E-02  0.1300439E+00
        -11   -1    0    0    0    0  0.00000000000E+00  0.00000000000E+00  0.45593999997E+02  0.45594000000E+02  0.51100000000E-03 0.  1.
         11   -1    0    0    0    0 -0.00000000000E+00 -0.00000000000E+00 -0.45593999997E+02  0.45594000000E+02  0.51100000000E-03 0. -1.
    9900012    2    1    2    0    0  0.14473391214E+01 -0.20264840597E+02 -0.35219412851E+02  0.50528860848E+02  0.30000003035E+02 0.  0.
        -12    1    1    2    0    0 -0.14473391214E+01  0.20264840597E+02  0.35219412851E+02  0.40659139152E+02  0.00000000000E+00 0.  1.
         11    1    3    3    0    0  0.71179182357E+01  0.49872868563E+01 -0.11383102255E+02  0.14321759927E+02  0.51100000000E-03 0.  1.
        -11    1    3    3    0    0  0.53366732565E+00 -0.15801089473E+02 -0.15675402279E+02  0.22263815176E+02  0.51100000000E-03 0. -1.
        -12    1    3    3    0    0 -0.62042464400E+01 -0.94510379805E+01 -0.81609083173E+01  0.13943285745E+02  0.00000000000E+00 0.  1.
</event>
<event>
 7    1  0.2817603E-011  0.5052887E+02  0.7816164E-02  0.1300439E+00
        -11   -1    0    0    0    0  0.00000000000E+00  0.00000000000E+00  0.45593999997E+02  0.45594000000E+02  0.51100000000E-03 0.  1.
         11   -1    0    0    0    0 -0.00000000000E+00 -0.00000000000E+00 -0.45593999997E+02  0.45594000000E+02  0.51100000000E-03 0. -1.
    9900012    2    1    2    0    0 -0.25513661164E+02  0.10208485356E+02 -0.29966723561E+02  0.50528873100E+02  0.30000040275E+02 0.  0.
        -12    1    1    2    0    0  0.25513661164E+02 -0.10208485356E+02  0.29966723561E+02  0.40659126900E+02  0.00000000000E+00 0.  1.
         11    1    3    3    0    0 -0.35061104936E+01  0.52099615102E+01 -0.16805449526E+02  0.17940447145E+02  0.51100000000E-03 0. -1.
        -11    1    3    3    0    0 -0.23410690403E+01  0.67286437238E+01 -0.10469171017E+02  0.12663285224E+02  0.51100000000E-03 0.  1.
        -12    1    3    3    0    0 -0.19666481630E+02 -0.17301198778E+01 -0.26921030182E+01  0.19925140732E+02  0.00000000000E+00 0.  1.
</event>
<event>
 7    1  0.2817603E-011  0.5052887E+02  0.7816164E-02  0.1300439E+00
        -11   -1    0    0    0    0  0.00000000000E+00  0.00000000000E+00  0.45593999997E+02  0.45594000000E+02  0.51100000000E-03 0.  1.
         11   -1    0    0    0    0 -0.00000000000E+00 -0.00000000000E+00 -0.45593999997E+02  0.45594000000E+02  0.51100000000E-03 0. -1.
    9900012    2    1    2    0    0  0.22013839349E+02 -0.17104196203E+01 -0.34141327719E+02  0.50528869210E+02  0.30000028452E+02 0.  0.
        -12    1    1    2    0    0 -0.22013839349E+02  0.17104196203E+01  0.34141327719E+02  0.40659130790E+02  0.00000000000E+00 0.  1.
         11    1    3    3    0    0  0.89616370708E+01  0.27543546508E+01 -0.72615802217E+01  0.11858665865E+02  0.51100000000E-03 0. -1.
        -11    1    3    3    0    0  0.26375360836E+01  0.97925979523E+01 -0.95455835645E+01  0.13927301860E+02  0.51100000000E-03 0.  1.
        -12    1    3    3    0    0  0.10414666195E+02 -0.14257372223E+02 -0.17334163932E+02  0.24742901485E+02  0.00000000000E+00 0.  1.
</event>
<event>
 7    1  0.2817603E-011  0.5052884E+02  0.7816164E-02  0.1300439E+00
        -11   -1    0    0    0    0  0.00000000000E+00  0.00000000000E+00  0.45593999997E+02  0.45594000000E+02  0.51100000000E-03 0.  1.
         11   -1    0    0    0    0 -0.00000000000E+00 -0.00000000000E+00 -0.45593999997E+02  0.45594000000E+02  0.51100000000E-03 0. -1.
    9900012    2    1    2    0    0 -0.50447643721E+01 -0.20186089072E+02 -0.34931920620E+02  0.50528844601E+02  0.29999953648E+02 0.  0.
        -12    1    1    2    0    0  0.50447643721E+01  0.20186089072E+02  0.34931920620E+02  0.40659155399E+02  0.00000000000E+00 0.  1.
         11    1    3    3    0    0 -0.53342806366E+01  0.44744246518E+00 -0.40788735407E+01  0.67299304819E+01  0.51100000000E-03 0.  1.
        -11    1    3    3    0    0 -0.82955583369E+00 -0.66633708079E+00  0.37141527257E+01  0.38635603680E+01  0.51100000000E-03 0. -1.
         12    1    3    3    0    0  0.11190720982E+01 -0.19967194457E+02 -0.34567199805E+02  0.39935353751E+02  0.00000000000E+00 0. -1.
</event>
<event>
 7    1  0.2817603E-011  0.5052886E+02  0.7816164E-02  0.1300439E+00
        -11   -1    0    0    0    0  0.00000000000E+00  0.00000000000E+00  0.45593999997E+02  0.45594000000E+02  0.51100000000E-03 0.  1.
         11   -1    0    0    0    0 -0.00000000000E+00 -0.00000000000E+00 -0.45593999997E+02  0.45594000000E+02  0.51100000000E-03 0. -1.
    9900012    2    1    2    0    0 -0.38289996714E+02  0.13453723004E+02  0.24574433349E+01  0.50528861559E+02  0.30000005195E+02 0.  0.
        -12    1    1    2    0    0  0.38289996714E+02 -0.13453723004E+02 -0.24574433349E+01  0.40659138441E+02  0.00000000000E+00 0.  1.
         11    1    3    3    0    0 -0.30131887156E+01 -0.22422924196E+01  0.44241570531E+01  0.58034771838E+01  0.51100000000E-03 0.  1.
        -11    1    3    3    0    0 -0.38098365182E+02  0.12765703869E+02  0.60687656520E-01  0.40180247735E+02  0.51100000000E-03 0. -1.
         12    1    3    3    0    0  0.28215571833E+01  0.29303115540E+01 -0.20274013747E+01  0.45451366401E+01  0.00000000000E+00 0. -1.
</event>
<event>
 7    1  0.2817603E-011  0.5052887E+02  0.7816164E-02  0.1300439E+00
        -11   -1    0    0    0    0  0.00000000000E+00  0.00000000000E+00  0.45593999997E+02  0.45594000000E+02  0.51100000000E-03 0.  1.
         11   -1    0    0    0    0 -0.00000000000E+00 -0.00000000000E+00 -0.45593999997E+02  0.45594000000E+02  0.51100000000E-03 0. -1.
    9900012    2    1    2    0    0  0.77371295539E+00  0.40593927636E+02 -0.21678667259E+01  0.50528865248E+02  0.30000016407E+02 0.  0.
        -12    1    1    2    0    0 -0.77371295539E+00 -0.40593927636E+02  0.21678667259E+01  0.40659134752E+02  0.00000000000E+00 0.  1.
         11    1    3    3    0    0 -0.21697797157E+00  0.57407874097E+01 -0.43125835258E+01  0.71834599221E+01  0.51100000000E-03 0. -1.
        -11    1    3    3    0    0 -0.20670131736E+01 -0.16319890909E+01 -0.53591686878E+01  0.59713165331E+01  0.51100000000E-03 0.  1.
        -12    1    3    3    0    0  0.30577041005E+01  0.36485129317E+02  0.75038854877E+01  0.37374088793E+02  0.00000000000E+00 0.  1.
</event>
<event>
 7    1  0.2817603E-011  0.5052884E+02  0.7816164E-02  0.1300439E+00
        -11   -1    0    0    0    0  0.00000000000E+00  0.00000000000E+00  0.45593999997E+02  0.45594000000E+02  0.51100000000E-03 0.  1.
         11   -1    0    0    0    0 -0.00000000000E+00 -0.00000000000E+00 -0.45593999997E+02  0.45594000000E+02  0.51100000000E-03 0. -1.
    9900012    2    1    2    0    0  0.31238926218E+02  0.22218790663E+02 -0.13550721295E+02  0.50528840916E+02  0.29999942449E+02 0.  0.
        -12    1    1    2    0    0 -0.31238926218E+02 -0.22218790663E+02  0.13550721295E+02  0.40659159084E+02  0.00000000000E+00 0.  1.
         11    1    3    3    0    0  0.13540505780E+02  0.17093331478E+01 -0.53348490970E+00  0.13658393866E+02  0.51100000000E-03 0. -1.
        -11    1    3    3    0    0 -0.10872175775E+01  0.12995983160E+02 -0.44291298637E+00  0.13048900050E+02  0.51100000000E-03 0.  1.
         12    1    3    3    0    0  0.18785638016E+02  0.75134743552E+01 -0.12574323399E+02  0.23821547000E+02  0.00000000000E+00 0. -1.
</event>
<event>
 7    1  0.2817603E-011  0.5052886E+02  0.7816164E-02  0.1300439E+00
        -11   -1    0    0    0    0  0.00000000000E+00  0.00000000000E+00  0.45593999997E+02  0.45594000000E+02  0.51100000000E-03 0. -1.
         11   -1    0    0    0    0 -0.00000000000E+00 -0.00000000000E+00 -0.45593999997E+02  0.45594000000E+02  0.51100000000E-03 0.  1.
    9900012    2    1    2    0    0  0.82395215678E+01 -0.17111349253E+02  0.35951049622E+02  0.50528856405E+02  0.29999989530E+02 0.  0.
        -12    1    1    2    0    0 -0.82395215678E+01  0.17111349253E+02 -0.35951049622E+02  0.40659143595E+02  0.00000000000E+00 0.  1.
         11    1    3    3    0    0 -0.12831289737E+01  0.33042236180E+01  0.47741599917E+01  0.59461683098E+01  0.51100000000E-03 0. -1.
        -11    1    3    3    0    0  0.12872074694E+01 -0.16931480410E+01  0.22105631152E+02  0.22207714476E+02  0.51100000000E-03 0.  1.
         12    1    3    3    0    0  0.82354430721E+01 -0.18722424830E+02  0.90712584785E+01  0.22374973620E+02  0.00000000000E+00 0. -1.
</event>
<event>
 7    1  0.2817603E-011  0.5052886E+02  0.7816164E-02  0.1300439E+00
        -11   -1    0    0    0    0  0.00000000000E+00  0.00000000000E+00  0.45593999997E+02  0.45594000000E+02  0.51100000000E-03 0.  1.
         11   -1    0    0    0    0 -0.00000000000E+00 -0.00000000000E+00 -0.45593999997E+02  0.45594000000E+02  0.51100000000E-03 0. -1.
    9900012    2    1    2    0    0 -0.52582502973E+01  0.61248238561E+01 -0.39849756877E+02  0.50528858511E+02  0.29999995931E+02 0.  0.
        -12    1    1    2    0    0  0.52582502973E+01 -0.61248238561E+01  0.39849756877E+02  0.40659141489E+02  0.00000000000E+00 0.  1.
         11    1    3    3    0    0 -0.14142685311E+02  0.40233821251E+01 -0.11383675652E+02  0.18595462434E+02  0.51100000000E-03 0. -1.
        -11    1    3    3    0    0 -0.10200638051E+01 -0.12135664476E+01  0.27810774378E-01  0.15855747821E+01  0.51100000000E-03 0.  1.
        -12    1    3    3    0    0  0.99044988189E+01  0.33150081785E+01 -0.28493891999E+02  0.30347821295E+02  0.00000000000E+00 0.  1.
</event>
<event>
 7    1  0.2817603E-011  0.5052886E+02  0.7816164E-02  0.1300439E+00
        -11   -1    0    0    0    0  0.00000000000E+00  0.00000000000E+00  0.45593999997E+02  0.45594000000E+02  0.51100000000E-03 0.  1.
         11   -1    0    0    0    0 -0.00000000000E+00 -0.00000000000E+00 -0.45593999997E+02  0.45594000000E+02  0.51100000000E-03 0. -1.
    9900012    2    1    2    0    0  0.31729486053E+01  0.11422055030E+02 -0.38892602898E+02  0.50528861985E+02  0.30000006489E+02 0.  0.
        -12    1    1    2    0    0 -0.31729486053E+01 -0.11422055030E+02  0.38892602898E+02  0.40659138015E+02  0.00000000000E+00 0.  1.
         11    1    3    3    0    0 -0.78452966544E+01  0.34921860287E+01 -0.34238787637E+01  0.92448357965E+01  0.51100000000E-03 0. -1.
        -11    1    3    3    0    0  0.74479345354E+01  0.74132872739E+01 -0.70892804952E+01  0.12676216125E+02  0.51100000000E-03 0.  1.
         12    1    3    3    0    0  0.35703107243E+01  0.51658172746E+00 -0.28379443639E+02  0.28607810063E+02  0.00000000000E+00 0. -1.
</event>
<event>
 7    1  0.2817603E-011  0.5052886E+02  0.7816164E-02  0.1300439E+00
        -11   -1    0    0    0    0  0.00000000000E+00  0.00000000000E+00  0.45593999997E+02  0.45594000000E+02  0.51100000000E-03 0. -1.
         11   -1    0    0    0    0 -0.00000000000E+00 -0.00000000000E+00 -0.45593999997E+02  0.45594000000E+02  0.51100000000E-03 0.  1.
    9900012    2    1    2    0    0  0.29297626042E+02 -0.26499602968E+02  0.96221405967E+01  0.50528862788E+02  0.30000008931E+02 0.  0.
        -12    1    1    2    0    0 -0.29297626042E+02  0.26499602968E+02 -0.96221405967E+01  0.40659137212E+02  0.00000000000E+00 0.  1.
         11    1    3    3    0    0  0.97779743127E+01 -0.52058298246E+01  0.14245534449E+02  0.18045628219E+02  0.51100000000E-03 0. -1.
        -11    1    3    3    0    0  0.29354572618E+01 -0.76636860373E+01 -0.71292928872E+01  0.10870869806E+02  0.51100000000E-03 0.  1.
        -12    1    3    3    0    0  0.16584194468E+02 -0.13630087106E+02  0.25058990344E+01  0.21612364762E+02  0.00000000000E+00 0.  1.
</event>
<event>
 7    1  0.2817603E-011  0.5052885E+02  0.7816164E-02  0.1300439E+00
        -11   -1    0    0    0    0  0.00000000000E+00  0.00000000000E+00  0.45593999997E+02  0.45594000000E+02  0.51100000000E-03 0.  1.
         11   -1    0    0    0    0 -0.00000000000E+00 -0.00000000000E+00 -0.45593999997E+02  0.45594000000E+02  0.51100000000E-03 0. -1.
    9900012    2    1    2    0    0  0.31406234012E+02  0.18934831135E+02  0.17558098984E+02  0.50528853367E+02  0.29999980296E+02 0.  0.
        -12    1    1    2    0    0 -0.31406234012E+02 -0.18934831135E+02 -0.17558098984E+02  0.40659146633E+02  0.00000000000E+00 0.  1.
         11    1    3    3    0    0 -0.68390061701E+00  0.19132183344E+01  0.25839381702E+01  0.32870748664E+01  0.51100000000E-03 0.  1.
        -11    1    3    3    0    0  0.36974907373E+01 -0.46789454826E+01  0.93151441373E+01  0.11060555101E+02  0.51100000000E-03 0. -1.
         12    1    3    3    0    0  0.28392643892E+02  0.21700558283E+02  0.56590166768E+01  0.36181223400E+02  0.00000000000E+00 0. -1.
</event>
<event>
 7    1  0.2817603E-011  0.5052886E+02  0.7816164E-02  0.1300439E+00
        -11   -1    0    0    0    0  0.00000000000E+00  0.00000000000E+00  0.45593999997E+02  0.45594000000E+02  0.51100000000E-03 0.  1.
         11   -1    0    0    0    0 -0.00000000000E+00 -0.00000000000E+00 -0.45593999997E+02  0.45594000000E+02  0.51100000000E-03 0. -1.
    9900012    2    1    2    0    0  0.35763088132E+02  0.42902538424E+01 -0.18861619492E+02  0.50528862765E+02  0.30000008862E+02 0.  0.
        -12    1    1    2    0    0 -0.35763088132E+02 -0.42902538424E+01  0.18861619492E+02  0.40659137235E+02  0.00000000000E+00 0.  1.
         11    1    3    3    0    0  0.12824317503E+02  0.13727897143E+02 -0.96885977034E+01  0.21137341486E+02  0.51100000000E-03 0. -1.
        -11    1    3    3    0    0  0.76135302966E+00  0.21951510540E+01 -0.26268105626E+01  0.35069189581E+01  0.51100000000E-03 0.  1.
        -12    1    3    3    0    0  0.22177417600E+02 -0.11632794355E+02 -0.65462112260E+01  0.25884602321E+02  0.00000000000E+00 0.  1.
</event>
<event>
 7    1  0.2817603E-011  0.5052887E+02  0.7816164E-02  0.1300439E+00
        -11   -1    0    0    0    0  0.00000000000E+00  0.00000000000E+00  0.45593999997E+02  0.45594000000E+02  0.51100000000E-03 0. -1.
         11   -1    0    0    0    0 -0.00000000000E+00 -0.00000000000E+00 -0.45593999997E+02  0.45594000000E+02  0.51100000000E-03 0.  1.
    9900012    2    1    2    0    0  0.61389073511E+01 -0.39234277001E+02 -0.87264270661E+01  0.50528865669E+02  0.30000017687E+02 0.  0.
        -12    1    1    2    0    0 -0.61389073511E+01  0.39234277001E+02  0.87264270661E+01  0.40659134331E+02  0.00000000000E+00 0.  1.
         11    1    3    3    0    0  0.93462147605E+01 -0.33593193400E+02 -0.90858823383E+01  0.36033423808E+02  0.51100000000E-03 0. -1.
        -11    1    3    3    0    0 -0.21367372049E+01 -0.87058651937E+01  0.38255926840E+01  0.97464298232E+01  0.51100000000E-03 0.  1.
         12    1    3    3    0    0 -0.10705702046E+01  0.30647815933E+01 -0.34661374118E+01  0.47490120378E+01  0.00000000000E+00 0. -1.
</event>
<event>
 7    1  0.2817603E-011  0.5052886E+02  0.7816164E-02  0.1300439E+00
        -11   -1    0    0    0    0  0.00000000000E+00  0.00000000000E+00  0.45593999997E+02  0.45594000000E+02  0.51100000000E-03 0.  1.
         11   -1    0    0    0    0 -0.00000000000E+00 -0.00000000000E+00 -0.45593999997E+02  0.45594000000E+02  0.51100000000E-03 0. -1.
    9900012    2    1    2    0    0 -0.20535065830E+01 -0.17816505389E+02 -0.36490016605E+02  0.50528855083E+02  0.29999985509E+02 0.  0.
        -12    1    1    2    0    0  0.20535065830E+01  0.17816505389E+02  0.36490016605E+02  0.40659144917E+02  0.00000000000E+00 0.  1.
         11    1    3    3    0    0 -0.64027710440E+01 -0.42437259113E+01 -0.44848310173E+01  0.88948522285E+01  0.51100000000E-03 0.  1.
        -11    1    3    3    0    0 -0.73681379869E-01 -0.10166196951E+02 -0.10967776276E+01  0.10225454065E+02  0.51100000000E-03 0. -1.
        -12    1    3    3    0    0  0.44229458408E+01 -0.34065825259E+01 -0.30908407960E+02  0.31408548790E+02  0.00000000000E+00 0.  1.
</event>
<event>
 7    1  0.2817603E-011  0.5052886E+02  0.7816164E-02  0.1300439E+00
        -11   -1    0    0    0    0  0.00000000000E+00  0.00000000000E+00  0.45593999997E+02  0.45594000000E+02  0.51100000000E-03 0. -1.
         11   -1    0    0    0    0 -0.00000000000E+00 -0.00000000000E+00 -0.45593999997E+02  0.45594000000E+02  0.51100000000E-03 0.  1.
    9900012    2    1    2    0    0 -0.66179767045E+01 -0.35992141376E+02  0.17718185589E+02  0.50528856416E+02  0.29999989561E+02 0.  0.
        -12    1    1    2    0    0  0.66179767045E+01  0.35992141376E+02 -0.17718185589E+02  0.40659143584E+02  0.00000000000E+00 0.  1.
         11    1    3    3    0    0 -0.11445115698E-01 -0.15520639448E+01 -0.26351993063E+01  0.30583180222E+01  0.51100000000E-03 0. -1.
        -11    1    3    3    0    0 -0.32806321944E+01 -0.15330146806E+01 -0.47322665801E+01  0.59587774628E+01  0.51100000000E-03 0.  1.
         12    1    3    3    0    0 -0.33258993944E+01 -0.32907062750E+02  0.25085651475E+02  0.41511760931E+02  0.00000000000E+00 0. -1.
</event>
<event>
 7    1  0.2817603E-011  0.5052886E+02  0.7816164E-02  0.1300439E+00
        -11   -1    0    0    0    0  0.00000000000E+00  0.00000000000E+00  0.45593999997E+02  0.45594000000E+02  0.51100000000E-03 0.  1.
         11   -1    0    0    0    0 -0.00000000000E+00 -0.00000000000E+00 -0.45593999997E+02  0.45594000000E+02  0.51100000000E-03 0. -1.
    9900012    2    1    2    0    0 -0.14332344135E+02  0.19567163838E+02 -0.32632434488E+02  0.50528858719E+02  0.29999996562E+02 0.  0.
        -12    1    1    2    0    0  0.14332344135E+02 -0.19567163838E+02  0.32632434488E+02  0.40659141281E+02  0.00000000000E+00 0.  1.
         11    1    3    3    0    0 -0.62803797108E+01 -0.18810827915E+01 -0.36159422757E+01  0.74871009465E+01  0.51100000000E-03 0. -1.
        -11    1    3    3    0    0 -0.46716977370E+01 -0.16364838333E+01  0.97395757891E+00  0.50449412989E+01  0.51100000000E-03 0.  1.
         12    1    3    3    0    0 -0.33802666873E+01  0.23084730463E+02 -0.29990449792E+02  0.37996816474E+02  0.00000000000E+00 0. -1.
</event>
<event>
 7    1  0.2817603E-011  0.5052886E+02  0.7816164E-02  0.1300439E+00
        -11   -1    0    0    0    0  0.00000000000E+00  0.00000000000E+00  0.45593999997E+02  0.45594000000E+02  0.51100000000E-03 0.  1.
         11   -1    0    0    0    0 -0.00000000000E+00 -0.00000000000E+00 -0.45593999997E+02  0.45594000000E+02  0.51100000000E-03 0. -1.
    9900012    2    1    2    0    0 -0.19981704613E+02 -0.34865983910E+02 -0.61855045458E+01  0.50528858104E+02  0.29999994692E+02 0.  0.
        -12    1    1    2    0    0  0.19981704613E+02  0.34865983910E+02  0.61855045458E+01  0.40659141896E+02  0.00000000000E+00 0.  1.
         11    1    3    3    0    0 -0.36960903568E+00 -0.40354671575E+01 -0.69882926213E+01  0.80782324825E+01  0.51100000000E-03 0. -1.
        -11    1    3    3    0    0  0.41922660579E+01 -0.12243985334E+01  0.91093785304E+00  0.44613960261E+01  0.51100000000E-03 0.  1.
        -12    1    3    3    0    0 -0.23804361636E+02 -0.29606118219E+02 -0.10814977751E+00  0.37989229595E+02  0.00000000000E+00 0.  1.
</event>
<event>
 7    1  0.2817603E-011  0.5052886E+02  0.7816164E-02  0.1300439E+00
        -11   -1    0    0    0    0  0.00000000000E+00  0.00000000000E+00  0.45593999997E+02  0.45594000000E+02  0.51100000000E-03 0.  1.
         11   -1    0    0    0    0 -0.00000000000E+00 -0.00000000000E+00 -0.45593999997E+02  0.45594000000E+02  0.51100000000E-03 0. -1.
    9900012    2    1    2    0    0  0.26431177001E+02 -0.14018629758E+02 -0.27532464311E+02  0.50528859711E+02  0.29999999578E+02 0.  0.
        -12    1    1    2    0    0 -0.26431177001E+02  0.14018629758E+02  0.27532464311E+02  0.40659140289E+02  0.00000000000E+00 0.  1.
         11    1    3    3    0    0  0.22518004235E+01 -0.82211789583E+01 -0.10650802202E+01  0.85902726819E+01  0.51100000000E-03 0. -1.
        -11    1    3    3    0    0  0.15148386873E+02 -0.84628932972E+01 -0.43334197827E+01  0.17884985745E+02  0.51100000000E-03 0.  1.
        -12    1    3    3    0    0  0.90309897047E+01  0.26654424971E+01 -0.22133964308E+02  0.24053601285E+02  0.00000000000E+00 0.  1.
</event>
<event>
 7    1  0.2817603E-011  0.5052894E+02  0.7816164E-02  0.1300439E+00
        -11   -1    0    0    0    0  0.00000000000E+00  0.00000000000E+00  0.45593999997E+02  0.45594000000E+02  0.51100000000E-03 0.  1.
         11   -1    0    0    0    0 -0.00000000000E+00 -0.00000000000E+00 -0.45593999997E+02  0.45594000000E+02  0.51100000000E-03 0. -1.
    9900012    2    1    2    0    0 -0.31424402245E+02  0.15313858907E+02 -0.20764199913E+02  0.50528937922E+02  0.30000237306E+02 0.  0.
        -12    1    1    2    0    0  0.31424402245E+02 -0.15313858907E+02  0.20764199913E+02  0.40659062078E+02  0.00000000000E+00 0.  1.
         11    1    3    3    0    0 -0.44153280247E+01  0.21957470884E+01 -0.14460875835E+01  0.51388322022E+01  0.51100000000E-03 0.  1.
        -11    1    3    3    0    0 -0.85126100885E+01 -0.87291879788E+01 -0.35016798556E+01  0.12685622388E+02  0.51100000000E-03 0. -1.
         12    1    3    3    0    0 -0.18496464132E+02  0.21847299797E+02 -0.15816432474E+02  0.32704483332E+02  0.00000000000E+00 0. -1.
</event>
<event>
 7    1  0.2817603E-011  0.5052886E+02  0.7816164E-02  0.1300439E+00
        -11   -1    0    0    0    0  0.00000000000E+00  0.00000000000E+00  0.45593999997E+02  0.45594000000E+02  0.51100000000E-03 0.  1.
         11   -1    0    0    0    0 -0.00000000000E+00 -0.00000000000E+00 -0.45593999997E+02  0.45594000000E+02  0.51100000000E-03 0. -1.
    9900012    2    1    2    0    0  0.23302747763E+02 -0.27436855918E+02 -0.18904138323E+02  0.50528861277E+02  0.30000004338E+02 0.  0.
        -12    1    1    2    0    0 -0.23302747763E+02  0.27436855918E+02  0.18904138323E+02  0.40659138723E+02  0.00000000000E+00 0.  1.
         11    1    3    3    0    0  0.10713896226E+02 -0.10321448543E+02 -0.56928487502E+01  0.15928854307E+02  0.51100000000E-03 0. -1.
        -11    1    3    3    0    0  0.14958274698E+02 -0.66654055749E+01  0.14502626292E+01  0.16440221269E+02  0.51100000000E-03 0.  1.
        -12    1    3    3    0    0 -0.23694231619E+01 -0.10450001800E+02 -0.14661552202E+02  0.18159785701E+02  0.00000000000E+00 0.  1.
</event>
<event>
 7    1  0.2817603E-011  0.5052887E+02  0.7816164E-02  0.1300439E+00
        -11   -1    0    0    0    0  0.00000000000E+00  0.00000000000E+00  0.45593999997E+02  0.45594000000E+02  0.51100000000E-03 0. -1.
         11   -1    0    0    0    0 -0.00000000000E+00 -0.00000000000E+00 -0.45593999997E+02  0.45594000000E+02  0.51100000000E-03 0.  1.
    9900012    2    1    2    0    0 -0.23397500560E+02  0.33167224950E+02 -0.23785159988E+01  0.50528865950E+02  0.30000018542E+02 0.  0.
        -12    1    1    2    0    0  0.23397500560E+02 -0.33167224950E+02  0.23785159988E+01  0.40659134050E+02  0.00000000000E+00 0.  1.
         11    1    3    3    0    0  0.59246752196E+00  0.36208345581E+01  0.61827586491E+01  0.71894342917E+01  0.51100000000E-03 0. -1.
        -11    1    3    3    0    0 -0.45023140569E+01  0.32148002779E+01 -0.90157093257E+01  0.10577749647E+02  0.51100000000E-03 0.  1.
        -12    1    3    3    0    0 -0.19487654025E+02  0.26331590114E+02  0.45443467783E+00  0.32761682011E+02  0.00000000000E+00 0.  1.
</event>
<event>
 7    1  0.2817603E-011  0.5052887E+02  0.7816164E-02  0.1300439E+00
        -11   -1    0    0    0    0  0.00000000000E+00  0.00000000000E+00  0.45593999997E+02  0.45594000000E+02  0.51100000000E-03 0. -1.
         11   -1    0    0    0    0 -0.00000000000E+00 -0.00000000000E+00 -0.45593999997E+02  0.45594000000E+02  0.51100000000E-03 0.  1.
    9900012    2    1    2    0    0 -0.13462828145E+02  0.37265274192E+02 -0.91222897344E+01  0.50528873445E+02  0.30000041322E+02 0.  0.
        -12    1    1    2    0    0  0.13462828145E+02 -0.37265274192E+02  0.91222897344E+01  0.40659126555E+02  0.00000000000E+00 0.  1.
         11    1    3    3    0    0 -0.48675030161E+01 -0.26575402477E+01 -0.14723847864E+01  0.57378587470E+01  0.51100000000E-03 0. -1.
        -11    1    3    3    0    0 -0.76491779593E+00  0.58287010030E+01 -0.78518215645E+01  0.98086674304E+01  0.51100000000E-03 0.  1.
         12    1    3    3    0    0 -0.78304073329E+01  0.34094113436E+02  0.20191661657E+00  0.34982347267E+02  0.00000000000E+00 0. -1.
</event>
<event>
 7    1  0.2817603E-011  0.5052886E+02  0.7816164E-02  0.1300439E+00
        -11   -1    0    0    0    0  0.00000000000E+00  0.00000000000E+00  0.45593999997E+02  0.45594000000E+02  0.51100000000E-03 0.  1.
         11   -1    0    0    0    0 -0.00000000000E+00 -0.00000000000E+00 -0.45593999997E+02  0.45594000000E+02  0.51100000000E-03 0. -1.
    9900012    2    1    2    0    0  0.28272915231E+01  0.27703369099E+02 -0.29625922162E+02  0.50528862026E+02  0.30000006615E+02 0.  0.
        -12    1    1    2    0    0 -0.28272915231E+01 -0.27703369099E+02  0.29625922162E+02  0.40659137974E+02  0.00000000000E+00 0.  1.
         11    1    3    3    0    0 -0.43368640860E+01 -0.25605630750E+01 -0.29740410073E+01  0.58489138766E+01  0.51100000000E-03 0. -1.
        -11    1    3    3    0    0  0.12458377221E+01 -0.22970258481E+01 -0.31328791156E+01  0.40796288055E+01  0.51100000000E-03 0.  1.
         12    1    3    3    0    0  0.59183178870E+01  0.32560958022E+02 -0.23519002040E+02  0.40600319344E+02  0.00000000000E+00 0. -1.
</event>
<event>
 7    1  0.2817603E-011  0.5052886E+02  0.7816164E-02  0.1300439E+00
        -11   -1    0    0    0    0  0.00000000000E+00  0.00000000000E+00  0.45593999997E+02  0.45594000000E+02  0.51100000000E-03 0.  1.
         11   -1    0    0    0    0 -0.00000000000E+00 -0.00000000000E+00 -0.45593999997E+02  0.45594000000E+02  0.51100000000E-03 0. -1.
    9900012    2    1    2    0    0 -0.28578754327E+02 -0.18099622618E+02 -0.22557137939E+02  0.50528855766E+02  0.29999987587E+02 0.  0.
        -12    1    1    2    0    0  0.28578754327E+02  0.18099622618E+02  0.22557137939E+02  0.40659144234E+02  0.00000000000E+00 0.  1.
         11    1    3    3    0    0 -0.21062698428E+00 -0.21444147015E+01 -0.29662777520E+01  0.36662899642E+01  0.51100000000E-03 0. -1.
        -11    1    3    3    0    0 -0.63430119622E+01  0.98240957165E+00  0.62208215533E+01  0.89385429673E+01  0.51100000000E-03 0.  1.
         12    1    3    3    0    0 -0.22025115381E+02 -0.16937617488E+02 -0.25811681741E+02  0.37924022835E+02  0.00000000000E+00 0. -1.
</event>
<event>
 7    1  0.2817603E-011  0.5052885E+02  0.7816164E-02  0.1300439E+00
        -11   -1    0    0    0    0  0.00000000000E+00  0.00000000000E+00  0.45593999997E+02  0.45594000000E+02  0.51100000000E-03 0. -1.
         11   -1    0    0    0    0 -0.00000000000E+00 -0.00000000000E+00 -0.45593999997E+02  0.45594000000E+02  0.51100000000E-03 0.  1.
    9900012    2    1    2    0    0  0.79020570692E+01 -0.20580513756E+02  0.34163815728E+02  0.50528851491E+02  0.29999974593E+02 0.  0.
        -12    1    1    2    0    0 -0.79020570692E+01  0.20580513756E+02 -0.34163815728E+02  0.40659148509E+02  0.00000000000E+00 0.  1.
         11    1    3    3    0    0  0.15350461226E+01  0.34927205796E+01  0.89580183344E+01  0.97366090805E+01  0.51100000000E-03 0. -1.
        -11    1    3    3    0    0 -0.79445935722E-03  0.89263379622E+00 -0.26805436650E+01  0.28252628774E+01  0.51100000000E-03 0.  1.
        -12    1    3    3    0    0  0.63678054060E+01 -0.24965868132E+02  0.27886341058E+02  0.37966979533E+02  0.00000000000E+00 0.  1.
</event>
<event>
 7    1  0.2817603E-011  0.5052885E+02  0.7816164E-02  0.1300439E+00
        -11   -1    0    0    0    0  0.00000000000E+00  0.00000000000E+00  0.45593999997E+02  0.45594000000E+02  0.51100000000E-03 0. -1.
         11   -1    0    0    0    0 -0.00000000000E+00 -0.00000000000E+00 -0.45593999997E+02  0.45594000000E+02  0.51100000000E-03 0.  1.
    9900012    2    1    2    0    0  0.21853599989E+02 -0.35929468113E+01  0.34098053327E+02  0.50528851707E+02  0.29999975248E+02 0.  0.
        -12    1    1    2    0    0 -0.21853599989E+02  0.35929468113E+01 -0.34098053327E+02  0.40659148293E+02  0.00000000000E+00 0.  1.
         11    1    3    3    0    0 -0.25783430202E+01  0.16689401015E+01  0.56761625935E+01  0.64538388453E+01  0.51100000000E-03 0. -1.
        -11    1    3    3    0    0  0.13895470569E+01  0.10550494912E+01 -0.36712293749E+01  0.40647134999E+01  0.51100000000E-03 0.  1.
        -12    1    3    3    0    0  0.23042395952E+02 -0.63169364040E+01  0.32093120108E+02  0.40010299362E+02  0.00000000000E+00 0.  1.
</event>
<event>
 7    1  0.2817603E-011  0.5052886E+02  0.7816164E-02  0.1300439E+00
        -11   -1    0    0    0    0  0.00000000000E+00  0.00000000000E+00  0.45593999997E+02  0.45594000000E+02  0.51100000000E-03 0.  1.
         11   -1    0    0    0    0 -0.00000000000E+00 -0.00000000000E+00 -0.45593999997E+02  0.45594000000E+02  0.51100000000E-03 0. -1.
    9900012    2    1    2    0    0 -0.17862432110E+02 -0.13733874382E+02 -0.33844933885E+02  0.50528864051E+02  0.30000012770E+02 0.  0.
        -12    1    1    2    0    0  0.17862432110E+02  0.13733874382E+02  0.33844933885E+02  0.40659135949E+02  0.00000000000E+00 0.  1.
         11    1    3    3    0    0 -0.68604481430E+01 -0.12228354646E+02 -0.65320859069E+01  0.15468243359E+02  0.51100000000E-03 0. -1.
        -11    1    3    3    0    0 -0.26922064886E+01 -0.92283254092E+01 -0.73551520154E+01  0.12104058289E+02  0.51100000000E-03 0.  1.
        -12    1    3    3    0    0 -0.83097774787E+01  0.77228056730E+01 -0.19957695963E+02  0.22956562403E+02  0.00000000000E+00 0.  1.
</event>
<event>
 7    1  0.2817603E-011  0.5052884E+02  0.7816164E-02  0.1300439E+00
        -11   -1    0    0    0    0  0.00000000000E+00  0.00000000000E+00  0.45593999997E+02  0.45594000000E+02  0.51100000000E-03 0.  1.
         11   -1    0    0    0    0 -0.00000000000E+00 -0.00000000000E+00 -0.45593999997E+02  0.45594000000E+02  0.51100000000E-03 0. -1.
    9900012    2    1    2    0    0  0.89811812863E+01 -0.18556166392E+02 -0.35045323532E+02  0.50528835844E+02  0.29999927030E+02 0.  0.
        -12    1    1    2    0    0 -0.89811812863E+01  0.18556166392E+02  0.35045323532E+02  0.40659164156E+02  0.00000000000E+00 0.  1.
         11    1    3    3    0    0  0.78583511280E+01 -0.10620371436E+02 -0.22877091808E+02  0.26417935228E+02  0.51100000000E-03 0. -1.
        -11    1    3    3    0    0  0.11361402705E+01  0.39297508389E+01  0.28391702968E+01  0.49794221156E+01  0.51100000000E-03 0.  1.
         12    1    3    3    0    0 -0.13310112254E-01 -0.11865545795E+02 -0.15007402021E+02  0.19131478500E+02  0.00000000000E+00 0. -1.
</event>
<event>
 7    1  0.2817603E-011  0.5052888E+02  0.7816164E-02  0.1300439E+00
        -11   -1    0    0    0    0  0.00000000000E+00  0.00000000000E+00  0.45593999997E+02  0.45594000000E+02  0.51100000000E-03 0. -1.
         11   -1    0    0    0    0 -0.00000000000E+00 -0.00000000000E+00 -0.45593999997E+02  0.45594000000E+02  0.51100000000E-03 0.  1.
    9900012    2    1    2    0    0 -0.32500515407E+02 -0.13057634404E+02  0.20648937523E+02  0.50528881235E+02  0.30000065001E+02 0.  0.
        -12    1    1    2    0    0  0.32500515407E+02  0.13057634404E+02 -0.20648937523E+02  0.40659118765E+02  0.00000000000E+00 0.  1.
         11    1    3    3    0    0 -0.73251811421E+01  0.26388020281E+00  0.37528805416E+01  0.82348056533E+01  0.51100000000E-03 0. -1.
        -11    1    3    3    0    0 -0.22753229856E+02  0.22958295326E+01  0.11473966901E+02  0.25585781576E+02  0.51100000000E-03 0.  1.
         12    1    3    3    0    0 -0.24221044081E+01 -0.15617344140E+02  0.54220900801E+01  0.16708294005E+02  0.00000000000E+00 0. -1.
</event>
<event>
 7    1  0.2817603E-011  0.5052886E+02  0.7816164E-02  0.1300439E+00
        -11   -1    0    0    0    0  0.00000000000E+00  0.00000000000E+00  0.45593999997E+02  0.45594000000E+02  0.51100000000E-03 0.  1.
         11   -1    0    0    0    0 -0.00000000000E+00 -0.00000000000E+00 -0.45593999997E+02  0.45594000000E+02  0.51100000000E-03 0. -1.
    9900012    2    1    2    0    0  0.16473757012E+02  0.16885648194E+02 -0.33115796220E+02  0.50528859032E+02  0.29999997512E+02 0.  0.
        -12    1    1    2    0    0 -0.16473757012E+02 -0.16885648194E+02  0.33115796220E+02  0.40659140968E+02  0.00000000000E+00 0.  1.
         11    1    3    3    0    0  0.97215197173E+01  0.10651696805E+02 -0.15815883959E+02  0.21403475795E+02  0.51100000000E-03 0. -1.
        -11    1    3    3    0    0  0.69806297354E+01 -0.59224985535E+01 -0.13641162652E+02  0.16428222648E+02  0.51100000000E-03 0.  1.
         12    1    3    3    0    0 -0.22839244042E+00  0.12156449942E+02 -0.36587496084E+01  0.12697160588E+02  0.00000000000E+00 0. -1.
</event>
<event>
 7    1  0.2817603E-011  0.5052886E+02  0.7816164E-02  0.1300439E+00
        -11   -1    0    0    0    0  0.00000000000E+00  0.00000000000E+00  0.45593999997E+02  0.45594000000E+02  0.51100000000E-03 0.  1.
         11   -1    0    0    0    0 -0.00000000000E+00 -0.00000000000E+00 -0.45593999997E+02  0.45594000000E+02  0.51100000000E-03 0. -1.
    9900012    2    1    2    0    0  0.14941959244E+02  0.32585593460E+00 -0.37812656249E+02  0.50528864486E+02  0.30000014092E+02 0.  0.
        -12    1    1    2    0    0 -0.14941959244E+02 -0.32585593460E+00  0.37812656249E+02  0.40659135514E+02  0.00000000000E+00 0.  1.
         11    1    3    3    0    0 -0.37680904579E+01  0.34300645098E+00 -0.30512634289E+00  0.37959533019E+01  0.51100000000E-03 0. -1.
        -11    1    3    3    0    0 -0.22965953384E+01  0.55055523398E+00  0.12298257600E+01  0.26626927864E+01  0.51100000000E-03 0.  1.
         12    1    3    3    0    0  0.21006645040E+02 -0.56770575036E+00 -0.38737355666E+02  0.44070218398E+02  0.00000000000E+00 0. -1.
</event>
<event>
 7    1  0.2817603E-011  0.5052885E+02  0.7816164E-02  0.1300439E+00
        -11   -1    0    0    0    0  0.00000000000E+00  0.00000000000E+00  0.45593999997E+02  0.45594000000E+02  0.51100000000E-03 0.  1.
         11   -1    0    0    0    0 -0.00000000000E+00 -0.00000000000E+00 -0.45593999997E+02  0.45594000000E+02  0.51100000000E-03 0. -1.
    9900012    2    1    2    0    0 -0.15402651982E+02  0.34508286465E+01 -0.37470204703E+02  0.50528854080E+02  0.29999982463E+02 0.  0.
        -12    1    1    2    0    0  0.15402651982E+02 -0.34508286465E+01  0.37470204703E+02  0.40659145920E+02  0.00000000000E+00 0.  1.
         11    1    3    3    0    0 -0.11609344040E+01 -0.45515273950E+01 -0.14137596300E+02  0.14897509850E+02  0.51100000000E-03 0. -1.
        -11    1    3    3    0    0 -0.15540466534E+02 -0.29576442417E+01 -0.12441604731E+02  0.20125786645E+02  0.51100000000E-03 0.  1.
         12    1    3    3    0    0  0.12987489554E+01  0.10960000283E+02 -0.10891003672E+02  0.15505557585E+02  0.00000000000E+00 0. -1.
</event>
<event>
 7    1  0.2817603E-011  0.5052886E+02  0.7816164E-02  0.1300439E+00
        -11   -1    0    0    0    0  0.00000000000E+00  0.00000000000E+00  0.45593999997E+02  0.45594000000E+02  0.51100000000E-03 0. -1.
         11   -1    0    0    0    0 -0.00000000000E+00 -0.00000000000E+00 -0.45593999997E+02  0.45594000000E+02  0.51100000000E-03 0.  1.
    9900012    2    1    2    0    0  0.40012713471E+02 -0.63989965353E+01 -0.33468707304E+01  0.50528856629E+02  0.29999990211E+02 0.  0.
        -12    1    1    2    0    0 -0.40012713471E+02  0.63989965353E+01  0.33468707304E+01  0.40659143371E+02  0.00000000000E+00 0.  1.
         11    1    3    3    0    0  0.13712862472E+01 -0.21589133542E+01 -0.36590149162E+01  0.44642718623E+01  0.51100000000E-03 0. -1.
        -11    1    3    3    0    0  0.20508727756E+02  0.14736135979E+01 -0.11620821563E+02  0.23618275662E+02  0.51100000000E-03 0.  1.
         12    1    3    3    0    0  0.18132699468E+02 -0.57136967790E+01  0.11932965749E+02  0.22446309105E+02  0.00000000000E+00 0. -1.
</event>
<event>
 7    1  0.2817603E-011  0.5052886E+02  0.7816164E-02  0.1300439E+00
        -11   -1    0    0    0    0  0.00000000000E+00  0.00000000000E+00  0.45593999997E+02  0.45594000000E+02  0.51100000000E-03 0. -1.
         11   -1    0    0    0    0 -0.00000000000E+00 -0.00000000000E+00 -0.45593999997E+02  0.45594000000E+02  0.51100000000E-03 0.  1.
    9900012    2    1    2    0    0  0.36702433232E+02 -0.17492609054E+02  0.32497072557E+00  0.50528861019E+02  0.30000003554E+02 0.  0.
        -12    1    1    2    0    0 -0.36702433232E+02  0.17492609054E+02 -0.32497072557E+00  0.40659138981E+02  0.00000000000E+00 0.  1.
         11    1    3    3    0    0  0.26469155911E+02 -0.87150157054E+01 -0.37528480717E+01  0.28118527385E+02  0.51100000000E-03 0. -1.
        -11    1    3    3    0    0  0.13321830312E+02 -0.20249550380E+01 -0.84491810501E+00  0.13501314478E+02  0.51100000000E-03 0.  1.
        -12    1    3    3    0    0 -0.30885529903E+01 -0.67526383102E+01  0.49227369023E+01  0.89090191565E+01  0.00000000000E+00 0.  1.
</event>
<event>
 7    1  0.2817603E-011  0.5052886E+02  0.7816164E-02  0.1300439E+00
        -11   -1    0    0    0    0  0.00000000000E+00  0.00000000000E+00  0.45593999997E+02  0.45594000000E+02  0.51100000000E-03 0.  1.
         11   -1    0    0    0    0 -0.00000000000E+00 -0.00000000000E+00 -0.45593999997E+02  0.45594000000E+02  0.51100000000E-03 0. -1.
    9900012    2    1    2    0    0 -0.45197857221E+01 -0.39309897063E+02 -0.93524950822E+01  0.50528860384E+02  0.30000001623E+02 0.  0.
        -12    1    1    2    0    0  0.45197857221E+01  0.39309897063E+02  0.93524950822E+01  0.40659139616E+02  0.00000000000E+00 0.  1.
         11    1    3    3    0    0  0.51655959916E+01  0.69123750092E+00 -0.57516969376E+01  0.77616498990E+01  0.51100000000E-03 0. -1.
        -11    1    3    3    0    0 -0.26421880750E+01 -0.76392106285E+00 -0.17617057645E+00  0.27560423703E+01  0.51100000000E-03 0.  1.
         12    1    3    3    0    0 -0.70431936387E+01 -0.39237213501E+02 -0.34246275682E+01  0.40011168115E+02  0.00000000000E+00 0. -1.
</event>
<event>
 7    1  0.2817603E-011  0.5052886E+02  0.7816164E-02  0.1300439E+00
        -11   -1    0    0    0    0  0.00000000000E+00  0.00000000000E+00  0.45593999997E+02  0.45594000000E+02  0.51100000000E-03 0.  1.
         11   -1    0    0    0    0 -0.00000000000E+00 -0.00000000000E+00 -0.45593999997E+02  0.45594000000E+02  0.51100000000E-03 0. -1.
    9900012    2    1    2    0    0 -0.30620100423E+02 -0.19106966349E+02 -0.18721606964E+02  0.50528864738E+02  0.30000014858E+02 0.  0.
        -12    1    1    2    0    0  0.30620100423E+02  0.19106966349E+02  0.18721606964E+02  0.40659135262E+02  0.00000000000E+00 0.  1.
         11    1    3    3    0    0 -0.30661104971E+00 -0.76855710296E+01 -0.11373230319E+02  0.13729981083E+02  0.51100000000E-03 0. -1.
        -11    1    3    3    0    0 -0.13519904390E+02  0.24729963040E+01  0.16130737243E+00  0.13745164450E+02  0.51100000000E-03 0.  1.
         12    1    3    3    0    0 -0.16793584983E+02 -0.13894391623E+02 -0.75096840171E+01  0.23053719205E+02  0.00000000000E+00 0. -1.
</event>
<event>
 7    1  0.2817603E-011  0.5052887E+02  0.7816164E-02  0.1300439E+00
        -11   -1    0    0    0    0  0.00000000000E+00  0.00000000000E+00  0.45593999997E+02  0.45594000000E+02  0.51100000000E-03 0. -1.
         11   -1    0    0    0    0 -0.00000000000E+00 -0.00000000000E+00 -0.45593999997E+02  0.45594000000E+02  0.51100000000E-03 0.  1.
    9900012    2    1    2    0    0 -0.40476597049E+01  0.16088304515E+02  0.37120721167E+02  0.50528867800E+02  0.30000024166E+02 0.  0.
        -12    1    1    2    0    0  0.40476597049E+01 -0.16088304515E+02 -0.37120721167E+02  0.40659132200E+02  0.00000000000E+00 0.  1.
         11    1    3    3    0    0  0.59370844855E+01  0.29118730461E+00  0.31580553529E+01  0.67310531202E+01  0.51100000000E-03 0. -1.
        -11    1    3    3    0    0  0.21845071071E+01 -0.14364229662E+01  0.15633639664E+02  0.15850743567E+02  0.51100000000E-03 0.  1.
         12    1    3    3    0    0 -0.12169251298E+02  0.17233540177E+02  0.18329026150E+02  0.27947071113E+02  0.00000000000E+00 0. -1.
</event>
<event>
 7    1  0.2817603E-011  0.5052884E+02  0.7816164E-02  0.1300439E+00
        -11   -1    0    0    0    0  0.00000000000E+00  0.00000000000E+00  0.45593999997E+02  0.45594000000E+02  0.51100000000E-03 0. -1.
         11   -1    0    0    0    0 -0.00000000000E+00 -0.00000000000E+00 -0.45593999997E+02  0.45594000000E+02  0.51100000000E-03 0.  1.
    9900012    2    1    2    0    0 -0.18178330623E+02  0.22700410136E+02  0.28414908005E+02  0.50528839636E+02  0.29999938557E+02 0.  0.
        -12    1    1    2    0    0  0.18178330623E+02 -0.22700410136E+02 -0.28414908005E+02  0.40659160364E+02  0.00000000000E+00 0.  1.
         11    1    3    3    0    0  0.48734069743E-01 -0.97472846335E+00 -0.57259390563E+00  0.11315187266E+01  0.51100000000E-03 0. -1.
        -11    1    3    3    0    0 -0.36943495961E+01  0.43797449866E-01 -0.45574044141E+01  0.58668622286E+01  0.51100000000E-03 0.  1.
         12    1    3    3    0    0 -0.14532715096E+02  0.23631341150E+02  0.33544906325E+02  0.43530458681E+02  0.00000000000E+00 0. -1.
</event>
<event>
 7    1  0.2817603E-011  0.5052885E+02  0.7816164E-02  0.1300439E+00
        -11   -1    0    0    0    0  0.00000000000E+00  0.00000000000E+00  0.45593999997E+02  0.45594000000E+02  0.51100000000E-03 0. -1.
         11   -1    0    0    0    0 -0.00000000000E+00 -0.00000000000E+00 -0.45593999997E+02  0.45594000000E+02  0.51100000000E-03 0.  1.
    9900012    2    1    2    0    0 -0.33229365489E+02  0.71052104615E+01 -0.22326922704E+02  0.50528853133E+02  0.29999979584E+02 0.  0.
        -12    1    1    2    0    0  0.33229365489E+02 -0.71052104615E+01  0.22326922704E+02  0.40659146867E+02  0.00000000000E+00 0.  1.
         11    1    3    3    0    0 -0.22285262048E+02 -0.14554114220E+01 -0.11195302920E+02  0.24981712004E+02  0.51100000000E-03 0. -1.
        -11    1    3    3    0    0 -0.12150087240E+02 -0.41028277441E+00 -0.11149404943E+02  0.16495520080E+02  0.51100000000E-03 0.  1.
        -12    1    3    3    0    0  0.12059837982E+01  0.89709046579E+01  0.17785158570E-01  0.90516210490E+01  0.00000000000E+00 0.  1.
</event>
<event>
 7    1  0.2817603E-011  0.5052886E+02  0.7816164E-02  0.1300439E+00
        -11   -1    0    0    0    0  0.00000000000E+00  0.00000000000E+00  0.45593999997E+02  0.45594000000E+02  0.51100000000E-03 0.  1.
         11   -1    0    0    0    0 -0.00000000000E+00 -0.00000000000E+00 -0.45593999997E+02  0.45594000000E+02  0.51100000000E-03 0. -1.
    9900012    2    1    2    0    0 -0.35020403526E+02 -0.14770988286E+02 -0.14441422548E+02  0.50528862733E+02  0.30000008763E+02 0.  0.
        -12    1    1    2    0    0  0.35020403526E+02  0.14770988286E+02  0.14441422548E+02  0.40659137267E+02  0.00000000000E+00 0.  1.
         11    1    3    3    0    0 -0.23298129326E+01 -0.59548153653E+00 -0.38507662726E+01  0.45399369718E+01  0.51100000000E-03 0. -1.
        -11    1    3    3    0    0  0.34864838609E+01 -0.64698343525E+01  0.51946729143E+00  0.73677793662E+01  0.51100000000E-03 0.  1.
         12    1    3    3    0    0 -0.36177074455E+02 -0.77056723969E+01 -0.11110123567E+02  0.38621146395E+02  0.00000000000E+00 0. -1.
</event>
<event>
 7    1  0.2817603E-011  0.5052886E+02  0.7816164E-02  0.1300439E+00
        -11   -1    0    0    0    0  0.00000000000E+00  0.00000000000E+00  0.45593999997E+02  0.45594000000E+02  0.51100000000E-03 0.  1.
         11   -1    0    0    0    0 -0.00000000000E+00 -0.00000000000E+00 -0.45593999997E+02  0.45594000000E+02  0.51100000000E-03 0. -1.
    9900012    2    1    2    0    0  0.38365236308E+02  0.10205980165E+02 -0.87813572188E+01  0.50528860527E+02  0.30000002057E+02 0.  0.
        -12    1    1    2    0    0 -0.38365236308E+02 -0.10205980165E+02  0.87813572188E+01  0.40659139473E+02  0.00000000000E+00 0.  1.
         11    1    3    3    0    0  0.23973646280E+02  0.12217725960E+01 -0.11774710154E+02  0.26737094900E+02  0.51100000000E-03 0. -1.
        -11    1    3    3    0    0  0.17792499936E+02  0.52944456240E+01  0.27673744345E+01  0.18768659248E+02  0.51100000000E-03 0.  1.
        -12    1    3    3    0    0 -0.34009099077E+01  0.36897619446E+01  0.22597850076E+00  0.50231063786E+01  0.00000000000E+00 0.  1.
</event>
<event>
 7    1  0.2817603E-011  0.5052885E+02  0.7816164E-02  0.1300439E+00
        -11   -1    0    0    0    0  0.00000000000E+00  0.00000000000E+00  0.45593999997E+02  0.45594000000E+02  0.51100000000E-03 0.  1.
         11   -1    0    0    0    0 -0.00000000000E+00 -0.00000000000E+00 -0.45593999997E+02  0.45594000000E+02  0.51100000000E-03 0. -1.
    9900012    2    1    2    0    0  0.39490956181E+02 -0.96623860102E+01 -0.51916426109E+00  0.50528845372E+02  0.29999955993E+02 0.  0.
        -12    1    1    2    0    0 -0.39490956181E+02  0.96623860102E+01  0.51916426109E+00  0.40659154628E+02  0.00000000000E+00 0.  1.
         11    1    3    3    0    0  0.22856049551E+02 -0.78759710563E+01  0.80038442791E+01  0.25465495178E+02  0.51100000000E-03 0. -1.
        -11    1    3    3    0    0  0.31091186957E+01  0.43212667035E+01  0.31466429043E+01  0.61839572132E+01  0.51100000000E-03 0.  1.
         12    1    3    3    0    0  0.13525787935E+02 -0.61076816574E+01 -0.11669651445E+02  0.18879392981E+02  0.00000000000E+00 0. -1.
</event>
<event>
 7    1  0.2817603E-011  0.5052885E+02  0.7816164E-02  0.1300439E+00
        -11   -1    0    0    0    0  0.00000000000E+00  0.00000000000E+00  0.45593999997E+02  0.45594000000E+02  0.51100000000E-03 0.  1.
         11   -1    0    0    0    0 -0.00000000000E+00 -0.00000000000E+00 -0.45593999997E+02  0.45594000000E+02  0.51100000000E-03 0. -1.
    9900012    2    1    2    0    0 -0.38474266403E+01  0.15862721248E+02 -0.37238928190E+02  0.50528851093E+02  0.29999973381E+02 0.  0.
        -12    1    1    2    0    0  0.38474266403E+01 -0.15862721248E+02  0.37238928190E+02  0.40659148907E+02  0.00000000000E+00 0.  1.
         11    1    3    3    0    0  0.74703362673E+00  0.48664027460E+01 -0.79654790835E+01  0.93642293979E+01  0.51100000000E-03 0. -1.
        -11    1    3    3    0    0  0.84172880192E+01  0.13287298186E+02 -0.15829268596E+02  0.22315213986E+02  0.51100000000E-03 0.  1.
         12    1    3    3    0    0 -0.13011748286E+02 -0.22909796842E+01 -0.13444180510E+02  0.18849407709E+02  0.00000000000E+00 0. -1.
</event>
<event>
 7    1  0.2817603E-011  0.5052885E+02  0.7816164E-02  0.1300439E+00
        -11   -1    0    0    0    0  0.00000000000E+00  0.00000000000E+00  0.45593999997E+02  0.45594000000E+02  0.51100000000E-03 0.  1.
         11   -1    0    0    0    0 -0.00000000000E+00 -0.00000000000E+00 -0.45593999997E+02  0.45594000000E+02  0.51100000000E-03 0. -1.
    9900012    2    1    2    0    0  0.95873596032E+01  0.39501065244E+02  0.95666185874E+00  0.50528845785E+02  0.29999957248E+02 0.  0.
        -12    1    1    2    0    0 -0.95873596032E+01 -0.39501065244E+02 -0.95666185874E+00  0.40659154215E+02  0.00000000000E+00 0.  1.
         11    1    3    3    0    0  0.52803513183E+01  0.34859208919E+02  0.24998104122E+01  0.35345376061E+02  0.51100000000E-03 0. -1.
        -11    1    3    3    0    0  0.77487402551E+01  0.70485711765E+01 -0.27192079833E+01  0.10822172771E+02  0.51100000000E-03 0.  1.
        -12    1    3    3    0    0 -0.34417319701E+01 -0.24067148516E+01  0.11760594298E+01  0.43612969531E+01  0.00000000000E+00 0.  1.
</event>
<event>
 7    1  0.2817603E-011  0.5052888E+02  0.7816164E-02  0.1300439E+00
        -11   -1    0    0    0    0  0.00000000000E+00  0.00000000000E+00  0.45593999997E+02  0.45594000000E+02  0.51100000000E-03 0.  1.
         11   -1    0    0    0    0 -0.00000000000E+00 -0.00000000000E+00 -0.45593999997E+02  0.45594000000E+02  0.51100000000E-03 0. -1.
    9900012    2    1    2    0    0 -0.20483626927E+02  0.33859395739E+02 -0.93341682611E+01  0.50528876190E+02  0.30000049666E+02 0.  0.
        -12    1    1    2    0    0  0.20483626927E+02 -0.33859395739E+02  0.93341682611E+01  0.40659123810E+02  0.00000000000E+00 0.  1.
         11    1    3    3    0    0 -0.76243074256E+01  0.14969751711E+02 -0.52574660215E+01  0.17602967910E+02  0.51100000000E-03 0. -1.
        -11    1    3    3    0    0  0.59823599222E+01  0.10409481526E+02 -0.17584831581E+01  0.12134174844E+02  0.51100000000E-03 0.  1.
        -12    1    3    3    0    0 -0.18841679423E+02  0.84801625032E+01 -0.23182190815E+01  0.20791733436E+02  0.00000000000E+00 0.  1.
</event>
<event>
 7    1  0.2817603E-011  0.5052887E+02  0.7816164E-02  0.1300439E+00
        -11   -1    0    0    0    0  0.00000000000E+00  0.00000000000E+00  0.45593999997E+02  0.45594000000E+02  0.51100000000E-03 0. -1.
         11   -1    0    0    0    0 -0.00000000000E+00 -0.00000000000E+00 -0.45593999997E+02  0.45594000000E+02  0.51100000000E-03 0.  1.
    9900012    2    1    2    0    0  0.35154485066E+01 -0.28969012118E+02  0.28312597257E+02  0.50528865667E+02  0.30000017681E+02 0.  0.
        -12    1    1    2    0    0 -0.35154485066E+01  0.28969012118E+02 -0.28312597257E+02  0.40659134333E+02  0.00000000000E+00 0.  1.
         11    1    3    3    0    0  0.31297052445E+01  0.84836917724E+00 -0.75818723956E+00  0.33301101078E+01  0.51100000000E-03 0. -1.
        -11    1    3    3    0    0  0.89260259969E+01 -0.95435764534E+01  0.36230951512E+01  0.13560258491E+02  0.51100000000E-03 0.  1.
         12    1    3    3    0    0 -0.85402827348E+01 -0.20273804842E+02  0.25447689345E+02  0.33638497068E+02  0.00000000000E+00 0. -1.
</event>
<event>
 7    1  0.2817603E-011  0.5052886E+02  0.7816164E-02  0.1300439E+00
        -11   -1    0    0    0    0  0.00000000000E+00  0.00000000000E+00  0.45593999997E+02  0.45594000000E+02  0.51100000000E-03 0.  1.
         11   -1    0    0    0    0 -0.00000000000E+00 -0.00000000000E+00 -0.45593999997E+02  0.45594000000E+02  0.51100000000E-03 0. -1.
    9900012    2    1    2    0    0 -0.27638923636E+02 -0.34841831048E+00 -0.29818348866E+02  0.50528862968E+02  0.30000009478E+02 0.  0.
        -12    1    1    2    0    0  0.27638923636E+02  0.34841831048E+00  0.29818348866E+02  0.40659137032E+02  0.00000000000E+00 0.  1.
         11    1    3    3    0    0  0.24076548886E+01 -0.10026599833E+00  0.14485929607E+01  0.28116324724E+01  0.51100000000E-03 0. -1.
        -11    1    3    3    0    0 -0.10684111876E+02 -0.52155894785E+01 -0.23377606535E+02  0.26227182612E+02  0.51100000000E-03 0.  1.
         12    1    3    3    0    0 -0.19362466648E+02  0.49674371663E+01 -0.78893352922E+01  0.21490047884E+02  0.00000000000E+00 0. -1.
</event>
<event>
 7    1  0.2817603E-011  0.5052886E+02  0.7816164E-02  0.1300439E+00
        -11   -1    0    0    0    0  0.00000000000E+00  0.00000000000E+00  0.45593999997E+02  0.45594000000E+02  0.51100000000E-03 0. -1.
         11   -1    0    0    0    0 -0.00000000000E+00 -0.00000000000E+00 -0.45593999997E+02  0.45594000000E+02  0.51100000000E-03 0.  1.
    9900012    2    1    2    0    0  0.52232024543E+01  0.54373992918E+01  0.39953950528E+02  0.50528864277E+02  0.30000013457E+02 0.  0.
        -12    1    1    2    0    0 -0.52232024543E+01 -0.54373992918E+01 -0.39953950528E+02  0.40659135723E+02  0.00000000000E+00 0.  1.
         11    1    3    3    0    0 -0.15971265083E+01  0.21538724845E+01  0.31258860988E+02  0.31373657267E+02  0.51100000000E-03 0. -1.
        -11    1    3    3    0    0 -0.28158158106E+01  0.60035326607E+01  0.14274860412E+01  0.67829889980E+01  0.51100000000E-03 0.  1.
        -12    1    3    3    0    0  0.96361447731E+01 -0.27200058534E+01  0.72676034988E+01  0.12372218012E+02  0.00000000000E+00 0.  1.
</event>
<event>
 7    1  0.2817603E-011  0.5052886E+02  0.7816164E-02  0.1300439E+00
        -11   -1    0    0    0    0  0.00000000000E+00  0.00000000000E+00  0.45593999997E+02  0.45594000000E+02  0.51100000000E-03 0. -1.
         11   -1    0    0    0    0 -0.00000000000E+00 -0.00000000000E+00 -0.45593999997E+02  0.45594000000E+02  0.51100000000E-03 0.  1.
    9900012    2    1    2    0    0 -0.52473737711E+00  0.25006078832E+02  0.32055986544E+02  0.50528860792E+02  0.30000002863E+02 0.  0.
        -12    1    1    2    0    0  0.52473737711E+00 -0.25006078832E+02 -0.32055986544E+02  0.40659139208E+02  0.00000000000E+00 0.  1.
         11    1    3    3    0    0  0.42026012171E+00  0.76247347673E+01  0.11437064003E+02  0.13752077375E+02  0.51100000000E-03 0. -1.
        -11    1    3    3    0    0  0.73583364026E+01  0.18130862955E+02  0.69477203135E+01  0.20764010304E+02  0.51100000000E-03 0.  1.
         12    1    3    3    0    0 -0.83033339014E+01 -0.74951889021E+00  0.13671202227E+02  0.16012773113E+02  0.00000000000E+00 0. -1.
</event>
<event>
 7    1  0.2817603E-011  0.5052892E+02  0.7816164E-02  0.1300439E+00
        -11   -1    0    0    0    0  0.00000000000E+00  0.00000000000E+00  0.45593999997E+02  0.45594000000E+02  0.51100000000E-03 0. -1.
         11   -1    0    0    0    0 -0.00000000000E+00 -0.00000000000E+00 -0.45593999997E+02  0.45594000000E+02  0.51100000000E-03 0.  1.
    9900012    2    1    2    0    0 -0.30149736813E+02  0.23346109569E+02  0.14110749776E+02  0.50528920803E+02  0.30000185274E+02 0.  0.
        -12    1    1    2    0    0  0.30149736813E+02 -0.23346109569E+02 -0.14110749776E+02  0.40659079197E+02  0.00000000000E+00 0.  1.
         11    1    3    3    0    0 -0.80829164184E+00  0.13077708063E+01  0.29327812296E+01  0.33113148237E+01  0.51100000000E-03 0.  1.
        -11    1    3    3    0    0 -0.19018470539E+02 -0.25662206959E+01  0.49071565582E+01  0.19808278473E+02  0.51100000000E-03 0. -1.
        -12    1    3    3    0    0 -0.10322974632E+02  0.24604559458E+02  0.62708119878E+01  0.27409327507E+02  0.00000000000E+00 0.  1.
</event>
<event>
 7    1  0.2817603E-011  0.5052886E+02  0.7816164E-02  0.1300439E+00
        -11   -1    0    0    0    0  0.00000000000E+00  0.00000000000E+00  0.45593999997E+02  0.45594000000E+02  0.51100000000E-03 0. -1.
         11   -1    0    0    0    0 -0.00000000000E+00 -0.00000000000E+00 -0.45593999997E+02  0.45594000000E+02  0.51100000000E-03 0.  1.
    9900012    2    1    2    0    0  0.16714126394E+02 -0.32234109683E+02  0.18296598837E+02  0.50528863546E+02  0.30000011234E+02 0.  0.
        -12    1    1    2    0    0 -0.16714126394E+02  0.32234109683E+02 -0.18296598837E+02  0.40659136454E+02  0.00000000000E+00 0.  1.
         11    1    3    3    0    0  0.13400092544E+02 -0.24798193085E+02  0.21998495248E+01  0.28272817310E+02  0.51100000000E-03 0. -1.
        -11    1    3    3    0    0  0.39884222901E+01 -0.61955738112E+01  0.14105639757E+01  0.75021555706E+01  0.51100000000E-03 0.  1.
        -12    1    3    3    0    0 -0.67438843946E+00 -0.12403427865E+01  0.14686185337E+02  0.14753890665E+02  0.00000000000E+00 0.  1.
</event>
<event>
 7    1  0.2817603E-011  0.5052886E+02  0.7816164E-02  0.1300439E+00
        -11   -1    0    0    0    0  0.00000000000E+00  0.00000000000E+00  0.45593999997E+02  0.45594000000E+02  0.51100000000E-03 0. -1.
         11   -1    0    0    0    0 -0.00000000000E+00 -0.00000000000E+00 -0.45593999997E+02  0.45594000000E+02  0.51100000000E-03 0.  1.
    9900012    2    1    2    0    0 -0.36125872886E+02  0.18386268305E+02 -0.31673108174E+01  0.50528863121E+02  0.30000009942E+02 0.  0.
        -12    1    1    2    0    0  0.36125872886E+02 -0.18386268305E+02  0.31673108174E+01  0.40659136879E+02  0.00000000000E+00 0.  1.
         11    1    3    3    0    0 -0.92000106652E+01  0.36268611626E+00  0.53423114745E+01  0.10644812333E+02  0.51100000000E-03 0. -1.
        -11    1    3    3    0    0 -0.10876178499E+02  0.55586318087E+01  0.72176530102E+01  0.14187464945E+02  0.51100000000E-03 0.  1.
        -12    1    3    3    0    0 -0.16049683721E+02  0.12464950380E+02 -0.15727275302E+02  0.25696585842E+02  0.00000000000E+00 0.  1.
</event>
<event>
 7    1  0.2817603E-011  0.5052885E+02  0.7816164E-02  0.1300439E+00
        -11   -1    0    0    0    0  0.00000000000E+00  0.00000000000E+00  0.45593999997E+02  0.45594000000E+02  0.51100000000E-03 0. -1.
         11   -1    0    0    0    0 -0.00000000000E+00 -0.00000000000E+00 -0.45593999997E+02  0.45594000000E+02  0.51100000000E-03 0.  1.
    9900012    2    1    2    0    0 -0.33198122162E+02  0.23366574707E+02 -0.22482275624E+01  0.50528847823E+02  0.29999963442E+02 0.  0.
        -12    1    1    2    0    0  0.33198122162E+02 -0.23366574707E+02  0.22482275624E+01  0.40659152177E+02  0.00000000000E+00 0.  1.
         11    1    3    3    0    0 -0.70455418311E+01  0.89607447961E+01  0.85967599253E+01  0.14277215711E+02  0.51100000000E-03 0. -1.
        -11    1    3    3    0    0 -0.23584226013E+02  0.18344368613E+02 -0.96791430447E+01  0.31407282385E+02  0.51100000000E-03 0.  1.
         12    1    3    3    0    0 -0.25683543171E+01 -0.39385387021E+01 -0.11658444430E+01  0.48443497264E+01  0.00000000000E+00 0. -1.
</event>
<event>
 7    1  0.2817603E-011  0.5052885E+02  0.7816164E-02  0.1300439E+00
        -11   -1    0    0    0    0  0.00000000000E+00  0.00000000000E+00  0.45593999997E+02  0.45594000000E+02  0.51100000000E-03 0. -1.
         11   -1    0    0    0    0 -0.00000000000E+00 -0.00000000000E+00 -0.45593999997E+02  0.45594000000E+02  0.51100000000E-03 0.  1.
    9900012    2    1    2    0    0  0.39784882319E+02  0.83329145414E+01  0.94438713694E+00  0.50528853514E+02  0.29999980741E+02 0.  0.
        -12    1    1    2    0    0 -0.39784882319E+02 -0.83329145414E+01 -0.94438713694E+00  0.40659146486E+02  0.00000000000E+00 0.  1.
         11    1    3    3    0    0  0.10248920564E+01 -0.16372895380E+01 -0.43211694996E+01  0.47332469684E+01  0.51100000000E-03 0. -1.
        -11    1    3    3    0    0  0.15754950900E+01 -0.49751417122E+01 -0.74594884394E+00  0.52716847188E+01  0.51100000000E-03 0.  1.
         12    1    3    3    0    0  0.37184495173E+02  0.14945345792E+02  0.60115054805E+01  0.40523921827E+02  0.00000000000E+00 0. -1.
</event>
<event>
 7    1  0.2817603E-011  0.5052886E+02  0.7816164E-02  0.1300439E+00
        -11   -1    0    0    0    0  0.00000000000E+00  0.00000000000E+00  0.45593999997E+02  0.45594000000E+02  0.51100000000E-03 0. -1.
         11   -1    0    0    0    0 -0.00000000000E+00 -0.00000000000E+00 -0.45593999997E+02  0.45594000000E+02  0.51100000000E-03 0.  1.
    9900012    2    1    2    0    0 -0.25566491643E+01 -0.38669690924E+02  0.12299764412E+02  0.50528860121E+02  0.30000000822E+02 0.  0.
        -12    1    1    2    0    0  0.25566491643E+01  0.38669690924E+02 -0.12299764412E+02  0.40659139879E+02  0.00000000000E+00 0.  1.
         11    1    3    3    0    0  0.12679333495E+01 -0.19743577477E+02  0.81308026688E+01  0.21389868136E+02  0.51100000000E-03 0. -1.
        -11    1    3    3    0    0  0.79171310914E+01 -0.35909274518E+01  0.45684730650E+01  0.98207266070E+01  0.51100000000E-03 0.  1.
        -12    1    3    3    0    0 -0.11741713605E+02 -0.15335185996E+02 -0.39951132136E+00  0.19318265378E+02  0.00000000000E+00 0.  1.
</event>
<event>
 7    1  0.2817603E-011  0.5052886E+02  0.7816164E-02  0.1300439E+00
        -11   -1    0    0    0    0  0.00000000000E+00  0.00000000000E+00  0.45593999997E+02  0.45594000000E+02  0.51100000000E-03 0.  1.
         11   -1    0    0    0    0 -0.00000000000E+00 -0.00000000000E+00 -0.45593999997E+02  0.45594000000E+02  0.51100000000E-03 0. -1.
    9900012    2    1    2    0    0 -0.34383771660E+02 -0.28908814272E+01 -0.21507313052E+02  0.50528862482E+02  0.30000007999E+02 0.  0.
        -12    1    1    2    0    0  0.34383771660E+02  0.28908814272E+01  0.21507313052E+02  0.40659137518E+02  0.00000000000E+00 0.  1.
         11    1    3    3    0    0 -0.79808568913E+01 -0.15186218573E+00 -0.26889242103E+01  0.84230310763E+01  0.51100000000E-03 0. -1.
        -11    1    3    3    0    0 -0.76939014291E+01  0.84296404107E+01  0.24328163790E+01  0.11669342417E+02  0.51100000000E-03 0.  1.
         12    1    3    3    0    0 -0.18709013340E+02 -0.11168659652E+02 -0.21251205221E+02  0.30436488988E+02  0.00000000000E+00 0. -1.
</event>
<event>
 7    1  0.2817603E-011  0.5052886E+02  0.7816164E-02  0.1300439E+00
        -11   -1    0    0    0    0  0.00000000000E+00  0.00000000000E+00  0.45593999997E+02  0.45594000000E+02  0.51100000000E-03 0. -1.
         11   -1    0    0    0    0 -0.00000000000E+00 -0.00000000000E+00 -0.45593999997E+02  0.45594000000E+02  0.51100000000E-03 0.  1.
    9900012    2    1    2    0    0 -0.23068248643E+02  0.55397866482E+01  0.33020182871E+02  0.50528858243E+02  0.29999995115E+02 0.  0.
        -12    1    1    2    0    0  0.23068248643E+02 -0.55397866482E+01 -0.33020182871E+02  0.40659141757E+02  0.00000000000E+00 0.  1.
         11    1    3    3    0    0 -0.15092375350E+02 -0.32260737621E+00  0.42742278096E+01  0.15689260431E+02  0.51100000000E-03 0. -1.
        -11    1    3    3    0    0 -0.36057557299E+01  0.53385257341E+01  0.73385045600E+00  0.64838158633E+01  0.51100000000E-03 0.  1.
         12    1    3    3    0    0 -0.43701175629E+01  0.52386829035E+00  0.28012104606E+02  0.28355781949E+02  0.00000000000E+00 0. -1.
</event>
<event>
 7    1  0.2817603E-011  0.5052886E+02  0.7816164E-02  0.1300439E+00
        -11   -1    0    0    0    0  0.00000000000E+00  0.00000000000E+00  0.45593999997E+02  0.45594000000E+02  0.51100000000E-03 0.  1.
         11   -1    0    0    0    0 -0.00000000000E+00 -0.00000000000E+00 -0.45593999997E+02  0.45594000000E+02  0.51100000000E-03 0. -1.
    9900012    2    1    2    0    0 -0.17324515498E+02  0.26063788549E+02 -0.25955842869E+02  0.50528859702E+02  0.29999999550E+02 0.  0.
        -12    1    1    2    0    0  0.17324515498E+02 -0.26063788549E+02  0.25955842869E+02  0.40659140298E+02  0.00000000000E+00 0.  1.
         11    1    3    3    0    0 -0.10344324717E+01  0.27290545630E+01 -0.20984706394E+01  0.35946305279E+01  0.51100000000E-03 0. -1.
        -11    1    3    3    0    0 -0.16891828482E+02  0.77370675868E+00 -0.15278821001E+02  0.22789797345E+02  0.51100000000E-03 0.  1.
        -12    1    3    3    0    0  0.60174545558E+00  0.22561027227E+02 -0.85785512281E+01  0.24144431829E+02  0.00000000000E+00 0.  1.
</event>
<event>
 7    1  0.2817603E-011  0.5052887E+02  0.7816164E-02  0.1300439E+00
        -11   -1    0    0    0    0  0.00000000000E+00  0.00000000000E+00  0.45593999997E+02  0.45594000000E+02  0.51100000000E-03 0.  1.
         11   -1    0    0    0    0 -0.00000000000E+00 -0.00000000000E+00 -0.45593999997E+02  0.45594000000E+02  0.51100000000E-03 0. -1.
    9900012    2    1    2    0    0  0.61943071006E+01 -0.13726243459E+01 -0.40161071040E+02  0.50528866153E+02  0.30000019159E+02 0.  0.
        -12    1    1    2    0    0 -0.61943071006E+01  0.13726243459E+01  0.40161071040E+02  0.40659133847E+02  0.00000000000E+00 0.  1.
         11    1    3    3    0    0  0.34701764096E+01  0.17804274352E+01 -0.23207704103E+02  0.23533159077E+02  0.51100000000E-03 0. -1.
        -11    1    3    3    0    0 -0.17998523258E+01  0.69963686888E+01 -0.13581605644E+02  0.15383388943E+02  0.51100000000E-03 0.  1.
        -12    1    3    3    0    0  0.45239830169E+01 -0.10149420470E+02 -0.33717612934E+01  0.11612318133E+02  0.00000000000E+00 0.  1.
</event>
<event>
 7    1  0.3239947E-011  0.5052886E+02  0.7816164E-02  0.1300439E+00
        -11   -1    0    0    0    0  0.00000000000E+00  0.00000000000E+00  0.45593999997E+02  0.45594000000E+02  0.51100000000E-03 0.  1.
         11   -1    0    0    0    0 -0.00000000000E+00 -0.00000000000E+00 -0.45593999997E+02  0.45594000000E+02  0.51100000000E-03 0. -1.
    9900012    2    1    2    0    0  0.63883147478E+00 -0.40320191680E+02 -0.51999444090E+01  0.50528863455E+02  0.30000010957E+02 0.  0.
        -12    1    1    2    0    0 -0.63883147478E+00  0.40320191680E+02  0.51999444090E+01  0.40659136545E+02  0.00000000000E+00 0.  1.
         11    1    3    3    0    0  0.61485987011E+00 -0.29503177472E+02 -0.50208914092E+00  0.29513854838E+02  0.51100000000E-03 0. -1.
        -11    1    3    3    0    0 -0.54390225949E+01 -0.11253204404E+02 -0.77849966686E+01  0.14724936317E+02  0.51100000000E-03 0.  1.
        -12    1    3    3    0    0  0.54629941996E+01  0.43619019639E+00  0.30871414005E+01  0.62900723000E+01  0.00000000000E+00 0.  1.
</event>
<event>
 7    1  0.2817603E-011  0.5052887E+02  0.7816164E-02  0.1300439E+00
        -11   -1    0    0    0    0  0.00000000000E+00  0.00000000000E+00  0.45593999997E+02  0.45594000000E+02  0.51100000000E-03 0.  1.
         11   -1    0    0    0    0 -0.00000000000E+00 -0.00000000000E+00 -0.45593999997E+02  0.45594000000E+02  0.51100000000E-03 0. -1.
    9900012    2    1    2    0    0  0.28791387751E+02  0.28363310813E+02  0.44433888147E+01  0.50528866794E+02  0.30000021107E+02 0.  0.
        -12    1    1    2    0    0 -0.28791387751E+02 -0.28363310813E+02 -0.44433888147E+01  0.40659133206E+02  0.00000000000E+00 0.  1.
         11    1    3    3    0    0  0.82933081923E+01  0.74973407215E+01 -0.21246690320E+01  0.11379951556E+02  0.51100000000E-03 0. -1.
        -11    1    3    3    0    0  0.18035467641E+02  0.87800711434E+01  0.14261343767E+02  0.24612063477E+02  0.51100000000E-03 0.  1.
         12    1    3    3    0    0  0.24626119175E+01  0.12085898948E+02 -0.76932859207E+01  0.14536851760E+02  0.00000000000E+00 0. -1.
</event>
<event>
 7    1  0.2817603E-011  0.5052886E+02  0.7816164E-02  0.1300439E+00
        -11   -1    0    0    0    0  0.00000000000E+00  0.00000000000E+00  0.45593999997E+02  0.45594000000E+02  0.51100000000E-03 0.  1.
         11   -1    0    0    0    0 -0.00000000000E+00 -0.00000000000E+00 -0.45593999997E+02  0.45594000000E+02  0.51100000000E-03 0. -1.
    9900012    2    1    2    0    0  0.36530415708E+02 -0.93836141976E+01 -0.15186906809E+02  0.50528860491E+02  0.30000001947E+02 0.  0.
        -12    1    1    2    0    0 -0.36530415708E+02  0.93836141976E+01  0.15186906809E+02  0.40659139509E+02  0.00000000000E+00 0.  1.
         11    1    3    3    0    0  0.67721205245E+01  0.33299612202E+01 -0.63358095075E+01  0.98535648627E+01  0.51100000000E-03 0. -1.
        -11    1    3    3    0    0 -0.20663738205E+01  0.27443819388E+01  0.15916609250E+01  0.37861481420E+01  0.51100000000E-03 0.  1.
        -12    1    3    3    0    0  0.31824669004E+02 -0.15457957357E+02 -0.10442758226E+02  0.36889147486E+02  0.00000000000E+00 0.  1.
</event>
<event>
 7    1  0.2817603E-011  0.5052886E+02  0.7816164E-02  0.1300439E+00
        -11   -1    0    0    0    0  0.00000000000E+00  0.00000000000E+00  0.45593999997E+02  0.45594000000E+02  0.51100000000E-03 0. -1.
         11   -1    0    0    0    0 -0.00000000000E+00 -0.00000000000E+00 -0.45593999997E+02  0.45594000000E+02  0.51100000000E-03 0.  1.
    9900012    2    1    2    0    0  0.12049532081E+02  0.38789550305E+02  0.18288895359E+01  0.50528864825E+02  0.30000015123E+02 0.  0.
        -12    1    1    2    0    0 -0.12049532081E+02 -0.38789550305E+02 -0.18288895359E+01  0.40659135175E+02  0.00000000000E+00 0.  1.
         11    1    3    3    0    0  0.11867620132E+02  0.28166492742E+02  0.52571179470E+01  0.31013368252E+02  0.51100000000E-03 0. -1.
        -11    1    3    3    0    0  0.71746902940E+01  0.65133963183E+01  0.18130948878E+01  0.98583885979E+01  0.51100000000E-03 0.  1.
        -12    1    3    3    0    0 -0.69927783449E+01  0.41096612449E+01 -0.52413232989E+01  0.96571079756E+01  0.00000000000E+00 0.  1.
</event>
<event>
 7    1  0.2817603E-011  0.5052899E+02  0.7816164E-02  0.1300438E+00
        -11   -1    0    0    0    0  0.00000000000E+00  0.00000000000E+00  0.45593999997E+02  0.45594000000E+02  0.51100000000E-03 0.  1.
         11   -1    0    0    0    0 -0.00000000000E+00 -0.00000000000E+00 -0.45593999997E+02  0.45594000000E+02  0.51100000000E-03 0. -1.
    9900012    2    1    2    0    0  0.37933696755E+01  0.40435595783E+02 -0.19308300666E+01  0.50528989134E+02  0.30000392971E+02 0.  0.
        -12    1    1    2    0    0 -0.37933696755E+01 -0.40435595783E+02  0.19308300666E+01  0.40659010866E+02  0.00000000000E+00 0.  1.
         11    1    3    3    0    0 -0.46673449695E+01  0.15593379410E+02 -0.51719268524E+01  0.17078829530E+02  0.51100000000E-03 0. -1.
        -11    1    3    3    0    0 -0.33208768314E+01  0.72737508306E+01 -0.63630310049E+01  0.10218798261E+02  0.51100000000E-03 0.  1.
         12    1    3    3    0    0  0.11781591476E+02  0.17568465542E+02  0.96041277908E+01  0.23231361343E+02  0.00000000000E+00 0. -1.
</event>
<event>
 7    1  0.2817603E-011  0.5052886E+02  0.7816164E-02  0.1300439E+00
        -11   -1    0    0    0    0  0.00000000000E+00  0.00000000000E+00  0.45593999997E+02  0.45594000000E+02  0.51100000000E-03 0.  1.
         11   -1    0    0    0    0 -0.00000000000E+00 -0.00000000000E+00 -0.45593999997E+02  0.45594000000E+02  0.51100000000E-03 0. -1.
    9900012    2    1    2    0    0 -0.11862780808E+02  0.35617290035E+02 -0.15615647539E+02  0.50528863683E+02  0.30000011652E+02 0.  0.
        -12    1    1    2    0    0  0.11862780808E+02 -0.35617290035E+02  0.15615647539E+02  0.40659136317E+02  0.00000000000E+00 0.  1.
         11    1    3    3    0    0 -0.88326083951E+01  0.23260428962E+02  0.36616898810E+01  0.25148966173E+02  0.51100000000E-03 0. -1.
        -11    1    3    3    0    0 -0.27037116963E+01  0.62014785536E+01 -0.20285751656E+01  0.70628259678E+01  0.51100000000E-03 0.  1.
        -12    1    3    3    0    0 -0.32646071629E+00  0.61553825199E+01 -0.17248762255E+02  0.18317071542E+02  0.00000000000E+00 0.  1.
</event>
<event>
 7    1  0.2817603E-011  0.5052887E+02  0.7816164E-02  0.1300439E+00
        -11   -1    0    0    0    0  0.00000000000E+00  0.00000000000E+00  0.45593999997E+02  0.45594000000E+02  0.51100000000E-03 0.  1.
         11   -1    0    0    0    0 -0.00000000000E+00 -0.00000000000E+00 -0.45593999997E+02  0.45594000000E+02  0.51100000000E-03 0. -1.
    9900012    2    1    2    0    0 -0.30513808877E+02  0.22835289671E+02  0.14164109125E+02  0.50528868506E+02  0.30000026312E+02 0.  0.
        -12    1    1    2    0    0  0.30513808877E+02 -0.22835289671E+02 -0.14164109125E+02  0.40659131494E+02  0.00000000000E+00 0.  1.
         11    1    3    3    0    0 -0.13760244811E+02  0.59973558392E+01  0.14361175355E+01  0.15078960447E+02  0.51100000000E-03 0. -1.
        -11    1    3    3    0    0 -0.20598509098E+02  0.64036623119E+01  0.10941324022E+02  0.24187146167E+02  0.51100000000E-03 0.  1.
        -12    1    3    3    0    0  0.38449450328E+01  0.10434271520E+02  0.17866675669E+01  0.11262761892E+02  0.00000000000E+00 0.  1.
</event>
<event>
 7    1  0.2817603E-011  0.5052886E+02  0.7816164E-02  0.1300439E+00
        -11   -1    0    0    0    0  0.00000000000E+00  0.00000000000E+00  0.45593999997E+02  0.45594000000E+02  0.51100000000E-03 0.  1.
         11   -1    0    0    0    0 -0.00000000000E+00 -0.00000000000E+00 -0.45593999997E+02  0.45594000000E+02  0.51100000000E-03 0. -1.
    9900012    2    1    2    0    0  0.81155355274E+01  0.36935541285E+02 -0.14935508197E+02  0.50528861642E+02  0.30000005448E+02 0.  0.
        -12    1    1    2    0    0 -0.81155355274E+01 -0.36935541285E+02  0.14935508197E+02  0.40659138358E+02  0.00000000000E+00 0.  1.
         11    1    3    3    0    0  0.85213546359E+01  0.30614025403E+02 -0.24865633755E+01  0.31874990727E+02  0.51100000000E-03 0. -1.
        -11    1    3    3    0    0  0.21528452549E+01  0.92836144033E+01 -0.65106257370E+01  0.11541598105E+02  0.51100000000E-03 0.  1.
        -12    1    3    3    0    0 -0.25586643634E+01 -0.29620985212E+01 -0.59383190843E+01  0.71122728098E+01  0.00000000000E+00 0.  1.
</event>
<event>
 7    1  0.2817603E-011  0.5052886E+02  0.7816164E-02  0.1300439E+00
        -11   -1    0    0    0    0  0.00000000000E+00  0.00000000000E+00  0.45593999997E+02  0.45594000000E+02  0.51100000000E-03 0.  1.
         11   -1    0    0    0    0 -0.00000000000E+00 -0.00000000000E+00 -0.45593999997E+02  0.45594000000E+02  0.51100000000E-03 0. -1.
    9900012    2    1    2    0    0  0.21648370400E+02  0.32237563543E+02  0.12052099191E+02  0.50528861555E+02  0.30000005182E+02 0.  0.
        -12    1    1    2    0    0 -0.21648370400E+02 -0.32237563543E+02 -0.12052099191E+02  0.40659138445E+02  0.00000000000E+00 0.  1.
         11    1    3    3    0    0  0.46837351905E+00 -0.24500199557E+01 -0.11396924872E+01  0.27424206029E+01  0.51100000000E-03 0. -1.
        -11    1    3    3    0    0 -0.56755286230E+00  0.15666579455E+02  0.10282617718E+02  0.18748228062E+02  0.51100000000E-03 0.  1.
         12    1    3    3    0    0  0.21747549744E+02  0.19021004044E+02  0.29091739597E+01  0.29038212890E+02  0.00000000000E+00 0. -1.
</event>
<event>
 7    1  0.2817603E-011  0.5052887E+02  0.7816164E-02  0.1300439E+00
        -11   -1    0    0    0    0  0.00000000000E+00  0.00000000000E+00  0.45593999997E+02  0.45594000000E+02  0.51100000000E-03 0.  1.
         11   -1    0    0    0    0 -0.00000000000E+00 -0.00000000000E+00 -0.45593999997E+02  0.45594000000E+02  0.51100000000E-03 0. -1.
    9900012    2    1    2    0    0  0.27479591724E+02 -0.29955226271E+02 -0.84948475109E+00  0.50528866135E+02  0.30000019104E+02 0.  0.
        -12    1    1    2    0    0 -0.27479591724E+02  0.29955226271E+02  0.84948475109E+00  0.40659133865E+02  0.00000000000E+00 0.  1.
         11    1    3    3    0    0  0.57005403831E+01 -0.42675402812E+01  0.29373519516E+01  0.77029927599E+01  0.51100000000E-03 0. -1.
        -11    1    3    3    0    0  0.22523832522E+02 -0.85992277636E+01 -0.76428176728E+01  0.25291943615E+02  0.51100000000E-03 0.  1.
        -12    1    3    3    0    0 -0.74478118071E+00 -0.17088458227E+02  0.38559809701E+01  0.17533929760E+02  0.00000000000E+00 0.  1.
</event>
<event>
 7    1  0.2817603E-011  0.5052887E+02  0.7816164E-02  0.1300439E+00
        -11   -1    0    0    0    0  0.00000000000E+00  0.00000000000E+00  0.45593999997E+02  0.45594000000E+02  0.51100000000E-03 0. -1.
         11   -1    0    0    0    0 -0.00000000000E+00 -0.00000000000E+00 -0.45593999997E+02  0.45594000000E+02  0.51100000000E-03 0.  1.
    9900012    2    1    2    0    0  0.27677541086E+02  0.15618519969E+02  0.25360994579E+02  0.50528874424E+02  0.30000044299E+02 0.  0.
        -12    1    1    2    0    0 -0.27677541086E+02 -0.15618519969E+02 -0.25360994579E+02  0.40659125576E+02  0.00000000000E+00 0.  1.
         11    1    3    3    0    0  0.16539575349E+02  0.18401700453E+01  0.11547250221E+02  0.20255437948E+02  0.51100000000E-03 0. -1.
        -11    1    3    3    0    0  0.39937747663E+01 -0.45759200355E+01  0.73706440094E+01  0.95506897358E+01  0.51100000000E-03 0.  1.
        -12    1    3    3    0    0  0.71441909705E+01  0.18354269959E+02  0.64431003485E+01  0.20722746740E+02  0.00000000000E+00 0.  1.
</event>
<event>
 7    1  0.2817603E-011  0.5052884E+02  0.7816164E-02  0.1300439E+00
        -11   -1    0    0    0    0  0.00000000000E+00  0.00000000000E+00  0.45593999997E+02  0.45594000000E+02  0.51100000000E-03 0.  1.
         11   -1    0    0    0    0 -0.00000000000E+00 -0.00000000000E+00 -0.45593999997E+02  0.45594000000E+02  0.51100000000E-03 0. -1.
    9900012    2    1    2    0    0 -0.35398746053E+02  0.98052275316E+01 -0.17434256106E+02  0.50528843651E+02  0.29999950762E+02 0.  0.
        -12    1    1    2    0    0  0.35398746053E+02 -0.98052275316E+01  0.17434256106E+02  0.40659156349E+02  0.00000000000E+00 0.  1.
         11    1    3    3    0    0  0.24893114621E+01 -0.13288248646E+01 -0.91631461843E+01  0.95877888657E+01  0.51100000000E-03 0. -1.
        -11    1    3    3    0    0 -0.29775700364E+01 -0.91810722294E+00 -0.11036975219E+00  0.31178559841E+01  0.51100000000E-03 0.  1.
         12    1    3    3    0    0 -0.34910487478E+02  0.12052159619E+02 -0.81607401690E+01  0.37823198801E+02  0.00000000000E+00 0. -1.
</event>
<event>
 7    1  0.2817603E-011  0.5052887E+02  0.7816164E-02  0.1300439E+00
        -11   -1    0    0    0    0  0.00000000000E+00  0.00000000000E+00  0.45593999997E+02  0.45594000000E+02  0.51100000000E-03 0.  1.
         11   -1    0    0    0    0 -0.00000000000E+00 -0.00000000000E+00 -0.45593999997E+02  0.45594000000E+02  0.51100000000E-03 0. -1.
    9900012    2    1    2    0    0 -0.22731559550E+02  0.12974728816E+02 -0.31114262012E+02  0.50528872022E+02  0.30000036998E+02 0.  0.
        -12    1    1    2    0    0  0.22731559550E+02 -0.12974728816E+02  0.31114262012E+02  0.40659127978E+02  0.00000000000E+00 0.  1.
         11    1    3    3    0    0 -0.98435531319E+01  0.38214182615E+01 -0.11955540808E+02  0.15950979031E+02  0.51100000000E-03 0. -1.
        -11    1    3    3    0    0 -0.12013741534E+02 -0.53272940486E+01 -0.13946831244E+02  0.19163093423E+02  0.51100000000E-03 0.  1.
         12    1    3    3    0    0 -0.87426488340E+00  0.14480604603E+02 -0.52118899600E+01  0.15414799567E+02  0.00000000000E+00 0. -1.
</event>
<event>
 7    1  0.3724823E-011  0.5052886E+02  0.7816164E-02  0.1300439E+00
        -11   -1    0    0    0    0  0.00000000000E+00  0.00000000000E+00  0.45593999997E+02  0.45594000000E+02  0.51100000000E-03 0. -1.
         11   -1    0    0    0    0 -0.00000000000E+00 -0.00000000000E+00 -0.45593999997E+02  0.45594000000E+02  0.51100000000E-03 0.  1.
    9900012    2    1    2    0    0 -0.22724395755E+02 -0.25455207550E+02  0.22108813940E+02  0.50528863171E+02  0.30000010095E+02 0.  0.
        -12    1    1    2    0    0  0.22724395755E+02  0.25455207550E+02 -0.22108813940E+02  0.40659136829E+02  0.00000000000E+00 0.  1.
         11    1    3    3    0    0 -0.17077251707E+02 -0.12361868917E+02  0.19047930620E+02  0.28412532273E+02  0.51100000000E-03 0. -1.
        -11    1    3    3    0    0 -0.29480953857E+01 -0.16350281113E+02  0.51564493965E+01  0.17395744581E+02  0.51100000000E-03 0.  1.
        -12    1    3    3    0    0 -0.26990486622E+01  0.32569424800E+01 -0.20955660769E+01  0.47205863176E+01  0.00000000000E+00 0.  1.
</event>
<event>
 7    1  0.2817603E-011  0.5052887E+02  0.7816164E-02  0.1300439E+00
        -11   -1    0    0    0    0  0.00000000000E+00  0.00000000000E+00  0.45593999997E+02  0.45594000000E+02  0.51100000000E-03 0.  1.
         11   -1    0    0    0    0 -0.00000000000E+00 -0.00000000000E+00 -0.45593999997E+02  0.45594000000E+02  0.51100000000E-03 0. -1.
    9900012    2    1    2    0    0  0.23607080474E+02  0.31436500996E+02 -0.10373864763E+02  0.50528869248E+02  0.30000028566E+02 0.  0.
        -12    1    1    2    0    0 -0.23607080474E+02 -0.31436500996E+02  0.10373864763E+02  0.40659130752E+02  0.00000000000E+00 0.  1.
         11    1    3    3    0    0  0.48025716074E+00  0.11522189326E+02 -0.29320377828E+01  0.11899089865E+02  0.51100000000E-03 0. -1.
        -11    1    3    3    0    0  0.29421650023E-01  0.13909753727E+02 -0.11974133599E+01  0.13961228936E+02  0.51100000000E-03 0.  1.
        -12    1    3    3    0    0  0.23097401663E+02  0.60045579432E+01 -0.62444136199E+01  0.24668550447E+02  0.00000000000E+00 0.  1.
</event>
<event>
 7    1  0.2817603E-011  0.5052887E+02  0.7816164E-02  0.1300439E+00
        -11   -1    0    0    0    0  0.00000000000E+00  0.00000000000E+00  0.45593999997E+02  0.45594000000E+02  0.51100000000E-03 0. -1.
         11   -1    0    0    0    0 -0.00000000000E+00 -0.00000000000E+00 -0.45593999997E+02  0.45594000000E+02  0.51100000000E-03 0.  1.
    9900012    2    1    2    0    0 -0.23562351068E+02 -0.31445608104E+02 -0.10447697492E+02  0.50528867696E+02  0.30000023848E+02 0.  0.
        -12    1    1    2    0    0  0.23562351068E+02  0.31445608104E+02  0.10447697492E+02  0.40659132304E+02  0.00000000000E+00 0.  1.
         11    1    3    3    0    0 -0.22735524186E+02 -0.24228717267E+02 -0.42971762545E+01  0.33502246558E+02  0.51100000000E-03 0. -1.
        -11    1    3    3    0    0 -0.38064014717E+01 -0.99899039821E+01 -0.14174387024E+01  0.10784062614E+02  0.51100000000E-03 0.  1.
        -12    1    3    3    0    0  0.29795745895E+01  0.27730131451E+01 -0.47330825349E+01  0.62425585235E+01  0.00000000000E+00 0.  1.
</event>
<event>
 7    1  0.2817603E-011  0.5052884E+02  0.7816164E-02  0.1300439E+00
        -11   -1    0    0    0    0  0.00000000000E+00  0.00000000000E+00  0.45593999997E+02  0.45594000000E+02  0.51100000000E-03 0.  1.
         11   -1    0    0    0    0 -0.00000000000E+00 -0.00000000000E+00 -0.45593999997E+02  0.45594000000E+02  0.51100000000E-03 0. -1.
    9900012    2    1    2    0    0  0.35554467785E+02 -0.48008926422E+01 -0.19131089926E+02  0.50528839268E+02  0.29999937440E+02 0.  0.
        -12    1    1    2    0    0 -0.35554467785E+02  0.48008926422E+01  0.19131089926E+02  0.40659160732E+02  0.00000000000E+00 0.  1.
         11    1    3    3    0    0  0.23377892201E+01  0.64394349286E+01 -0.91882867893E+01  0.11461073031E+02  0.51100000000E-03 0. -1.
        -11    1    3    3    0    0  0.13638258551E+02 -0.23068802332E+01 -0.10771803155E+02  0.17531558293E+02  0.51100000000E-03 0.  1.
        -12    1    3    3    0    0  0.19578420014E+02 -0.89334473375E+01  0.82900001881E+00  0.21536207944E+02  0.00000000000E+00 0.  1.
</event>
<event>
 7    1  0.2817603E-011  0.5052885E+02  0.7816164E-02  0.1300439E+00
        -11   -1    0    0    0    0  0.00000000000E+00  0.00000000000E+00  0.45593999997E+02  0.45594000000E+02  0.51100000000E-03 0. -1.
         11   -1    0    0    0    0 -0.00000000000E+00 -0.00000000000E+00 -0.45593999997E+02  0.45594000000E+02  0.51100000000E-03 0.  1.
    9900012    2    1    2    0    0 -0.28249772778E+00  0.40401919201E+02  0.45575750102E+01  0.50528851336E+02  0.29999974121E+02 0.  0.
        -12    1    1    2    0    0  0.28249772778E+00 -0.40401919201E+02 -0.45575750102E+01  0.40659148664E+02  0.00000000000E+00 0.  1.
         11    1    3    3    0    0  0.22430312798E+01  0.25118041767E+02  0.93229582097E+01  0.26886144416E+02  0.51100000000E-03 0. -1.
        -11    1    3    3    0    0 -0.96544326115E+01  0.11002305579E+02 -0.45338028194E+01  0.15323647260E+02  0.51100000000E-03 0.  1.
         12    1    3    3    0    0  0.71289036039E+01  0.42815718554E+01 -0.23158038005E+00  0.83190596595E+01  0.00000000000E+00 0. -1.
</event>
<event>
 7    1  0.2817603E-011  0.5052886E+02  0.7816164E-02  0.1300439E+00
        -11   -1    0    0    0    0  0.00000000000E+00  0.00000000000E+00  0.45593999997E+02  0.45594000000E+02  0.51100000000E-03 0. -1.
         11   -1    0    0    0    0 -0.00000000000E+00 -0.00000000000E+00 -0.45593999997E+02  0.45594000000E+02  0.51100000000E-03 0.  1.
    9900012    2    1    2    0    0 -0.27287134553E+02 -0.25063264780E+02  0.16745461900E+02  0.50528862678E+02  0.30000008596E+02 0.  0.
        -12    1    1    2    0    0  0.27287134553E+02  0.25063264780E+02 -0.16745461900E+02  0.40659137322E+02  0.00000000000E+00 0.  1.
         11    1    3    3    0    0  0.14657155207E+01 -0.68843821216E+01  0.99918223296E+01  0.12222092820E+02  0.51100000000E-03 0. -1.
        -11    1    3    3    0    0  0.31058288106E+00  0.21109608544E+01 -0.33468283231E+00  0.21597755241E+01  0.51100000000E-03 0.  1.
        -12    1    3    3    0    0 -0.29063432955E+02 -0.20289843513E+02  0.70883224027E+01  0.36146994334E+02  0.00000000000E+00 0.  1.
</event>
<event>
 7    1  0.2817603E-011  0.5052886E+02  0.7816164E-02  0.1300439E+00
        -11   -1    0    0    0    0  0.00000000000E+00  0.00000000000E+00  0.45593999997E+02  0.45594000000E+02  0.51100000000E-03 0. -1.
         11   -1    0    0    0    0 -0.00000000000E+00 -0.00000000000E+00 -0.45593999997E+02  0.45594000000E+02  0.51100000000E-03 0.  1.
    9900012    2    1    2    0    0  0.80415505027E+01  0.14625855596E+02  0.37075370975E+02  0.50528864257E+02  0.30000013396E+02 0.  0.
        -12    1    1    2    0    0 -0.80415505027E+01 -0.14625855596E+02 -0.37075370975E+02  0.40659135743E+02  0.00000000000E+00 0.  1.
         11    1    3    3    0    0  0.16221753784E+01  0.29604576834E+01  0.35976965317E+01  0.49334757777E+01  0.51100000000E-03 0. -1.
        -11    1    3    3    0    0  0.14087553552E+02  0.15928502929E+02  0.28331790888E+02  0.35424098377E+02  0.51100000000E-03 0.  1.
        -12    1    3    3    0    0 -0.76681784280E+01 -0.42631050164E+01  0.51458835558E+01  0.10171290103E+02  0.00000000000E+00 0.  1.
</event>
<event>
 7    1  0.2817603E-011  0.5052886E+02  0.7816164E-02  0.1300439E+00
        -11   -1    0    0    0    0  0.00000000000E+00  0.00000000000E+00  0.45593999997E+02  0.45594000000E+02  0.51100000000E-03 0.  1.
         11   -1    0    0    0    0 -0.00000000000E+00 -0.00000000000E+00 -0.45593999997E+02  0.45594000000E+02  0.51100000000E-03 0. -1.
    9900012    2    1    2    0    0 -0.17654792370E+01  0.14677955674E+00 -0.40620525958E+02  0.50528860926E+02  0.30000003269E+02 0.  0.
        -12    1    1    2    0    0  0.17654792370E+01 -0.14677955674E+00  0.40620525958E+02  0.40659139074E+02  0.00000000000E+00 0.  1.
         11    1    3    3    0    0  0.34706066124E+01  0.46573381917E+00 -0.35509531417E+01  0.49871120625E+01  0.51100000000E-03 0. -1.
        -11    1    3    3    0    0  0.39842846396E+01  0.10958772951E+02 -0.13552061006E+02  0.17878131515E+02  0.51100000000E-03 0.  1.
         12    1    3    3    0    0 -0.92203704890E+01 -0.11277727213E+02 -0.23517511810E+02  0.27663617348E+02  0.00000000000E+00 0. -1.
</event>
<event>
 7    1  0.2817603E-011  0.5052884E+02  0.7816164E-02  0.1300439E+00
        -11   -1    0    0    0    0  0.00000000000E+00  0.00000000000E+00  0.45593999997E+02  0.45594000000E+02  0.51100000000E-03 0.  1.
         11   -1    0    0    0    0 -0.00000000000E+00 -0.00000000000E+00 -0.45593999997E+02  0.45594000000E+02  0.51100000000E-03 0. -1.
    9900012    2    1    2    0    0 -0.27722554695E+02 -0.28673381854E+02 -0.79034421612E+01  0.50528840347E+02  0.29999940717E+02 0.  0.
        -12    1    1    2    0    0  0.27722554695E+02  0.28673381854E+02  0.79034421612E+01  0.40659159653E+02  0.00000000000E+00 0.  1.
         11    1    3    3    0    0 -0.21755379813E+01 -0.40771063288E+01  0.28922825752E+01  0.54517025121E+01  0.51100000000E-03 0. -1.
        -11    1    3    3    0    0 -0.16172786710E+02 -0.12848227965E+01  0.28698298159E+01  0.16475609944E+02  0.51100000000E-03 0.  1.
         12    1    3    3    0    0 -0.93742300033E+01 -0.23311452728E+02 -0.13665554552E+02  0.28601527891E+02  0.00000000000E+00 0. -1.
</event>
<event>
 7    1  0.2817603E-011  0.5052886E+02  0.7816164E-02  0.1300439E+00
        -11   -1    0    0    0    0  0.00000000000E+00  0.00000000000E+00  0.45593999997E+02  0.45594000000E+02  0.51100000000E-03 0. -1.
         11   -1    0    0    0    0 -0.00000000000E+00 -0.00000000000E+00 -0.45593999997E+02  0.45594000000E+02  0.51100000000E-03 0.  1.
    9900012    2    1    2    0    0 -0.25257505708E+02  0.24126691100E+02  0.20811700433E+02  0.50528859663E+02  0.29999999433E+02 0.  0.
        -12    1    1    2    0    0  0.25257505708E+02 -0.24126691100E+02 -0.20811700433E+02  0.40659140337E+02  0.00000000000E+00 0.  1.
         11    1    3    3    0    0 -0.12572390188E+02  0.18869860071E+02  0.20433515508E+02  0.30523190699E+02  0.51100000000E-03 0. -1.
        -11    1    3    3    0    0 -0.90204672112E+01  0.73359619737E+01  0.59174131876E+01  0.13046108457E+02  0.51100000000E-03 0.  1.
         12    1    3    3    0    0 -0.36646483080E+01 -0.20791309446E+01 -0.55392282630E+01  0.69595605074E+01  0.00000000000E+00 0. -1.
</event>
<event>
 7    1  0.2817603E-011  0.5052885E+02  0.7816164E-02  0.1300439E+00
        -11   -1    0    0    0    0  0.00000000000E+00  0.00000000000E+00  0.45593999997E+02  0.45594000000E+02  0.51100000000E-03 0. -1.
         11   -1    0    0    0    0 -0.00000000000E+00 -0.00000000000E+00 -0.45593999997E+02  0.45594000000E+02  0.51100000000E-03 0.  1.
    9900012    2    1    2    0    0 -0.44831750412E+01  0.38499657264E+02  0.12281846926E+02  0.50528853036E+02  0.29999979288E+02 0.  0.
        -12    1    1    2    0    0  0.44831750412E+01 -0.38499657264E+02 -0.12281846926E+02  0.40659146964E+02  0.00000000000E+00 0.  1.
         11    1    3    3    0    0  0.65773708032E+00  0.18542289906E+01 -0.42261975149E+01  0.46617087975E+01  0.51100000000E-03 0. -1.
        -11    1    3    3    0    0 -0.16394955727E-01 -0.23104981132E+01  0.40237109699E+01  0.46399267835E+01  0.51100000000E-03 0.  1.
         12    1    3    3    0    0 -0.51245171658E+01  0.38955926387E+02  0.12484333471E+02  0.41227217455E+02  0.00000000000E+00 0. -1.
</event>
<event>
 7    1  0.2817603E-011  0.5052886E+02  0.7816164E-02  0.1300439E+00
        -11   -1    0    0    0    0  0.00000000000E+00  0.00000000000E+00  0.45593999997E+02  0.45594000000E+02  0.51100000000E-03 0.  1.
         11   -1    0    0    0    0 -0.00000000000E+00 -0.00000000000E+00 -0.45593999997E+02  0.45594000000E+02  0.51100000000E-03 0. -1.
    9900012    2    1    2    0    0 -0.19778215887E+02  0.33496387814E+02 -0.11831304198E+02  0.50528861060E+02  0.30000003679E+02 0.  0.
        -12    1    1    2    0    0  0.19778215887E+02 -0.33496387814E+02  0.11831304198E+02  0.40659138940E+02  0.00000000000E+00 0.  1.
         11    1    3    3    0    0 -0.24565860516E+01  0.85196091743E+01 -0.15141075904E+02  0.17546245618E+02  0.51100000000E-03 0. -1.
        -11    1    3    3    0    0 -0.11643808574E+01 -0.14071152576E+01 -0.23761834619E+00  0.18417977274E+01  0.51100000000E-03 0.  1.
         12    1    3    3    0    0 -0.16157248978E+02  0.26383893898E+02  0.35473900516E+01  0.31140817714E+02  0.00000000000E+00 0. -1.
</event>
<event>
 7    1  0.2817603E-011  0.5052886E+02  0.7816164E-02  0.1300439E+00
        -11   -1    0    0    0    0  0.00000000000E+00  0.00000000000E+00  0.45593999997E+02  0.45594000000E+02  0.51100000000E-03 0.  1.
         11   -1    0    0    0    0 -0.00000000000E+00 -0.00000000000E+00 -0.45593999997E+02  0.45594000000E+02  0.51100000000E-03 0. -1.
    9900012    2    1    2    0    0 -0.10650823102E+02 -0.13149961540E+02 -0.36970311879E+02  0.50528862261E+02  0.30000007329E+02 0.  0.
        -12    1    1    2    0    0  0.10650823102E+02  0.13149961540E+02  0.36970311879E+02  0.40659137739E+02  0.00000000000E+00 0.  1.
         11    1    3    3    0    0 -0.25734727177E+01 -0.13432859805E+02 -0.12528215410E+02  0.18547794100E+02  0.51100000000E-03 0. -1.
        -11    1    3    3    0    0 -0.16667754927E+01  0.22880946484E+01  0.27649966256E+01  0.39571105954E+01  0.51100000000E-03 0.  1.
        -12    1    3    3    0    0 -0.64105748921E+01 -0.20051963833E+01 -0.27207093094E+02  0.28023957565E+02  0.00000000000E+00 0.  1.
</event>
<event>
 7    1  0.2817603E-011  0.5052887E+02  0.7816164E-02  0.1300439E+00
        -11   -1    0    0    0    0  0.00000000000E+00  0.00000000000E+00  0.45593999997E+02  0.45594000000E+02  0.51100000000E-03 0.  1.
         11   -1    0    0    0    0 -0.00000000000E+00 -0.00000000000E+00 -0.45593999997E+02  0.45594000000E+02  0.51100000000E-03 0. -1.
    9900012    2    1    2    0    0  0.79993114276E+01  0.13784506204E+02 -0.37405389312E+02  0.50528871330E+02  0.30000034895E+02 0.  0.
        -12    1    1    2    0    0 -0.79993114276E+01 -0.13784506204E+02  0.37405389312E+02  0.40659128670E+02  0.00000000000E+00 0.  1.
         11    1    3    3    0    0  0.17179409215E+02  0.14432371358E+02 -0.19061923265E+02  0.29441167824E+02  0.51100000000E-03 0. -1.
        -11    1    3    3    0    0  0.24742574366E+00 -0.89368625675E+00 -0.22660774085E+01  0.24484692579E+01  0.51100000000E-03 0.  1.
         12    1    3    3    0    0 -0.94275235314E+01  0.24582110270E+00 -0.16077388638E+02  0.18639234249E+02  0.00000000000E+00 0. -1.
</event>
<event>
 7    1  0.2817603E-011  0.5052886E+02  0.7816164E-02  0.1300439E+00
        -11   -1    0    0    0    0  0.00000000000E+00  0.00000000000E+00  0.45593999997E+02  0.45594000000E+02  0.51100000000E-03 0. -1.
         11   -1    0    0    0    0 -0.00000000000E+00 -0.00000000000E+00 -0.45593999997E+02  0.45594000000E+02  0.51100000000E-03 0.  1.
    9900012    2    1    2    0    0 -0.19035542773E+02  0.25585106919E+02  0.25223327202E+02  0.50528858102E+02  0.29999994688E+02 0.  0.
        -12    1    1    2    0    0  0.19035542773E+02 -0.25585106919E+02 -0.25223327202E+02  0.40659141898E+02  0.00000000000E+00 0.  1.
         11    1    3    3    0    0 -0.73639800783E+01  0.46059953866E+01  0.56364489000E+01  0.10354368767E+02  0.51100000000E-03 0. -1.
        -11    1    3    3    0    0  0.22893453525E+00  0.13824352224E+02 -0.25340311365E+01  0.14056544366E+02  0.51100000000E-03 0.  1.
         12    1    3    3    0    0 -0.11900497230E+02  0.71547593078E+01  0.22120909438E+02  0.26117944970E+02  0.00000000000E+00 0. -1.
</event>
<event>
 7    1  0.2817603E-011  0.5052889E+02  0.7816164E-02  0.1300439E+00
        -11   -1    0    0    0    0  0.00000000000E+00  0.00000000000E+00  0.45593999997E+02  0.45594000000E+02  0.51100000000E-03 0.  1.
         11   -1    0    0    0    0 -0.00000000000E+00 -0.00000000000E+00 -0.45593999997E+02  0.45594000000E+02  0.51100000000E-03 0. -1.
    9900012    2    1    2    0    0  0.35542271664E+02  0.18495002929E+02 -0.69170181314E+01  0.50528888497E+02  0.30000087075E+02 0.  0.
        -12    1    1    2    0    0 -0.35542271664E+02 -0.18495002929E+02  0.69170181314E+01  0.40659111503E+02  0.00000000000E+00 0.  1.
         11    1    3    3    0    0  0.56779125453E+00  0.30087438360E+01 -0.23824315599E+01  0.38795498164E+01  0.51100000000E-03 0. -1.
        -11    1    3    3    0    0  0.25664833395E+02  0.85583077953E+01  0.92854658002E+01  0.28603289687E+02  0.51100000000E-03 0.  1.
         12    1    3    3    0    0  0.93096470146E+01  0.69279512974E+01 -0.13820052372E+02  0.18046048993E+02  0.00000000000E+00 0. -1.
</event>
<event>
 7    1  0.2817603E-011  0.5052886E+02  0.7816164E-02  0.1300439E+00
        -11   -1    0    0    0    0  0.00000000000E+00  0.00000000000E+00  0.45593999997E+02  0.45594000000E+02  0.51100000000E-03 0.  1.
         11   -1    0    0    0    0 -0.00000000000E+00 -0.00000000000E+00 -0.45593999997E+02  0.45594000000E+02  0.51100000000E-03 0. -1.
    9900012    2    1    2    0    0  0.93509851157E+01 -0.17873696847E+02 -0.35302346746E+02  0.50528860224E+02  0.30000001135E+02 0.  0.
        -12    1    1    2    0    0 -0.93509851157E+01  0.17873696847E+02  0.35302346746E+02  0.40659139776E+02  0.00000000000E+00 0.  1.
         11    1    3    3    0    0  0.76628074913E+01 -0.36792086768E+00 -0.12561084037E+02  0.14718519520E+02  0.51100000000E-03 0.  1.
        -11    1    3    3    0    0 -0.49154620026E+01 -0.13922830813E+02 -0.35284542391E+01  0.15180809403E+02  0.51100000000E-03 0. -1.
         12    1    3    3    0    0  0.66036396270E+01 -0.35829451661E+01 -0.19212808469E+02  0.20629531300E+02  0.00000000000E+00 0. -1.
</event>
<event>
 7    1  0.2817603E-011  0.5052885E+02  0.7816164E-02  0.1300439E+00
        -11   -1    0    0    0    0  0.00000000000E+00  0.00000000000E+00  0.45593999997E+02  0.45594000000E+02  0.51100000000E-03 0.  1.
         11   -1    0    0    0    0 -0.00000000000E+00 -0.00000000000E+00 -0.45593999997E+02  0.45594000000E+02  0.51100000000E-03 0. -1.
    9900012    2    1    2    0    0  0.29123325904E+02  0.12920085885E+02 -0.25260042179E+02  0.50528850208E+02  0.29999970691E+02 0.  0.
        -12    1    1    2    0    0 -0.29123325904E+02 -0.12920085885E+02  0.25260042179E+02  0.40659149792E+02  0.00000000000E+00 0.  1.
         11    1    3    3    0    0 -0.36504968203E+01  0.51000494380E+01 -0.48697160135E+01  0.79404512226E+01  0.51100000000E-03 0. -1.
        -11    1    3    3    0    0  0.67720961690E+01 -0.46452589456E+01 -0.70218912090E+01  0.10804937464E+02  0.51100000000E-03 0.  1.
         12    1    3    3    0    0  0.26001726555E+02  0.12465295393E+02 -0.13368434956E+02  0.31783461521E+02  0.00000000000E+00 0. -1.
</event>
<event>
 7    1  0.2817603E-011  0.5052886E+02  0.7816164E-02  0.1300439E+00
        -11   -1    0    0    0    0  0.00000000000E+00  0.00000000000E+00  0.45593999997E+02  0.45594000000E+02  0.51100000000E-03 0.  1.
         11   -1    0    0    0    0 -0.00000000000E+00 -0.00000000000E+00 -0.45593999997E+02  0.45594000000E+02  0.51100000000E-03 0. -1.
    9900012    2    1    2    0    0 -0.21297802889E+02 -0.26300332258E+02 -0.22535792169E+02  0.50528858181E+02  0.29999994927E+02 0.  0.
        -12    1    1    2    0    0  0.21297802889E+02  0.26300332258E+02  0.22535792169E+02  0.40659141819E+02  0.00000000000E+00 0.  1.
         11    1    3    3    0    0 -0.15148965186E+00  0.21502096501E+01 -0.18443970338E+01  0.28369263884E+01  0.51100000000E-03 0. -1.
        -11    1    3    3    0    0 -0.38001210782E+01  0.34423297219E+01 -0.74576931856E+01  0.90502896106E+01  0.51100000000E-03 0.  1.
         12    1    3    3    0    0 -0.17346192159E+02 -0.31892871630E+02 -0.13233701950E+02  0.38641642182E+02  0.00000000000E+00 0. -1.
</event>
<event>
 7    1  0.2817603E-011  0.5052887E+02  0.7816164E-02  0.1300439E+00
        -11   -1    0    0    0    0  0.00000000000E+00  0.00000000000E+00  0.45593999997E+02  0.45594000000E+02  0.51100000000E-03 0.  1.
         11   -1    0    0    0    0 -0.00000000000E+00 -0.00000000000E+00 -0.45593999997E+02  0.45594000000E+02  0.51100000000E-03 0. -1.
    9900012    2    1    2    0    0  0.18027023611E+02 -0.35428653785E+02  0.85441296683E+01  0.50528865220E+02  0.30000016322E+02 0.  0.
        -12    1    1    2    0    0 -0.18027023611E+02  0.35428653785E+02 -0.85441296683E+01  0.40659134780E+02  0.00000000000E+00 0.  1.
         11    1    3    3    0    0  0.11190001856E+02 -0.21370714611E+02  0.14921480445E+02  0.28365016543E+02  0.51100000000E-03 0.  1.
        -11    1    3    3    0    0  0.44016307960E+01 -0.25604093244E+01  0.40078578148E+01  0.64801986156E+01  0.51100000000E-03 0. -1.
         12    1    3    3    0    0  0.24353909590E+01 -0.11497529850E+02 -0.10385208591E+02  0.15683650061E+02  0.00000000000E+00 0. -1.
</event>
<event>
 7    1  0.2817603E-011  0.5052886E+02  0.7816164E-02  0.1300439E+00
        -11   -1    0    0    0    0  0.00000000000E+00  0.00000000000E+00  0.45593999997E+02  0.45594000000E+02  0.51100000000E-03 0.  1.
         11   -1    0    0    0    0 -0.00000000000E+00 -0.00000000000E+00 -0.45593999997E+02  0.45594000000E+02  0.51100000000E-03 0. -1.
    9900012    2    1    2    0    0 -0.32923699026E+02 -0.23795768900E+02  0.17195053228E+01  0.50528864819E+02  0.30000015103E+02 0.  0.
        -12    1    1    2    0    0  0.32923699026E+02  0.23795768900E+02 -0.17195053228E+01  0.40659135181E+02  0.00000000000E+00 0.  1.
         11    1    3    3    0    0  0.30727657962E+01 -0.74000081572E+01 -0.35375184429E+01  0.87587697401E+01  0.51100000000E-03 0. -1.
        -11    1    3    3    0    0 -0.87680653578E+01 -0.34944461957E+01  0.67482970627E+01  0.11603001243E+02  0.51100000000E-03 0.  1.
         12    1    3    3    0    0 -0.27228399465E+02 -0.12901314547E+02 -0.14912732970E+01  0.30167093836E+02  0.00000000000E+00 0. -1.
</event>
<event>
 7    1  0.2817603E-011  0.5052886E+02  0.7816164E-02  0.1300439E+00
        -11   -1    0    0    0    0  0.00000000000E+00  0.00000000000E+00  0.45593999997E+02  0.45594000000E+02  0.51100000000E-03 0.  1.
         11   -1    0    0    0    0 -0.00000000000E+00 -0.00000000000E+00 -0.45593999997E+02  0.45594000000E+02  0.51100000000E-03 0. -1.
    9900012    2    1    2    0    0  0.32624812056E+02  0.16441647188E+02 -0.17845439307E+02  0.50528858002E+02  0.29999994384E+02 0.  0.
        -12    1    1    2    0    0 -0.32624812056E+02 -0.16441647188E+02  0.17845439307E+02  0.40659141998E+02  0.00000000000E+00 0.  1.
         11    1    3    3    0    0  0.13763391663E+02  0.16706154357E+02 -0.61142270276E+01  0.22492450197E+02  0.51100000000E-03 0.  1.
        -11    1    3    3    0    0  0.34497182799E+01  0.20397905338E+01 -0.11790795502E+02  0.12453279105E+02  0.51100000000E-03 0. -1.
        -12    1    3    3    0    0  0.15411702113E+02 -0.23042977030E+01  0.59583222994E-01  0.15583128700E+02  0.00000000000E+00 0.  1.
</event>
<event>
 7    1  0.2817603E-011  0.5052886E+02  0.7816164E-02  0.1300439E+00
        -11   -1    0    0    0    0  0.00000000000E+00  0.00000000000E+00  0.45593999997E+02  0.45594000000E+02  0.51100000000E-03 0.  1.
         11   -1    0    0    0    0 -0.00000000000E+00 -0.00000000000E+00 -0.45593999997E+02  0.45594000000E+02  0.51100000000E-03 0. -1.
    9900012    2    1    2    0    0 -0.19054679651E+01  0.18242853362E+02 -0.36286819274E+02  0.50528858839E+02  0.29999996926E+02 0.  0.
        -12    1    1    2    0    0  0.19054679651E+01 -0.18242853362E+02  0.36286819274E+02  0.40659141161E+02  0.00000000000E+00 0.  1.
         11    1    3    3    0    0 -0.93427855570E+00  0.54938962025E+01 -0.49700888949E+00  0.55948896326E+01  0.51100000000E-03 0. -1.
        -11    1    3    3    0    0 -0.80765411791E+01  0.42653057263E+01 -0.19618141319E+01  0.93419519002E+01  0.51100000000E-03 0.  1.
         12    1    3    3    0    0  0.71053517698E+01  0.84836514333E+01 -0.33827996253E+02  0.35592017306E+02  0.00000000000E+00 0. -1.
</event>
<event>
 7    1  0.2817603E-011  0.5052885E+02  0.7816164E-02  0.1300439E+00
        -11   -1    0    0    0    0  0.00000000000E+00  0.00000000000E+00  0.45593999997E+02  0.45594000000E+02  0.51100000000E-03 0. -1.
         11   -1    0    0    0    0 -0.00000000000E+00 -0.00000000000E+00 -0.45593999997E+02  0.45594000000E+02  0.51100000000E-03 0.  1.
    9900012    2    1    2    0    0  0.26163040929E+02 -0.21080683984E+02  0.22896862319E+02  0.50528852789E+02  0.29999978538E+02 0.  0.
        -12    1    1    2    0    0 -0.26163040929E+02  0.21080683984E+02 -0.22896862319E+02  0.40659147211E+02  0.00000000000E+00 0.  1.
         11    1    3    3    0    0  0.16657370708E+02 -0.14665946077E+02  0.17658398894E+02  0.28361541302E+02  0.51100000000E-03 0. -1.
        -11    1    3    3    0    0  0.11291710408E+02 -0.48374157360E+01 -0.37694273570E+01  0.12849587456E+02  0.51100000000E-03 0.  1.
         12    1    3    3    0    0 -0.17860401872E+01 -0.15773221702E+01  0.90078907823E+01  0.93177240314E+01  0.00000000000E+00 0. -1.
</event>
<event>
 7    1  0.2817603E-011  0.5052882E+02  0.7816164E-02  0.1300439E+00
        -11   -1    0    0    0    0  0.00000000000E+00  0.00000000000E+00  0.45593999997E+02  0.45594000000E+02  0.51100000000E-03 0.  1.
         11   -1    0    0    0    0 -0.00000000000E+00 -0.00000000000E+00 -0.45593999997E+02  0.45594000000E+02  0.51100000000E-03 0. -1.
    9900012    2    1    2    0    0 -0.24861983049E+02  0.21937902967E+02 -0.23532518055E+02  0.50528816612E+02  0.29999868575E+02 0.  0.
        -12    1    1    2    0    0  0.24861983049E+02 -0.21937902967E+02  0.23532518055E+02  0.40659183388E+02  0.00000000000E+00 0.  1.
         11    1    3    3    0    0 -0.19239945643E+02  0.73482404295E+01 -0.79980212561E+01  0.22093901648E+02  0.51100000000E-03 0. -1.
        -11    1    3    3    0    0 -0.84603912967E+01  0.91993587884E+01 -0.17957574852E+02  0.21878777796E+02  0.51100000000E-03 0.  1.
        -12    1    3    3    0    0  0.28383538907E+01  0.53903037495E+01  0.24230780532E+01  0.65561371685E+01  0.00000000000E+00 0.  1.
</event>
<event>
 7    1  0.2817603E-011  0.5052886E+02  0.7816164E-02  0.1300439E+00
        -11   -1    0    0    0    0  0.00000000000E+00  0.00000000000E+00  0.45593999997E+02  0.45594000000E+02  0.51100000000E-03 0. -1.
         11   -1    0    0    0    0 -0.00000000000E+00 -0.00000000000E+00 -0.45593999997E+02  0.45594000000E+02  0.51100000000E-03 0.  1.
    9900012    2    1    2    0    0  0.21963497334E+02  0.18171708952E+02  0.28992396921E+02  0.50528864487E+02  0.30000014096E+02 0.  0.
        -12    1    1    2    0    0 -0.21963497334E+02 -0.18171708952E+02 -0.28992396921E+02  0.40659135513E+02  0.00000000000E+00 0.  1.
         11    1    3    3    0    0  0.10502064351E+02  0.98657502087E+01  0.54836677762E+01  0.15417425056E+02  0.51100000000E-03 0. -1.
        -11    1    3    3    0    0  0.15572492807E+02  0.75925882922E+01  0.80577632612E+01  0.19107000765E+02  0.51100000000E-03 0.  1.
         12    1    3    3    0    0 -0.41110598239E+01  0.71337045106E+00  0.15450965884E+02  0.16004438666E+02  0.00000000000E+00 0. -1.
</event>
<event>
 7    1  0.2817603E-011  0.5052884E+02  0.7816164E-02  0.1300439E+00
        -11   -1    0    0    0    0  0.00000000000E+00  0.00000000000E+00  0.45593999997E+02  0.45594000000E+02  0.51100000000E-03 0.  1.
         11   -1    0    0    0    0 -0.00000000000E+00 -0.00000000000E+00 -0.45593999997E+02  0.45594000000E+02  0.51100000000E-03 0. -1.
    9900012    2    1    2    0    0 -0.27586257658E+02  0.13388871956E+02 -0.26700259416E+02  0.50528839203E+02  0.29999937241E+02 0.  0.
        -12    1    1    2    0    0  0.27586257658E+02 -0.13388871956E+02  0.26700259416E+02  0.40659160797E+02  0.00000000000E+00 0.  1.
         11    1    3    3    0    0 -0.19534892069E+02  0.54184557474E+01 -0.75061901901E+01  0.21617459663E+02  0.51100000000E-03 0.  1.
        -11    1    3    3    0    0 -0.11681114725E+02 -0.42009148213E+00 -0.68409790346E+01  0.13543408452E+02  0.51100000000E-03 0. -1.
         12    1    3    3    0    0  0.36297491359E+01  0.83905076904E+01 -0.12353090191E+02  0.15367971088E+02  0.00000000000E+00 0. -1.
</event>
<event>
 7    1  0.2817603E-011  0.5052886E+02  0.7816164E-02  0.1300439E+00
        -11   -1    0    0    0    0  0.00000000000E+00  0.00000000000E+00  0.45593999997E+02  0.45594000000E+02  0.51100000000E-03 0. -1.
         11   -1    0    0    0    0 -0.00000000000E+00 -0.00000000000E+00 -0.45593999997E+02  0.45594000000E+02  0.51100000000E-03 0.  1.
    9900012    2    1    2    0    0  0.34389578361E+02  0.11253998718E+02  0.18543735836E+02  0.50528859259E+02  0.29999998205E+02 0.  0.
        -12    1    1    2    0    0 -0.34389578361E+02 -0.11253998718E+02 -0.18543735836E+02  0.40659140741E+02  0.00000000000E+00 0.  1.
         11    1    3    3    0    0  0.23652230397E+02  0.51620867412E+01  0.78561800197E+01  0.25451811468E+02  0.51100000000E-03 0. -1.
        -11    1    3    3    0    0  0.10730769741E+02  0.81444720268E+01 -0.71571613920E+00  0.13490518659E+02  0.51100000000E-03 0.  1.
         12    1    3    3    0    0  0.65782232096E-02 -0.20525600496E+01  0.11403271956E+02  0.11586529132E+02  0.00000000000E+00 0. -1.
</event>
<event>
 7    1  0.2817603E-011  0.5052886E+02  0.7816164E-02  0.1300439E+00
        -11   -1    0    0    0    0  0.00000000000E+00  0.00000000000E+00  0.45593999997E+02  0.45594000000E+02  0.51100000000E-03 0. -1.
         11   -1    0    0    0    0 -0.00000000000E+00 -0.00000000000E+00 -0.45593999997E+02  0.45594000000E+02  0.51100000000E-03 0.  1.
    9900012    2    1    2    0    0 -0.14102097459E+02 -0.36576803014E+02  0.10790445408E+02  0.50528863468E+02  0.30000010997E+02 0.  0.
        -12    1    1    2    0    0  0.14102097459E+02  0.36576803014E+02 -0.10790445408E+02  0.40659136532E+02  0.00000000000E+00 0.  1.
         11    1    3    3    0    0  0.46295738607E+01 -0.13798116446E+02  0.36442484333E+01  0.15003383568E+02  0.51100000000E-03 0. -1.
        -11    1    3    3    0    0  0.21815166814E+01 -0.14670586809E+01  0.49268080936E+01  0.55843275743E+01  0.51100000000E-03 0.  1.
        -12    1    3    3    0    0 -0.20913188002E+02 -0.21311627887E+02  0.22193888812E+01  0.29941152326E+02  0.00000000000E+00 0.  1.
</event>
<event>
 7    1  0.2817603E-011  0.5052898E+02  0.7816164E-02  0.1300438E+00
        -11   -1    0    0    0    0  0.00000000000E+00  0.00000000000E+00  0.45593999997E+02  0.45594000000E+02  0.51100000000E-03 0. -1.
         11   -1    0    0    0    0 -0.00000000000E+00 -0.00000000000E+00 -0.45593999997E+02  0.45594000000E+02  0.51100000000E-03 0.  1.
    9900012    2    1    2    0    0  0.34515155449E+02 -0.97939138642E+01  0.19129531626E+02  0.50528982738E+02  0.30000373529E+02 0.  0.
        -12    1    1    2    0    0 -0.34515155449E+02  0.97939138642E+01 -0.19129531626E+02  0.40659017262E+02  0.00000000000E+00 0.  1.
         11    1    3    3    0    0  0.11337780096E+02 -0.70111123777E+01  0.97869144570E+01  0.16537371289E+02  0.51100000000E-03 0. -1.
        -11    1    3    3    0    0  0.13915491320E+02 -0.12771241267E+02  0.71438620490E+01  0.20193569952E+02  0.51100000000E-03 0.  1.
        -12    1    3    3    0    0  0.92618840333E+01  0.99884397804E+01  0.21987551197E+01  0.13798041498E+02  0.00000000000E+00 0.  1.
</event>
<event>
 7    1  0.2817603E-011  0.5052885E+02  0.7816164E-02  0.1300439E+00
        -11   -1    0    0    0    0  0.00000000000E+00  0.00000000000E+00  0.45593999997E+02  0.45594000000E+02  0.51100000000E-03 0.  1.
         11   -1    0    0    0    0 -0.00000000000E+00 -0.00000000000E+00 -0.45593999997E+02  0.45594000000E+02  0.51100000000E-03 0. -1.
    9900012    2    1    2    0    0 -0.10685273679E+02  0.36404471245E+02 -0.14618673636E+02  0.50528853193E+02  0.29999979765E+02 0.  0.
        -12    1    1    2    0    0  0.10685273679E+02 -0.36404471245E+02  0.14618673636E+02  0.40659146807E+02  0.00000000000E+00 0.  1.
         11    1    3    3    0    0  0.10543443318E+01  0.12976216462E+02 -0.99182158003E+01  0.16366576935E+02  0.51100000000E-03 0. -1.
        -11    1    3    3    0    0  0.20453718756E+01  0.17502370237E+02 -0.70409938495E+01  0.18976092977E+02  0.51100000000E-03 0.  1.
        -12    1    3    3    0    0 -0.13784989886E+02  0.59258845454E+01  0.23405360135E+01  0.15186183281E+02  0.00000000000E+00 0.  1.
</event>
<event>
 7    1  0.2817603E-011  0.5052888E+02  0.7816164E-02  0.1300439E+00
        -11   -1    0    0    0    0  0.00000000000E+00  0.00000000000E+00  0.45593999997E+02  0.45594000000E+02  0.51100000000E-03 0.  1.
         11   -1    0    0    0    0 -0.00000000000E+00 -0.00000000000E+00 -0.45593999997E+02  0.45594000000E+02  0.51100000000E-03 0. -1.
    9900012    2    1    2    0    0  0.12014690564E+02 -0.21885796501E+02 -0.32090853053E+02  0.50528883833E+02  0.30000072898E+02 0.  0.
        -12    1    1    2    0    0 -0.12014690564E+02  0.21885796501E+02  0.32090853053E+02  0.40659116167E+02  0.00000000000E+00 0.  1.
         11    1    3    3    0    0  0.10089815698E+02 -0.83817199229E+01 -0.68307766932E+01  0.14789087875E+02  0.51100000000E-03 0. -1.
        -11    1    3    3    0    0 -0.32370351605E+01 -0.17916033557E+02 -0.15872088712E+02  0.24153381863E+02  0.51100000000E-03 0.  1.
        -12    1    3    3    0    0  0.51619100268E+01  0.44119569790E+01 -0.93879876472E+01  0.11586414095E+02  0.00000000000E+00 0.  1.
</event>
<event>
 7    1  0.2817603E-011  0.5052887E+02  0.7816164E-02  0.1300439E+00
        -11   -1    0    0    0    0  0.00000000000E+00  0.00000000000E+00  0.45593999997E+02  0.45594000000E+02  0.51100000000E-03 0.  1.
         11   -1    0    0    0    0 -0.00000000000E+00 -0.00000000000E+00 -0.45593999997E+02  0.45594000000E+02  0.51100000000E-03 0. -1.
    9900012    2    1    2    0    0  0.20319330359E+02  0.27232538846E+02 -0.22331110965E+02  0.50528869719E+02  0.30000029999E+02 0.  0.
        -12    1    1    2    0    0 -0.20319330359E+02 -0.27232538846E+02  0.22331110965E+02  0.40659130281E+02  0.00000000000E+00 0.  1.
         11    1    3    3    0    0  0.13693273986E+02  0.19465521863E+02 -0.61835605856E+01  0.24589605846E+02  0.51100000000E-03 0. -1.
        -11    1    3    3    0    0  0.80853563918E+01 -0.23225794219E+01 -0.22582760918E+01  0.87101764805E+01  0.51100000000E-03 0.  1.
         12    1    3    3    0    0 -0.14593000190E+01  0.10089596405E+02 -0.13889274288E+02  0.17229087393E+02  0.00000000000E+00 0. -1.
</event>
<event>
 7    1  0.2817603E-011  0.5052886E+02  0.7816164E-02  0.1300439E+00
        -11   -1    0    0    0    0  0.00000000000E+00  0.00000000000E+00  0.45593999997E+02  0.45594000000E+02  0.51100000000E-03 0.  1.
         11   -1    0    0    0    0 -0.00000000000E+00 -0.00000000000E+00 -0.45593999997E+02  0.45594000000E+02  0.51100000000E-03 0. -1.
    9900012    2    1    2    0    0  0.33044440105E+02  0.19211500547E+02 -0.13861788353E+02  0.50528856484E+02  0.29999989769E+02 0.  0.
        -12    1    1    2    0    0 -0.33044440105E+02 -0.19211500547E+02  0.13861788353E+02  0.40659143516E+02  0.00000000000E+00 0.  1.
         11    1    3    3    0    0  0.19031804558E+02  0.78518787020E+01  0.75326578105E+00  0.20601674531E+02  0.51100000000E-03 0.  1.
        -11    1    3    3    0    0  0.82641125691E+01 -0.42957515551E+01 -0.66570755699E+01  0.11448392611E+02  0.51100000000E-03 0. -1.
         12    1    3    3    0    0  0.57485229778E+01  0.15655373400E+02 -0.79579785639E+01  0.18478789342E+02  0.00000000000E+00 0. -1.
</event>
<event>
 7    1  0.2817603E-011  0.5052873E+02  0.7816164E-02  0.1300439E+00
        -11   -1    0    0    0    0  0.00000000000E+00  0.00000000000E+00  0.45593999997E+02  0.45594000000E+02  0.51100000000E-03 0.  1.
         11   -1    0    0    0    0 -0.00000000000E+00 -0.00000000000E+00 -0.45593999997E+02  0.45594000000E+02  0.51100000000E-03 0. -1.
    9900012    2    1    2    0    0 -0.39684094904E+02 -0.41876523415E+01  0.77982236732E+01  0.50528731525E+02  0.29999609942E+02 0.  0.
        -12    1    1    2    0    0  0.39684094904E+02  0.41876523415E+01 -0.77982236732E+01  0.40659268475E+02  0.00000000000E+00 0.  1.
         11    1    3    3    0    0 -0.20567911974E+02 -0.51918723535E+01  0.67235791360E+00  0.21223727451E+02  0.51100000000E-03 0. -1.
        -11    1    3    3    0    0 -0.12088358904E+02  0.56785123218E+01  0.13299275039E+02  0.18847934635E+02  0.51100000000E-03 0.  1.
         12    1    3    3    0    0 -0.70278240257E+01 -0.46742923098E+01 -0.61734092790E+01  0.10457069439E+02  0.00000000000E+00 0. -1.
</event>
<event>
 7    1  0.2817603E-011  0.5052884E+02  0.7816164E-02  0.1300439E+00
        -11   -1    0    0    0    0  0.00000000000E+00  0.00000000000E+00  0.45593999997E+02  0.45594000000E+02  0.51100000000E-03 0. -1.
         11   -1    0    0    0    0 -0.00000000000E+00 -0.00000000000E+00 -0.45593999997E+02  0.45594000000E+02  0.51100000000E-03 0.  1.
    9900012    2    1    2    0    0 -0.34506517815E+02  0.42502540043E+01  0.21080864738E+02  0.50528840037E+02  0.29999939777E+02 0.  0.
        -12    1    1    2    0    0  0.34506517815E+02 -0.42502540043E+01 -0.21080864738E+02  0.40659159963E+02  0.00000000000E+00 0.  1.
         11    1    3    3    0    0 -0.40759877528E+01 -0.57936316014E+01 -0.67987091030E+00  0.71163240517E+01  0.51100000000E-03 0. -1.
        -11    1    3    3    0    0  0.13486534613E+00 -0.28157604028E+01 -0.12155942461E+01  0.30699128555E+01  0.51100000000E-03 0.  1.
         12    1    3    3    0    0 -0.30565395408E+02  0.12859646009E+02  0.22976329894E+02  0.40342603130E+02  0.00000000000E+00 0. -1.
</event>
<event>
 7    1  0.2817603E-011  0.5052888E+02  0.7816164E-02  0.1300439E+00
        -11   -1    0    0    0    0  0.00000000000E+00  0.00000000000E+00  0.45593999997E+02  0.45594000000E+02  0.51100000000E-03 0.  1.
         11   -1    0    0    0    0 -0.00000000000E+00 -0.00000000000E+00 -0.45593999997E+02  0.45594000000E+02  0.51100000000E-03 0. -1.
    9900012    2    1    2    0    0  0.37841410082E+02 -0.58120986333E+01  0.13689823597E+02  0.50528879527E+02  0.30000059811E+02 0.  0.
        -12    1    1    2    0    0 -0.37841410082E+02  0.58120986333E+01 -0.13689823597E+02  0.40659120473E+02  0.00000000000E+00 0.  1.
         11    1    3    3    0    0  0.78193844444E+01 -0.63493634100E+01  0.14158539357E+02  0.17375886331E+02  0.51100000000E-03 0. -1.
        -11    1    3    3    0    0  0.87412849299E+01  0.64709716195E+01  0.14739131785E+01  0.10975242879E+02  0.51100000000E-03 0.  1.
        -12    1    3    3    0    0  0.21280740708E+02 -0.59337068428E+01 -0.19426289389E+01  0.22177750318E+02  0.00000000000E+00 0.  1.
</event>
<event>
 7    1  0.2817603E-011  0.5052886E+02  0.7816164E-02  0.1300439E+00
        -11   -1    0    0    0    0  0.00000000000E+00  0.00000000000E+00  0.45593999997E+02  0.45594000000E+02  0.51100000000E-03 0.  1.
         11   -1    0    0    0    0 -0.00000000000E+00 -0.00000000000E+00 -0.45593999997E+02  0.45594000000E+02  0.51100000000E-03 0. -1.
    9900012    2    1    2    0    0  0.84646498576E+01  0.39760381118E+02  0.79208723043E+00  0.50528860732E+02  0.30000002680E+02 0.  0.
        -12    1    1    2    0    0 -0.84646498576E+01 -0.39760381118E+02 -0.79208723043E+00  0.40659139268E+02  0.00000000000E+00 0.  1.
         11    1    3    3    0    0 -0.85083415424E+01  0.76045347539E+01 -0.19784880127E+01  0.11581676895E+02  0.51100000000E-03 0. -1.
        -11    1    3    3    0    0  0.72232951115E+00 -0.12537676769E+01  0.98827932067E+00  0.17522527178E+01  0.51100000000E-03 0.  1.
        -12    1    3    3    0    0  0.16250661889E+02  0.33409614041E+02  0.17822959224E+01  0.37194931119E+02  0.00000000000E+00 0.  1.
</event>
<event>
 7    1  0.2817603E-011  0.5052887E+02  0.7816164E-02  0.1300439E+00
        -11   -1    0    0    0    0  0.00000000000E+00  0.00000000000E+00  0.45593999997E+02  0.45594000000E+02  0.51100000000E-03 0.  1.
         11   -1    0    0    0    0 -0.00000000000E+00 -0.00000000000E+00 -0.45593999997E+02  0.45594000000E+02  0.51100000000E-03 0. -1.
    9900012    2    1    2    0    0 -0.13732074920E+02 -0.30225861312E+02 -0.23473232437E+02  0.50528865544E+02  0.30000017309E+02 0.  0.
        -12    1    1    2    0    0  0.13732074920E+02  0.30225861312E+02  0.23473232437E+02  0.40659134456E+02  0.00000000000E+00 0.  1.
         11    1    3    3    0    0 -0.15498507973E+02 -0.12751738988E+02 -0.93484510857E+01  0.22140554071E+02  0.51100000000E-03 0. -1.
        -11    1    3    3    0    0 -0.76881714243E+00 -0.16754825119E+02 -0.17411243582E+02  0.24175745033E+02  0.51100000000E-03 0.  1.
         12    1    3    3    0    0  0.25352501956E+01 -0.71929720560E+00  0.32864622308E+01  0.42125664409E+01  0.00000000000E+00 0. -1.
</event>
<event>
 7    1  0.2817603E-011  0.5052886E+02  0.7816164E-02  0.1300439E+00
        -11   -1    0    0    0    0  0.00000000000E+00  0.00000000000E+00  0.45593999997E+02  0.45594000000E+02  0.51100000000E-03 0.  1.
         11   -1    0    0    0    0 -0.00000000000E+00 -0.00000000000E+00 -0.45593999997E+02  0.45594000000E+02  0.51100000000E-03 0. -1.
    9900012    2    1    2    0    0 -0.14588732824E+02  0.33046634003E+02 -0.18661585124E+02  0.50528857072E+02  0.29999991555E+02 0.  0.
        -12    1    1    2    0    0  0.14588732824E+02 -0.33046634003E+02  0.18661585124E+02  0.40659142928E+02  0.00000000000E+00 0.  1.
         11    1    3    3    0    0 -0.82526618957E+01  0.26733046872E+02 -0.21493992173E+02  0.35281070324E+02  0.51100000000E-03 0. -1.
        -11    1    3    3    0    0 -0.55928727567E+01  0.95969277565E+01  0.43733488038E+00  0.11116317290E+02  0.51100000000E-03 0.  1.
        -12    1    3    3    0    0 -0.74319817151E+00 -0.32833406258E+01  0.23950721681E+01  0.41314694574E+01  0.00000000000E+00 0.  1.
</event>
<event>
 7    1  0.2817603E-011  0.5052888E+02  0.7816164E-02  0.1300439E+00
        -11   -1    0    0    0    0  0.00000000000E+00  0.00000000000E+00  0.45593999997E+02  0.45594000000E+02  0.51100000000E-03 0. -1.
         11   -1    0    0    0    0 -0.00000000000E+00 -0.00000000000E+00 -0.45593999997E+02  0.45594000000E+02  0.51100000000E-03 0.  1.
    9900012    2    1    2    0    0 -0.19185466101E+02  0.34554289204E+02 -0.95437561641E+01  0.50528876871E+02  0.30000051737E+02 0.  0.
        -12    1    1    2    0    0  0.19185466101E+02 -0.34554289204E+02  0.95437561641E+01  0.40659123129E+02  0.00000000000E+00 0.  1.
         11    1    3    3    0    0 -0.48170623303E+01  0.20731727498E+02 -0.43002084253E+01  0.21714060129E+02  0.51100000000E-03 0. -1.
        -11    1    3    3    0    0 -0.15184280062E+01  0.10591282061E+02 -0.10089515955E+02  0.14706434367E+02  0.51100000000E-03 0.  1.
         12    1    3    3    0    0 -0.12849975764E+02  0.32312796454E+01  0.48459682164E+01  0.14108382375E+02  0.00000000000E+00 0. -1.
</event>
<event>
 7    1  0.2817603E-011  0.5052886E+02  0.7816164E-02  0.1300439E+00
        -11   -1    0    0    0    0  0.00000000000E+00  0.00000000000E+00  0.45593999997E+02  0.45594000000E+02  0.51100000000E-03 0.  1.
         11   -1    0    0    0    0 -0.00000000000E+00 -0.00000000000E+00 -0.45593999997E+02  0.45594000000E+02  0.51100000000E-03 0. -1.
    9900012    2    1    2    0    0 -0.17711756563E+02  0.36518792387E+02 -0.24160134978E+01  0.50528860324E+02  0.30000001441E+02 0.  0.
        -12    1    1    2    0    0  0.17711756563E+02 -0.36518792387E+02  0.24160134978E+01  0.40659139676E+02  0.00000000000E+00 0.  1.
         11    1    3    3    0    0  0.33065559570E+01 -0.33822021926E+01 -0.70875979357E+00  0.47827758336E+01  0.51100000000E-03 0.  1.
        -11    1    3    3    0    0 -0.11287061965E+02  0.16527209178E+02  0.21753224896E+01  0.20131528487E+02  0.51100000000E-03 0. -1.
        -12    1    3    3    0    0 -0.97312505553E+01  0.23373785401E+02 -0.38825761938E+01  0.25614556004E+02  0.00000000000E+00 0.  1.
</event>
<event>
 7    1  0.2817603E-011  0.5052890E+02  0.7816164E-02  0.1300439E+00
        -11   -1    0    0    0    0  0.00000000000E+00  0.00000000000E+00  0.45593999997E+02  0.45594000000E+02  0.51100000000E-03 0.  1.
         11   -1    0    0    0    0 -0.00000000000E+00 -0.00000000000E+00 -0.45593999997E+02  0.45594000000E+02  0.51100000000E-03 0. -1.
    9900012    2    1    2    0    0 -0.15400963270E+02 -0.13807193882E+02 -0.35004776649E+02  0.50528896951E+02  0.30000112772E+02 0.  0.
        -12    1    1    2    0    0  0.15400963270E+02  0.13807193882E+02  0.35004776649E+02  0.40659103049E+02  0.00000000000E+00 0.  1.
         11    1    3    3    0    0  0.32475580879E+01  0.11974543076E+01 -0.15810870605E+02  0.16185306914E+02  0.51100000000E-03 0. -1.
        -11    1    3    3    0    0 -0.10549049227E+02 -0.67836488929E+01 -0.19042827699E+02  0.22801965243E+02  0.51100000000E-03 0.  1.
        -12    1    3    3    0    0 -0.80994721302E+01 -0.82209992964E+01 -0.15107834466E+00  0.11541624794E+02  0.00000000000E+00 0.  1.
</event>
<event>
 7    1  0.2817603E-011  0.5052888E+02  0.7816164E-02  0.1300439E+00
        -11   -1    0    0    0    0  0.00000000000E+00  0.00000000000E+00  0.45593999997E+02  0.45594000000E+02  0.51100000000E-03 0.  1.
         11   -1    0    0    0    0 -0.00000000000E+00 -0.00000000000E+00 -0.45593999997E+02  0.45594000000E+02  0.51100000000E-03 0. -1.
    9900012    2    1    2    0    0  0.27637232014E+02 -0.16485194590E+02  0.24851274837E+02  0.50528879313E+02  0.30000059158E+02 0.  0.
        -12    1    1    2    0    0 -0.27637232014E+02  0.16485194590E+02 -0.24851274837E+02  0.40659120687E+02  0.00000000000E+00 0.  1.
         11    1    3    3    0    0  0.18512494940E+02 -0.85943302143E+01  0.20547526104E+02  0.28961626508E+02  0.51100000000E-03 0. -1.
        -11    1    3    3    0    0  0.18374358826E+01 -0.27255965922E-01  0.94839181933E+01  0.96603114892E+01  0.51100000000E-03 0.  1.
         12    1    3    3    0    0  0.72873011913E+01 -0.78636084094E+01 -0.51801694595E+01  0.11906941316E+02  0.00000000000E+00 0. -1.
</event>
<event>
 7    1  0.2817603E-011  0.5052884E+02  0.7816164E-02  0.1300439E+00
        -11   -1    0    0    0    0  0.00000000000E+00  0.00000000000E+00  0.45593999997E+02  0.45594000000E+02  0.51100000000E-03 0. -1.
         11   -1    0    0    0    0 -0.00000000000E+00 -0.00000000000E+00 -0.45593999997E+02  0.45594000000E+02  0.51100000000E-03 0.  1.
    9900012    2    1    2    0    0 -0.39897753414E+02  0.73992968586E+01 -0.25664549239E+01  0.50528843437E+02  0.29999950112E+02 0.  0.
        -12    1    1    2    0    0  0.39897753414E+02 -0.73992968586E+01  0.25664549239E+01  0.40659156563E+02  0.00000000000E+00 0.  1.
         11    1    3    3    0    0 -0.52485083388E+00 -0.41977354645E+00  0.23076177973E+01  0.24034929556E+01  0.51100000000E-03 0. -1.
        -11    1    3    3    0    0 -0.28888786584E+02  0.37078027904E+01  0.87856968709E+01  0.30422002918E+02  0.51100000000E-03 0.  1.
         12    1    3    3    0    0 -0.10484115997E+02  0.41112676146E+01 -0.13659769592E+02  0.17703347563E+02  0.00000000000E+00 0. -1.
</event>
<event>
 7    1  0.2817603E-011  0.5052885E+02  0.7816164E-02  0.1300439E+00
        -11   -1    0    0    0    0  0.00000000000E+00  0.00000000000E+00  0.45593999997E+02  0.45594000000E+02  0.51100000000E-03 0.  1.
         11   -1    0    0    0    0 -0.00000000000E+00 -0.00000000000E+00 -0.45593999997E+02  0.45594000000E+02  0.51100000000E-03 0. -1.
    9900012    2    1    2    0    0  0.50095818665E-01 -0.31549832693E+02 -0.25647059815E+02  0.50528854292E+02  0.29999983107E+02 0.  0.
        -12    1    1    2    0    0 -0.50095818665E-01  0.31549832693E+02  0.25647059815E+02  0.40659145708E+02  0.00000000000E+00 0.  1.
         11    1    3    3    0    0 -0.17031432755E+00  0.22213569556E+01 -0.77334615924E+01  0.80479725494E+01  0.51100000000E-03 0. -1.
        -11    1    3    3    0    0 -0.24293999983E+01  0.15537727060E+00  0.19134004874E+01  0.30963249401E+01  0.51100000000E-03 0.  1.
         12    1    3    3    0    0  0.26498101445E+01 -0.33926566919E+02 -0.19826998710E+02  0.39384556803E+02  0.00000000000E+00 0. -1.
</event>
<event>
 7    1  0.2817603E-011  0.5052886E+02  0.7816164E-02  0.1300439E+00
        -11   -1    0    0    0    0  0.00000000000E+00  0.00000000000E+00  0.45593999997E+02  0.45594000000E+02  0.51100000000E-03 0. -1.
         11   -1    0    0    0    0 -0.00000000000E+00 -0.00000000000E+00 -0.45593999997E+02  0.45594000000E+02  0.51100000000E-03 0.  1.
    9900012    2    1    2    0    0  0.15049977685E+02  0.21650542070E+02 -0.30950251311E+02  0.50528857652E+02  0.29999993319E+02 0.  0.
        -12    1    1    2    0    0 -0.15049977685E+02 -0.21650542070E+02  0.30950251311E+02  0.40659142348E+02  0.00000000000E+00 0.  1.
         11    1    3    3    0    0  0.67679686214E+01 -0.70429924480E+00  0.25480037758E+01  0.72659314743E+01  0.51100000000E-03 0. -1.
        -11    1    3    3    0    0  0.11320641477E+02  0.11776358173E+02 -0.18911290062E+02  0.24989526352E+02  0.51100000000E-03 0.  1.
        -12    1    3    3    0    0 -0.30386324132E+01  0.10578483142E+02 -0.14586965025E+02  0.18273399825E+02  0.00000000000E+00 0.  1.
</event>
<event>
 7    1  0.2817603E-011  0.5052889E+02  0.7816164E-02  0.1300439E+00
        -11   -1    0    0    0    0  0.00000000000E+00  0.00000000000E+00  0.45593999997E+02  0.45594000000E+02  0.51100000000E-03 0. -1.
         11   -1    0    0    0    0 -0.00000000000E+00 -0.00000000000E+00 -0.45593999997E+02  0.45594000000E+02  0.51100000000E-03 0.  1.
    9900012    2    1    2    0    0  0.34777143805E+02  0.21010122876E+02 -0.15127140482E+01  0.50528889111E+02  0.30000088940E+02 0.  0.
        -12    1    1    2    0    0 -0.34777143805E+02 -0.21010122876E+02  0.15127140482E+01  0.40659110889E+02  0.00000000000E+00 0.  1.
         11    1    3    3    0    0  0.30566683834E+02  0.20865241031E+02  0.52419250417E+01  0.37378579725E+02  0.51100000000E-03 0. -1.
        -11    1    3    3    0    0  0.63246245361E+01  0.20484465421E+01 -0.98930828556E+00  0.67212900476E+01  0.51100000000E-03 0.  1.
        -12    1    3    3    0    0 -0.21141645644E+01 -0.19035646971E+01 -0.57653308043E+01  0.64290193377E+01  0.00000000000E+00 0.  1.
</event>
<event>
 7    1  0.2817603E-011  0.5052887E+02  0.7816164E-02  0.1300439E+00
        -11   -1    0    0    0    0  0.00000000000E+00  0.00000000000E+00  0.45593999997E+02  0.45594000000E+02  0.51100000000E-03 0. -1.
         11   -1    0    0    0    0 -0.00000000000E+00 -0.00000000000E+00 -0.45593999997E+02  0.45594000000E+02  0.51100000000E-03 0.  1.
    9900012    2    1    2    0    0  0.14642295984E+02  0.36221340034E+02 -0.11259792820E+02  0.50528865235E+02  0.30000016367E+02 0.  0.
        -12    1    1    2    0    0 -0.14642295984E+02 -0.36221340034E+02  0.11259792820E+02  0.40659134765E+02  0.00000000000E+00 0.  1.
         11    1    3    3    0    0 -0.15354505250E+01  0.87103680682E+00 -0.42932942824E+01  0.46420566013E+01  0.51100000000E-03 0. -1.
        -11    1    3    3    0    0  0.70672261169E+01  0.44990634991E+01 -0.10603267501E+02  0.13513568711E+02  0.51100000000E-03 0.  1.
         12    1    3    3    0    0  0.91105203926E+01  0.30851239728E+02  0.36367689633E+01  0.32373239922E+02  0.00000000000E+00 0. -1.
</event>
<event>
 7    1  0.2817603E-011  0.5052886E+02  0.7816164E-02  0.1300439E+00
        -11   -1    0    0    0    0  0.00000000000E+00  0.00000000000E+00  0.45593999997E+02  0.45594000000E+02  0.51100000000E-03 0.  1.
         11   -1    0    0    0    0 -0.00000000000E+00 -0.00000000000E+00 -0.45593999997E+02  0.45594000000E+02  0.51100000000E-03 0. -1.
    9900012    2    1    2    0    0  0.19822683731E+02  0.26216574113E+02 -0.23935704254E+02  0.50528862199E+02  0.30000007141E+02 0.  0.
        -12    1    1    2    0    0 -0.19822683731E+02 -0.26216574113E+02  0.23935704254E+02  0.40659137801E+02  0.00000000000E+00 0.  1.
         11    1    3    3    0    0  0.14509017124E+02  0.61298688381E+00 -0.14220808071E+02  0.20325321972E+02  0.51100000000E-03 0. -1.
        -11    1    3    3    0    0  0.84314866936E+01  0.12933012442E+02 -0.39354686641E+01  0.15932378748E+02  0.51100000000E-03 0.  1.
        -12    1    3    3    0    0 -0.31178200858E+01  0.12670574788E+02 -0.57794275186E+01  0.14271161480E+02  0.00000000000E+00 0.  1.
</event>
<event>
 7    1  0.2817603E-011  0.5052887E+02  0.7816164E-02  0.1300439E+00
        -11   -1    0    0    0    0  0.00000000000E+00  0.00000000000E+00  0.45593999997E+02  0.45594000000E+02  0.51100000000E-03 0.  1.
         11   -1    0    0    0    0 -0.00000000000E+00 -0.00000000000E+00 -0.45593999997E+02  0.45594000000E+02  0.51100000000E-03 0. -1.
    9900012    2    1    2    0    0  0.28527073484E+02 -0.59388647526E+01 -0.28356667469E+02  0.50528872783E+02  0.30000039311E+02 0.  0.
        -12    1    1    2    0    0 -0.28527073484E+02  0.59388647526E+01  0.28356667469E+02  0.40659127217E+02  0.00000000000E+00 0.  1.
         11    1    3    3    0    0  0.56292849250E+01  0.82172252280E+01 -0.57966674916E+01  0.11524451982E+02  0.51100000000E-03 0. -1.
        -11    1    3    3    0    0 -0.17298750857E+01 -0.28775296691E+01 -0.70059838161E+01  0.77689416461E+01  0.51100000000E-03 0.  1.
         12    1    3    3    0    0  0.24627663644E+02 -0.11278560311E+02 -0.15554016162E+02  0.31235479155E+02  0.00000000000E+00 0. -1.
</event>
<event>
 7    1  0.2817603E-011  0.5052885E+02  0.7816164E-02  0.1300439E+00
        -11   -1    0    0    0    0  0.00000000000E+00  0.00000000000E+00  0.45593999997E+02  0.45594000000E+02  0.51100000000E-03 0. -1.
         11   -1    0    0    0    0 -0.00000000000E+00 -0.00000000000E+00 -0.45593999997E+02  0.45594000000E+02  0.51100000000E-03 0.  1.
    9900012    2    1    2    0    0 -0.22888276328E+02  0.41988943375E+01  0.33341598240E+02  0.50528854901E+02  0.29999984958E+02 0.  0.
        -12    1    1    2    0    0  0.22888276328E+02 -0.41988943375E+01 -0.33341598240E+02  0.40659145099E+02  0.00000000000E+00 0.  1.
         11    1    3    3    0    0 -0.10891449784E+02  0.11807978764E+02  0.63108703187E+01  0.17259175106E+02  0.51100000000E-03 0. -1.
        -11    1    3    3    0    0 -0.58903070814E+01 -0.56177673251E+00  0.15215193600E+01  0.61095279715E+01  0.51100000000E-03 0.  1.
         12    1    3    3    0    0 -0.61065194626E+01 -0.70473076939E+01  0.25509208562E+02  0.27160151824E+02  0.00000000000E+00 0. -1.
</event>
<event>
 7    1  0.2817603E-011  0.5052886E+02  0.7816164E-02  0.1300439E+00
        -11   -1    0    0    0    0  0.00000000000E+00  0.00000000000E+00  0.45593999997E+02  0.45594000000E+02  0.51100000000E-03 0. -1.
         11   -1    0    0    0    0 -0.00000000000E+00 -0.00000000000E+00 -0.45593999997E+02  0.45594000000E+02  0.51100000000E-03 0.  1.
    9900012    2    1    2    0    0  0.67671936457E+00 -0.40621880220E+02  0.16033156200E+01  0.50528859297E+02  0.29999998319E+02 0.  0.
        -12    1    1    2    0    0 -0.67671936457E+00  0.40621880220E+02 -0.16033156200E+01  0.40659140703E+02  0.00000000000E+00 0.  1.
         11    1    3    3    0    0  0.68711286585E+01 -0.21220202276E+02  0.16917669533E+01  0.22368984540E+02  0.51100000000E-03 0. -1.
        -11    1    3    3    0    0 -0.23864480002E+01  0.32634568798E+01  0.29114069546E+01  0.49821256086E+01  0.51100000000E-03 0.  1.
         12    1    3    3    0    0 -0.38079612938E+01 -0.22665134825E+02 -0.29998582879E+01  0.23177749148E+02  0.00000000000E+00 0. -1.
</event>
<event>
 7    1  0.2817603E-011  0.5052886E+02  0.7816164E-02  0.1300439E+00
        -11   -1    0    0    0    0  0.00000000000E+00  0.00000000000E+00  0.45593999997E+02  0.45594000000E+02  0.51100000000E-03 0.  1.
         11   -1    0    0    0    0 -0.00000000000E+00 -0.00000000000E+00 -0.45593999997E+02  0.45594000000E+02  0.51100000000E-03 0. -1.
    9900012    2    1    2    0    0 -0.22110883925E+02  0.28257636418E+02 -0.19125390569E+02  0.50528858736E+02  0.29999996614E+02 0.  0.
        -12    1    1    2    0    0  0.22110883925E+02 -0.28257636418E+02  0.19125390569E+02  0.40659141264E+02  0.00000000000E+00 0.  1.
         11    1    3    3    0    0 -0.10458174308E+01  0.14222899574E+02 -0.43424963928E+01  0.14907779230E+02  0.51100000000E-03 0. -1.
        -11    1    3    3    0    0 -0.83825667565E+00  0.68582276314E+01  0.32061756917E+01  0.76169234817E+01  0.51100000000E-03 0.  1.
         12    1    3    3    0    0 -0.20226809819E+02  0.71765092131E+01 -0.17989069868E+02  0.28004156025E+02  0.00000000000E+00 0. -1.
</event>
<event>
 7    1  0.2817603E-011  0.5052886E+02  0.7816164E-02  0.1300439E+00
        -11   -1    0    0    0    0  0.00000000000E+00  0.00000000000E+00  0.45593999997E+02  0.45594000000E+02  0.51100000000E-03 0.  1.
         11   -1    0    0    0    0 -0.00000000000E+00 -0.00000000000E+00 -0.45593999997E+02  0.45594000000E+02  0.51100000000E-03 0. -1.
    9900012    2    1    2    0    0  0.95608222791E+01 -0.11308406928E+02 -0.37866559800E+02  0.50528859072E+02  0.29999997635E+02 0.  0.
        -12    1    1    2    0    0 -0.95608222791E+01  0.11308406928E+02  0.37866559800E+02  0.40659140928E+02  0.00000000000E+00 0.  1.
         11    1    3    3    0    0  0.59519883112E+01 -0.59491693543E+01 -0.19434445889E+01  0.86368835811E+01  0.51100000000E-03 0.  1.
        -11    1    3    3    0    0  0.95518770825E+01 -0.44127972768E+01 -0.77104594986E+01  0.13044628072E+02  0.51100000000E-03 0. -1.
        -12    1    3    3    0    0 -0.59430431146E+01 -0.94644029693E+00 -0.28212655713E+02  0.28847347418E+02  0.00000000000E+00 0.  1.
</event>
<event>
 7    1  0.2817603E-011  0.5052891E+02  0.7816164E-02  0.1300439E+00
        -11   -1    0    0    0    0  0.00000000000E+00  0.00000000000E+00  0.45593999997E+02  0.45594000000E+02  0.51100000000E-03 0. -1.
         11   -1    0    0    0    0 -0.00000000000E+00 -0.00000000000E+00 -0.45593999997E+02  0.45594000000E+02  0.51100000000E-03 0.  1.
    9900012    2    1    2    0    0 -0.63924940891E+01 -0.35344035923E+02 -0.19055101480E+02  0.50528908170E+02  0.30000146874E+02 0.  0.
        -12    1    1    2    0    0  0.63924940891E+01  0.35344035923E+02  0.19055101480E+02  0.40659091830E+02  0.00000000000E+00 0.  1.
         11    1    3    3    0    0  0.25209989115E+01 -0.85600827158E+01 -0.87310609370E+01  0.12484465425E+02  0.51100000000E-03 0. -1.
        -11    1    3    3    0    0  0.25557367291E+01 -0.30832874240E+01 -0.10999485161E+02  0.11705858603E+02  0.51100000000E-03 0.  1.
         12    1    3    3    0    0 -0.11469229730E+02 -0.23700665784E+02  0.67544461790E+00  0.26338584142E+02  0.00000000000E+00 0. -1.
</event>
<event>
 7    1  0.2817603E-011  0.5052887E+02  0.7816164E-02  0.1300439E+00
        -11   -1    0    0    0    0  0.00000000000E+00  0.00000000000E+00  0.45593999997E+02  0.45594000000E+02  0.51100000000E-03 0.  1.
         11   -1    0    0    0    0 -0.00000000000E+00 -0.00000000000E+00 -0.45593999997E+02  0.45594000000E+02  0.51100000000E-03 0. -1.
    9900012    2    1    2    0    0  0.23474415096E+02  0.19354536459E+02 -0.26972553993E+02  0.50528869235E+02  0.30000028526E+02 0.  0.
        -12    1    1    2    0    0 -0.23474415096E+02 -0.19354536459E+02  0.26972553993E+02  0.40659130765E+02  0.00000000000E+00 0.  1.
         11    1    3    3    0    0  0.42935887361E+01  0.32315219813E+01 -0.59661496304E+00  0.54068094313E+01  0.51100000000E-03 0.  1.
        -11    1    3    3    0    0  0.19137614819E+01  0.16865549173E+02 -0.51255354644E+01  0.17730773981E+02  0.51100000000E-03 0. -1.
         12    1    3    3    0    0  0.17267064878E+02 -0.74253469511E+00 -0.21250403566E+02  0.27391285822E+02  0.00000000000E+00 0. -1.
</event>
<event>
 7    1  0.2817603E-011  0.5052886E+02  0.7816164E-02  0.1300439E+00
        -11   -1    0    0    0    0  0.00000000000E+00  0.00000000000E+00  0.45593999997E+02  0.45594000000E+02  0.51100000000E-03 0.  1.
         11   -1    0    0    0    0 -0.00000000000E+00 -0.00000000000E+00 -0.45593999997E+02  0.45594000000E+02  0.51100000000E-03 0. -1.
    9900012    2    1    2    0    0  0.45848880636E+01  0.25906826413E+02 -0.30999687899E+02  0.50528861996E+02  0.30000006523E+02 0.  0.
        -12    1    1    2    0    0 -0.45848880636E+01 -0.25906826413E+02  0.30999687899E+02  0.40659138004E+02  0.00000000000E+00 0.  1.
         11    1    3    3    0    0 -0.22391037436E+01 -0.23604267392E+01 -0.62841288290E+01  0.70764027137E+01  0.51100000000E-03 0. -1.
        -11    1    3    3    0    0  0.14854368572E+01 -0.32644657799E+01 -0.12949498305E+01  0.38131554924E+01  0.51100000000E-03 0.  1.
        -12    1    3    3    0    0  0.53385549500E+01  0.31531718932E+02 -0.23420609240E+02  0.39639303790E+02  0.00000000000E+00 0.  1.
</event>
<event>
 7    1  0.2817603E-011  0.5052889E+02  0.7816164E-02  0.1300439E+00
        -11   -1    0    0    0    0  0.00000000000E+00  0.00000000000E+00  0.45593999997E+02  0.45594000000E+02  0.51100000000E-03 0.  1.
         11   -1    0    0    0    0 -0.00000000000E+00 -0.00000000000E+00 -0.45593999997E+02  0.45594000000E+02  0.51100000000E-03 0. -1.
    9900012    2    1    2    0    0  0.57709346158E+01  0.26255496411E+02 -0.30504241555E+02  0.50528886250E+02  0.30000080244E+02 0.  0.
        -12    1    1    2    0    0 -0.57709346158E+01 -0.26255496411E+02  0.30504241555E+02  0.40659113750E+02  0.00000000000E+00 0.  1.
         11    1    3    3    0    0 -0.18795878714E+01 -0.16596707348E+01 -0.51134241741E+01  0.56951263866E+01  0.51100000000E-03 0.  1.
        -11    1    3    3    0    0  0.74192897041E+01  0.45652553676E+01 -0.18562243873E+02  0.20504738822E+02  0.51100000000E-03 0. -1.
        -12    1    3    3    0    0  0.23123278305E+00  0.23349911778E+02 -0.68285735074E+01  0.24329021041E+02  0.00000000000E+00 0.  1.
</event>
<event>
 7    1  0.2817603E-011  0.5052885E+02  0.7816164E-02  0.1300439E+00
        -11   -1    0    0    0    0  0.00000000000E+00  0.00000000000E+00  0.45593999997E+02  0.45594000000E+02  0.51100000000E-03 0. -1.
         11   -1    0    0    0    0 -0.00000000000E+00 -0.00000000000E+00 -0.45593999997E+02  0.45594000000E+02  0.51100000000E-03 0.  1.
    9900012    2    1    2    0    0  0.15690223998E+02  0.37375394072E+02 -0.31722700560E+01  0.50528849634E+02  0.29999968948E+02 0.  0.
        -12    1    1    2    0    0 -0.15690223998E+02 -0.37375394072E+02  0.31722700560E+01  0.40659150366E+02  0.00000000000E+00 0.  1.
         11    1    3    3    0    0  0.15914035998E+02  0.25721276955E+02 -0.52928827776E+01  0.30705947930E+02  0.51100000000E-03 0. -1.
        -11    1    3    3    0    0  0.31165491212E+01  0.12421251555E+02 -0.34675739639E+01  0.13267420174E+02  0.51100000000E-03 0.  1.
        -12    1    3    3    0    0 -0.33403611216E+01 -0.76713443689E+00  0.55881866855E+01  0.65554815306E+01  0.00000000000E+00 0.  1.
</event>
<event>
 7    1  0.2817603E-011  0.5052888E+02  0.7816164E-02  0.1300439E+00
        -11   -1    0    0    0    0  0.00000000000E+00  0.00000000000E+00  0.45593999997E+02  0.45594000000E+02  0.51100000000E-03 0. -1.
         11   -1    0    0    0    0 -0.00000000000E+00 -0.00000000000E+00 -0.45593999997E+02  0.45594000000E+02  0.51100000000E-03 0.  1.
    9900012    2    1    2    0    0 -0.30505070631E+02  0.16853168120E+02  0.20942199857E+02  0.50528876242E+02  0.30000049826E+02 0.  0.
        -12    1    1    2    0    0  0.30505070631E+02 -0.16853168120E+02 -0.20942199857E+02  0.40659123758E+02  0.00000000000E+00 0.  1.
         11    1    3    3    0    0 -0.26777303718E+01  0.29198096409E+01  0.40442004271E+00  0.39823465588E+01  0.51100000000E-03 0. -1.
        -11    1    3    3    0    0 -0.21088644015E+02  0.74805263944E+00 -0.15371610010E+00  0.21102467108E+02  0.51100000000E-03 0.  1.
         12    1    3    3    0    0 -0.67386962444E+01  0.13185305840E+02  0.20691495915E+02  0.25444062576E+02  0.00000000000E+00 0. -1.
</event>
<event>
 7    1  0.2817603E-011  0.5052892E+02  0.7816164E-02  0.1300439E+00
        -11   -1    0    0    0    0  0.00000000000E+00  0.00000000000E+00  0.45593999997E+02  0.45594000000E+02  0.51100000000E-03 0.  1.
         11   -1    0    0    0    0 -0.00000000000E+00 -0.00000000000E+00 -0.45593999997E+02  0.45594000000E+02  0.51100000000E-03 0. -1.
    9900012    2    1    2    0    0 -0.38853885903E+01 -0.35667528526E+02 -0.19128300599E+02  0.50528920824E+02  0.30000185335E+02 0.  0.
        -12    1    1    2    0    0  0.38853885903E+01  0.35667528526E+02  0.19128300599E+02  0.40659079176E+02  0.00000000000E+00 0.  1.
         11    1    3    3    0    0  0.19634292961E+01 -0.25785868665E+02 -0.10140597649E+02  0.27777649259E+02  0.51100000000E-03 0. -1.
        -11    1    3    3    0    0  0.23882983265E+01 -0.12074022155E+02 -0.62125112994E+01  0.13786996656E+02  0.51100000000E-03 0.  1.
         12    1    3    3    0    0 -0.82371162129E+01  0.21923622941E+01 -0.27751916506E+01  0.89642749083E+01  0.00000000000E+00 0. -1.
</event>
<event>
 7    1  0.2817603E-011  0.5052886E+02  0.7816164E-02  0.1300439E+00
        -11   -1    0    0    0    0  0.00000000000E+00  0.00000000000E+00  0.45593999997E+02  0.45594000000E+02  0.51100000000E-03 0.  1.
         11   -1    0    0    0    0 -0.00000000000E+00 -0.00000000000E+00 -0.45593999997E+02  0.45594000000E+02  0.51100000000E-03 0. -1.
    9900012    2    1    2    0    0 -0.14098484787E+02 -0.42215297061E+01 -0.37902204933E+02  0.50528859267E+02  0.29999998228E+02 0.  0.
        -12    1    1    2    0    0  0.14098484787E+02  0.42215297061E+01  0.37902204933E+02  0.40659140733E+02  0.00000000000E+00 0.  1.
         11    1    3    3    0    0  0.15342276470E+01  0.43022679468E+01 -0.10894720190E+02  0.11813479261E+02  0.51100000000E-03 0. -1.
        -11    1    3    3    0    0 -0.46418559729E+01  0.57052720776E+01 -0.14974193437E+01  0.75059457301E+01  0.51100000000E-03 0.  1.
         12    1    3    3    0    0 -0.10990856462E+02 -0.14229069730E+02 -0.25510065399E+02  0.31209434276E+02  0.00000000000E+00 0. -1.
</event>
<event>
 7    1  0.2817603E-011  0.5052886E+02  0.7816164E-02  0.1300439E+00
        -11   -1    0    0    0    0  0.00000000000E+00  0.00000000000E+00  0.45593999997E+02  0.45594000000E+02  0.51100000000E-03 0.  1.
         11   -1    0    0    0    0 -0.00000000000E+00 -0.00000000000E+00 -0.45593999997E+02  0.45594000000E+02  0.51100000000E-03 0. -1.
    9900012    2    1    2    0    0  0.38012944643E+02 -0.49152735580E+01 -0.13565460355E+02  0.50528860939E+02  0.30000003309E+02 0.  0.
        -12    1    1    2    0    0 -0.38012944643E+02  0.49152735580E+01  0.13565460355E+02  0.40659139061E+02  0.00000000000E+00 0.  1.
         11    1    3    3    0    0  0.16193763754E+02 -0.95802417310E+00 -0.80504489678E+01  0.18109818433E+02  0.51100000000E-03 0. -1.
        -11    1    3    3    0    0  0.83677739141E+01 -0.21338080786E+01 -0.13972334276E+02  0.16425556386E+02  0.51100000000E-03 0.  1.
        -12    1    3    3    0    0  0.13451406975E+02 -0.18234413063E+01  0.84573228896E+01  0.15993486120E+02  0.00000000000E+00 0.  1.
</event>
<event>
 7    1  0.2817603E-011  0.5052886E+02  0.7816164E-02  0.1300439E+00
        -11   -1    0    0    0    0  0.00000000000E+00  0.00000000000E+00  0.45593999997E+02  0.45594000000E+02  0.51100000000E-03 0. -1.
         11   -1    0    0    0    0 -0.00000000000E+00 -0.00000000000E+00 -0.45593999997E+02  0.45594000000E+02  0.51100000000E-03 0.  1.
    9900012    2    1    2    0    0  0.37730270886E+02  0.13868934058E+02 -0.61028614620E+01  0.50528860916E+02  0.30000003240E+02 0.  0.
        -12    1    1    2    0    0 -0.37730270886E+02 -0.13868934058E+02  0.61028614620E+01  0.40659139084E+02  0.00000000000E+00 0.  1.
         11    1    3    3    0    0 -0.12085578643E+01  0.30554894130E+01  0.28119716851E+00  0.32978325872E+01  0.51100000000E-03 0. -1.
        -11    1    3    3    0    0  0.25712106431E+01  0.21410452930E+01 -0.91489441002E+01  0.97415798271E+01  0.51100000000E-03 0.  1.
         12    1    3    3    0    0  0.36367618107E+02  0.86723993518E+01  0.27648854696E+01  0.37489448502E+02  0.00000000000E+00 0. -1.
</event>
<event>
 7    1  0.2817603E-011  0.5052885E+02  0.7816164E-02  0.1300439E+00
        -11   -1    0    0    0    0  0.00000000000E+00  0.00000000000E+00  0.45593999997E+02  0.45594000000E+02  0.51100000000E-03 0. -1.
         11   -1    0    0    0    0 -0.00000000000E+00 -0.00000000000E+00 -0.45593999997E+02  0.45594000000E+02  0.51100000000E-03 0.  1.
    9900012    2    1    2    0    0  0.28513537322E+02  0.28922172050E+02  0.19111612043E+01  0.50528851167E+02  0.29999973606E+02 0.  0.
        -12    1    1    2    0    0 -0.28513537322E+02 -0.28922172050E+02 -0.19111612043E+01  0.40659148833E+02  0.00000000000E+00 0.  1.
         11    1    3    3    0    0  0.54416995336E+00 -0.89479280512E+00 -0.83669253580E+00  0.13404587882E+01  0.51100000000E-03 0. -1.
        -11    1    3    3    0    0  0.19360090402E+02  0.17917851160E+01  0.39748698996E+01  0.19844978843E+02  0.51100000000E-03 0.  1.
         12    1    3    3    0    0  0.86092769668E+01  0.28025179739E+02 -0.12270161595E+01  0.29343413536E+02  0.00000000000E+00 0. -1.
</event>
<event>
 7    1  0.2817603E-011  0.5052877E+02  0.7816164E-02  0.1300439E+00
        -11   -1    0    0    0    0  0.00000000000E+00  0.00000000000E+00  0.45593999997E+02  0.45594000000E+02  0.51100000000E-03 0.  1.
         11   -1    0    0    0    0 -0.00000000000E+00 -0.00000000000E+00 -0.45593999997E+02  0.45594000000E+02  0.51100000000E-03 0. -1.
    9900012    2    1    2    0    0  0.35845606468E+01 -0.30204518935E+02 -0.26981681885E+02  0.50528767390E+02  0.29999718957E+02 0.  0.
        -12    1    1    2    0    0 -0.35845606468E+01  0.30204518935E+02  0.26981681885E+02  0.40659232610E+02  0.00000000000E+00 0.  1.
         11    1    3    3    0    0  0.91986712413E+01 -0.15393930981E+02 -0.15458105790E+02  0.23675761836E+02  0.51100000000E-03 0. -1.
        -11    1    3    3    0    0  0.57905218702E+01 -0.55026476665E+01  0.26685477728E+00  0.79925269223E+01  0.51100000000E-03 0.  1.
        -12    1    3    3    0    0 -0.11404632465E+02 -0.93079402866E+01 -0.11790430873E+02  0.18860478631E+02  0.00000000000E+00 0.  1.
</event>
<event>
 7    1  0.2817603E-011  0.5052886E+02  0.7816164E-02  0.1300439E+00
        -11   -1    0    0    0    0  0.00000000000E+00  0.00000000000E+00  0.45593999997E+02  0.45594000000E+02  0.51100000000E-03 0. -1.
         11   -1    0    0    0    0 -0.00000000000E+00 -0.00000000000E+00 -0.45593999997E+02  0.45594000000E+02  0.51100000000E-03 0.  1.
    9900012    2    1    2    0    0  0.37793561824E+02 -0.14823279627E+02 -0.22544358053E+01  0.50528863081E+02  0.30000009820E+02 0.  0.
        -12    1    1    2    0    0 -0.37793561824E+02  0.14823279627E+02  0.22544358053E+01  0.40659136919E+02  0.00000000000E+00 0.  1.
         11    1    3    3    0    0  0.27102621152E+02 -0.99530699806E+01  0.20847459103E+01  0.28947570557E+02  0.51100000000E-03 0. -1.
        -11    1    3    3    0    0  0.11330726258E+02 -0.32918548223E+01  0.44635921919E+01  0.12615281258E+02  0.51100000000E-03 0.  1.
        -12    1    3    3    0    0 -0.63978558660E+00 -0.15783548240E+01 -0.88027739075E+01  0.89660112656E+01  0.00000000000E+00 0.  1.
</event>
<event>
 7    1  0.2817603E-011  0.5052885E+02  0.7816164E-02  0.1300439E+00
        -11   -1    0    0    0    0  0.00000000000E+00  0.00000000000E+00  0.45593999997E+02  0.45594000000E+02  0.51100000000E-03 0.  1.
         11   -1    0    0    0    0 -0.00000000000E+00 -0.00000000000E+00 -0.45593999997E+02  0.45594000000E+02  0.51100000000E-03 0. -1.
    9900012    2    1    2    0    0  0.27598964871E+02  0.11606165701E+02 -0.27509276954E+02  0.50528852655E+02  0.29999978131E+02 0.  0.
        -12    1    1    2    0    0 -0.27598964871E+02 -0.11606165701E+02  0.27509276954E+02  0.40659147345E+02  0.00000000000E+00 0.  1.
         11    1    3    3    0    0  0.28081452974E+02  0.86960076104E+01 -0.21667237988E+02  0.36519279179E+02  0.51100000000E-03 0. -1.
        -11    1    3    3    0    0  0.58288515662E+01  0.19245843258E+01 -0.41229256763E+01  0.73944608865E+01  0.51100000000E-03 0.  1.
        -12    1    3    3    0    0 -0.63113396693E+01  0.98557376497E+00 -0.17191132902E+01  0.66151125895E+01  0.00000000000E+00 0.  1.
</event>
<event>
 7    1  0.2817603E-011  0.5052883E+02  0.7816164E-02  0.1300439E+00
        -11   -1    0    0    0    0  0.00000000000E+00  0.00000000000E+00  0.45593999997E+02  0.45594000000E+02  0.51100000000E-03 0. -1.
         11   -1    0    0    0    0 -0.00000000000E+00 -0.00000000000E+00 -0.45593999997E+02  0.45594000000E+02  0.51100000000E-03 0.  1.
    9900012    2    1    2    0    0  0.43963899365E+01  0.40397847064E+02  0.13614877232E+01  0.50528832022E+02  0.29999915414E+02 0.  0.
        -12    1    1    2    0    0 -0.43963899365E+01 -0.40397847064E+02 -0.13614877232E+01  0.40659167978E+02  0.00000000000E+00 0.  1.
         11    1    3    3    0    0  0.74837013990E+01  0.72602066456E+01 -0.31288871836E+00  0.10431408667E+02  0.51100000000E-03 0. -1.
        -11    1    3    3    0    0  0.89091409570E+01  0.17438394598E+02  0.46225983987E+01  0.20120606725E+02  0.51100000000E-03 0.  1.
         12    1    3    3    0    0 -0.11996452420E+02  0.15699245820E+02 -0.29482219571E+01  0.19976816630E+02  0.00000000000E+00 0. -1.
</event>
<event>
 7    1  0.2817603E-011  0.5052886E+02  0.7816164E-02  0.1300439E+00
        -11   -1    0    0    0    0  0.00000000000E+00  0.00000000000E+00  0.45593999997E+02  0.45594000000E+02  0.51100000000E-03 0. -1.
         11   -1    0    0    0    0 -0.00000000000E+00 -0.00000000000E+00 -0.45593999997E+02  0.45594000000E+02  0.51100000000E-03 0.  1.
    9900012    2    1    2    0    0  0.36176484430E+02 -0.15997770374E+02  0.94073958264E+01  0.50528858606E+02  0.29999996218E+02 0.  0.
        -12    1    1    2    0    0 -0.36176484430E+02  0.15997770374E+02 -0.94073958264E+01  0.40659141394E+02  0.00000000000E+00 0.  1.
         11    1    3    3    0    0  0.39005235773E+02 -0.17282028988E+02  0.11717928135E+02  0.44242364129E+02  0.51100000000E-03 0. -1.
        -11    1    3    3    0    0  0.69102948160E+00  0.20050405876E+01 -0.15158871404E+01  0.26068416879E+01  0.51100000000E-03 0.  1.
        -12    1    3    3    0    0 -0.35197808245E+01 -0.72078197390E+00 -0.79464516826E+00  0.36796527893E+01  0.00000000000E+00 0.  1.
</event>
<event>
 7    1  0.2817603E-011  0.5052886E+02  0.7816164E-02  0.1300439E+00
        -11   -1    0    0    0    0  0.00000000000E+00  0.00000000000E+00  0.45593999997E+02  0.45594000000E+02  0.51100000000E-03 0.  1.
         11   -1    0    0    0    0 -0.00000000000E+00 -0.00000000000E+00 -0.45593999997E+02  0.45594000000E+02  0.51100000000E-03 0. -1.
    9900012    2    1    2    0    0  0.23422420235E+02 -0.51826247873E+01 -0.32828281968E+02  0.50528862450E+02  0.30000007904E+02 0.  0.
        -12    1    1    2    0    0 -0.23422420235E+02  0.51826247873E+01  0.32828281968E+02  0.40659137550E+02  0.00000000000E+00 0.  1.
         11    1    3    3    0    0 -0.32855373900E+01  0.34278108348E+01 -0.11777682499E+02  0.12698757749E+02  0.51100000000E-03 0. -1.
        -11    1    3    3    0    0 -0.92099743523E+00  0.90997143747E+00  0.63271735568E+00  0.14410467744E+01  0.51100000000E-03 0.  1.
        -12    1    3    3    0    0  0.27628955060E+02 -0.95204070595E+01 -0.21683316824E+02  0.36389057927E+02  0.00000000000E+00 0.  1.
</event>
<event>
 7    1  0.2817603E-011  0.5052886E+02  0.7816164E-02  0.1300439E+00
        -11   -1    0    0    0    0  0.00000000000E+00  0.00000000000E+00  0.45593999997E+02  0.45594000000E+02  0.51100000000E-03 0.  1.
         11   -1    0    0    0    0 -0.00000000000E+00 -0.00000000000E+00 -0.45593999997E+02  0.45594000000E+02  0.51100000000E-03 0. -1.
    9900012    2    1    2    0    0 -0.11899046083E+02  0.31795176139E+02 -0.22375104972E+02  0.50528857782E+02  0.29999993714E+02 0.  0.
        -12    1    1    2    0    0  0.11899046083E+02 -0.31795176139E+02  0.22375104972E+02  0.40659142218E+02  0.00000000000E+00 0.  1.
         11    1    3    3    0    0 -0.86187875781E+01  0.11506816097E+02 -0.77358066497E+01  0.16325839053E+02  0.51100000000E-03 0. -1.
        -11    1    3    3    0    0 -0.67789807065E+01  0.15746619650E+02 -0.20008258227E+02  0.26348453605E+02  0.51100000000E-03 0.  1.
         12    1    3    3    0    0  0.34987222012E+01  0.45417403917E+01  0.53689599050E+01  0.78545651241E+01  0.00000000000E+00 0. -1.
</event>
<event>
 7    1  0.2817603E-011  0.5052887E+02  0.7816164E-02  0.1300439E+00
        -11   -1    0    0    0    0  0.00000000000E+00  0.00000000000E+00  0.45593999997E+02  0.45594000000E+02  0.51100000000E-03 0.  1.
         11   -1    0    0    0    0 -0.00000000000E+00 -0.00000000000E+00 -0.45593999997E+02  0.45594000000E+02  0.51100000000E-03 0. -1.
    9900012    2    1    2    0    0  0.27847749022E+02 -0.26095727923E+02 -0.14024282831E+02  0.50528872484E+02  0.30000038402E+02 0.  0.
        -12    1    1    2    0    0 -0.27847749022E+02  0.26095727923E+02  0.14024282831E+02  0.40659127516E+02  0.00000000000E+00 0.  1.
         11    1    3    3    0    0  0.15607458226E+02 -0.26663919005E+02 -0.53231953483E+01  0.31351136150E+02  0.51100000000E-03 0. -1.
        -11    1    3    3    0    0  0.95843909180E+01 -0.29974017554E+01 -0.75264838922E+00  0.10070325040E+02  0.51100000000E-03 0.  1.
        -12    1    3    3    0    0  0.26558998782E+01  0.35655928367E+01 -0.79484390939E+01  0.91074112935E+01  0.00000000000E+00 0.  1.
</event>
<event>
 7    1  0.2817603E-011  0.5052886E+02  0.7816164E-02  0.1300439E+00
        -11   -1    0    0    0    0  0.00000000000E+00  0.00000000000E+00  0.45593999997E+02  0.45594000000E+02  0.51100000000E-03 0. -1.
         11   -1    0    0    0    0 -0.00000000000E+00 -0.00000000000E+00 -0.45593999997E+02  0.45594000000E+02  0.51100000000E-03 0.  1.
    9900012    2    1    2    0    0  0.40141400514E+02  0.34017750638E+01  0.55010337271E+01  0.50528862271E+02  0.30000007358E+02 0.  0.
        -12    1    1    2    0    0 -0.40141400514E+02 -0.34017750638E+01 -0.55010337271E+01  0.40659137729E+02  0.00000000000E+00 0.  1.
         11    1    3    3    0    0  0.27756942870E+02  0.40506210332E+01  0.55313489428E+01  0.28591104030E+02  0.51100000000E-03 0. -1.
        -11    1    3    3    0    0  0.14941031173E+02  0.20585360762E+01  0.48101995527E+01  0.15830666546E+02  0.51100000000E-03 0.  1.
        -12    1    3    3    0    0 -0.25565735291E+01 -0.27073820456E+01 -0.48405147683E+01  0.61070916952E+01  0.00000000000E+00 0.  1.
</event>
<event>
 7    1  0.2817603E-011  0.5052895E+02  0.7816164E-02  0.1300438E+00
        -11   -1    0    0    0    0  0.00000000000E+00  0.00000000000E+00  0.45593999997E+02  0.45594000000E+02  0.51100000000E-03 0.  1.
         11   -1    0    0    0    0 -0.00000000000E+00 -0.00000000000E+00 -0.45593999997E+02  0.45594000000E+02  0.51100000000E-03 0. -1.
    9900012    2    1    2    0    0 -0.17885443230E+02 -0.34944478216E+02  0.10590200394E+02  0.50528954491E+02  0.30000287669E+02 0.  0.
        -12    1    1    2    0    0  0.17885443230E+02  0.34944478216E+02 -0.10590200394E+02  0.40659045509E+02  0.00000000000E+00 0.  1.
         11    1    3    3    0    0  0.22216124281E+01 -0.69027472872E-01  0.12515273973E+01  0.25508131370E+01  0.51100000000E-03 0. -1.
        -11    1    3    3    0    0  0.13510126256E+01 -0.56603435716E+01 -0.62320983703E+01  0.85266508561E+01  0.51100000000E-03 0.  1.
         12    1    3    3    0    0 -0.21458068284E+02 -0.29215107172E+02  0.15570771367E+02  0.39451490498E+02  0.00000000000E+00 0. -1.
</event>
<event>
 7    1  0.2817603E-011  0.5052884E+02  0.7816164E-02  0.1300439E+00
        -11   -1    0    0    0    0  0.00000000000E+00  0.00000000000E+00  0.45593999997E+02  0.45594000000E+02  0.51100000000E-03 0.  1.
         11   -1    0    0    0    0 -0.00000000000E+00 -0.00000000000E+00 -0.45593999997E+02  0.45594000000E+02  0.51100000000E-03 0. -1.
    9900012    2    1    2    0    0  0.12258817286E+02  0.19517661664E+01 -0.38717942190E+02  0.50528843100E+02  0.29999949085E+02 0.  0.
        -12    1    1    2    0    0 -0.12258817286E+02 -0.19517661664E+01  0.38717942190E+02  0.40659156900E+02  0.00000000000E+00 0.  1.
         11    1    3    3    0    0 -0.81146955918E+00  0.18555209206E+01 -0.56646440344E+00  0.21029319803E+01  0.51100000000E-03 0. -1.
        -11    1    3    3    0    0 -0.76455194738E+01  0.30976497735E+01 -0.66104658823E+01  0.10571076652E+02  0.51100000000E-03 0.  1.
         12    1    3    3    0    0  0.20715806319E+02 -0.30014045276E+01 -0.31541011904E+02  0.37854834467E+02  0.00000000000E+00 0. -1.
</event>
<event>
 7    1  0.2817603E-011  0.5052885E+02  0.7816164E-02  0.1300439E+00
        -11   -1    0    0    0    0  0.00000000000E+00  0.00000000000E+00  0.45593999997E+02  0.45594000000E+02  0.51100000000E-03 0.  1.
         11   -1    0    0    0    0 -0.00000000000E+00 -0.00000000000E+00 -0.45593999997E+02  0.45594000000E+02  0.51100000000E-03 0. -1.
    9900012    2    1    2    0    0 -0.52130261129E+01 -0.18813821013E+02 -0.35665547918E+02  0.50528845918E+02  0.29999957652E+02 0.  0.
        -12    1    1    2    0    0  0.52130261129E+01  0.18813821013E+02  0.35665547918E+02  0.40659154082E+02  0.00000000000E+00 0.  1.
         11    1    3    3    0    0 -0.40221217115E+01 -0.14295514497E+02 -0.15369178665E+02  0.21371730180E+02  0.51100000000E-03 0. -1.
        -11    1    3    3    0    0 -0.36472285036E+01  0.29816223959E+01  0.22854357349E+01  0.52359874550E+01  0.51100000000E-03 0.  1.
         12    1    3    3    0    0  0.24563241022E+01 -0.74999289116E+01 -0.22581804989E+02  0.23921128283E+02  0.00000000000E+00 0. -1.
</event>
<event>
 7    1  0.2817603E-011  0.5052887E+02  0.7816164E-02  0.1300439E+00
        -11   -1    0    0    0    0  0.00000000000E+00  0.00000000000E+00  0.45593999997E+02  0.45594000000E+02  0.51100000000E-03 0. -1.
         11   -1    0    0    0    0 -0.00000000000E+00 -0.00000000000E+00 -0.45593999997E+02  0.45594000000E+02  0.51100000000E-03 0.  1.
    9900012    2    1    2    0    0  0.11077843925E+02 -0.10247184444E+02  0.37755022431E+02  0.50528866539E+02  0.30000020331E+02 0.  0.
        -12    1    1    2    0    0 -0.11077843925E+02  0.10247184444E+02 -0.37755022431E+02  0.40659133461E+02  0.00000000000E+00 0.  1.
         11    1    3    3    0    0  0.65786555028E+01 -0.86119595307E+01  0.58620006141E+01  0.12321022954E+02  0.51100000000E-03 0. -1.
        -11    1    3    3    0    0 -0.79515191066E+01  0.15233053053E+01  0.10564197474E+02  0.13309747694E+02  0.51100000000E-03 0.  1.
        -12    1    3    3    0    0  0.12450707528E+02 -0.31585302185E+01  0.21328824343E+02  0.24898095890E+02  0.00000000000E+00 0.  1.
</event>
<event>
 7    1  0.2817603E-011  0.5052889E+02  0.7816164E-02  0.1300439E+00
        -11   -1    0    0    0    0  0.00000000000E+00  0.00000000000E+00  0.45593999997E+02  0.45594000000E+02  0.51100000000E-03 0.  1.
         11   -1    0    0    0    0 -0.00000000000E+00 -0.00000000000E+00 -0.45593999997E+02  0.45594000000E+02  0.51100000000E-03 0. -1.
    9900012    2    1    2    0    0  0.20018331323E+02 -0.34178058135E+02 -0.91809705598E+01  0.50528887034E+02  0.30000082628E+02 0.  0.
        -12    1    1    2    0    0 -0.20018331323E+02  0.34178058135E+02  0.91809705598E+01  0.40659112966E+02  0.00000000000E+00 0.  1.
         11    1    3    3    0    0  0.55127745744E+01 -0.45684431716E+01 -0.74465862097E+00  0.71983243358E+01  0.51100000000E-03 0. -1.
        -11    1    3    3    0    0  0.45762460890E+01  0.35488350636E+01 -0.64385609935E+01  0.86597532588E+01  0.51100000000E-03 0.  1.
         12    1    3    3    0    0  0.99293106591E+01 -0.33158450027E+02 -0.19977509453E+01  0.34670809439E+02  0.00000000000E+00 0. -1.
</event>
<event>
 7    1  0.2817603E-011  0.5052886E+02  0.7816164E-02  0.1300439E+00
        -11   -1    0    0    0    0  0.00000000000E+00  0.00000000000E+00  0.45593999997E+02  0.45594000000E+02  0.51100000000E-03 0.  1.
         11   -1    0    0    0    0 -0.00000000000E+00 -0.00000000000E+00 -0.45593999997E+02  0.45594000000E+02  0.51100000000E-03 0. -1.
    9900012    2    1    2    0    0  0.39386082616E+02  0.10044738668E+02 -0.10027298406E+01  0.50528859012E+02  0.29999997454E+02 0.  0.
        -12    1    1    2    0    0 -0.39386082616E+02 -0.10044738668E+02  0.10027298406E+01  0.40659140988E+02  0.00000000000E+00 0.  1.
         11    1    3    3    0    0  0.11783144573E+02 -0.45579867467E+01 -0.84448714946E+01  0.15196499401E+02  0.51100000000E-03 0. -1.
        -11    1    3    3    0    0  0.49129337440E+01  0.14056033035E+01  0.75097635260E+01  0.90834567813E+01  0.51100000000E-03 0.  1.
        -12    1    3    3    0    0  0.22690004298E+02  0.13197122111E+02 -0.67621871963E-01  0.26248902830E+02  0.00000000000E+00 0.  1.
</event>
<event>
 7    1  0.2817603E-011  0.5052886E+02  0.7816164E-02  0.1300439E+00
        -11   -1    0    0    0    0  0.00000000000E+00  0.00000000000E+00  0.45593999997E+02  0.45594000000E+02  0.51100000000E-03 0.  1.
         11   -1    0    0    0    0 -0.00000000000E+00 -0.00000000000E+00 -0.45593999997E+02  0.45594000000E+02  0.51100000000E-03 0. -1.
    9900012    2    1    2    0    0 -0.37198601391E+02 -0.89816100063E+01 -0.13739003658E+02  0.50528862217E+02  0.30000007194E+02 0.  0.
        -12    1    1    2    0    0  0.37198601391E+02  0.89816100063E+01  0.13739003658E+02  0.40659137783E+02  0.00000000000E+00 0.  1.
         11    1    3    3    0    0 -0.21514277223E+02  0.40228607054E+01 -0.35191696555E+01  0.22168267592E+02  0.51100000000E-03 0. -1.
        -11    1    3    3    0    0 -0.91889964028E+01  0.11368771962E+01 -0.87334535259E+01  0.12728053873E+02  0.51100000000E-03 0.  1.
        -12    1    3    3    0    0 -0.64953277651E+01 -0.14141347908E+02 -0.14863804767E+01  0.15632540752E+02  0.00000000000E+00 0.  1.
</event>
<event>
 7    1  0.2817603E-011  0.5052886E+02  0.7816164E-02  0.1300439E+00
        -11   -1    0    0    0    0  0.00000000000E+00  0.00000000000E+00  0.45593999997E+02  0.45594000000E+02  0.51100000000E-03 0.  1.
         11   -1    0    0    0    0 -0.00000000000E+00 -0.00000000000E+00 -0.45593999997E+02  0.45594000000E+02  0.51100000000E-03 0. -1.
    9900012    2    1    2    0    0  0.20721853513E+02  0.72703594372E+01 -0.34218594295E+02  0.50528861606E+02  0.30000005339E+02 0.  0.
        -12    1    1    2    0    0 -0.20721853513E+02 -0.72703594372E+01  0.34218594295E+02  0.40659138394E+02  0.00000000000E+00 0.  1.
         11    1    3    3    0    0  0.61737827242E+01 -0.61128710969E+01 -0.19195458299E+02  0.21070083193E+02  0.51100000000E-03 0. -1.
        -11    1    3    3    0    0  0.37394572395E+01  0.24777597116E+01 -0.13266384434E+02  0.14004277556E+02  0.51100000000E-03 0.  1.
        -12    1    3    3    0    0  0.10808613550E+02  0.10905470823E+02 -0.17567515617E+01  0.15454500858E+02  0.00000000000E+00 0.  1.
</event>
<event>
 7    1  0.2817603E-011  0.5052886E+02  0.7816164E-02  0.1300439E+00
        -11   -1    0    0    0    0  0.00000000000E+00  0.00000000000E+00  0.45593999997E+02  0.45594000000E+02  0.51100000000E-03 0. -1.
         11   -1    0    0    0    0 -0.00000000000E+00 -0.00000000000E+00 -0.45593999997E+02  0.45594000000E+02  0.51100000000E-03 0.  1.
    9900012    2    1    2    0    0 -0.24836855495E+02 -0.26900337677E+02  0.17682435056E+02  0.50528855056E+02  0.29999985429E+02 0.  0.
        -12    1    1    2    0    0  0.24836855495E+02  0.26900337677E+02 -0.17682435056E+02  0.40659144944E+02  0.00000000000E+00 0.  1.
         11    1    3    3    0    0  0.16792785637E+00 -0.16321768007E+01  0.12740668929E+02  0.12845888288E+02  0.51100000000E-03 0. -1.
        -11    1    3    3    0    0 -0.97535968690E+01 -0.46509806674E+01 -0.22733659848E+01  0.11042303483E+02  0.51100000000E-03 0.  1.
        -12    1    3    3    0    0 -0.15251186483E+02 -0.20617180209E+02  0.72151321112E+01  0.26640663285E+02  0.00000000000E+00 0.  1.
</event>
<event>
 7    1  0.2817603E-011  0.5052887E+02  0.7816164E-02  0.1300439E+00
        -11   -1    0    0    0    0  0.00000000000E+00  0.00000000000E+00  0.45593999997E+02  0.45594000000E+02  0.51100000000E-03 0. -1.
         11   -1    0    0    0    0 -0.00000000000E+00 -0.00000000000E+00 -0.45593999997E+02  0.45594000000E+02  0.51100000000E-03 0.  1.
    9900012    2    1    2    0    0 -0.72449716332E+01  0.35734368973E+02  0.17992505763E+02  0.50528868142E+02  0.30000025203E+02 0.  0.
        -12    1    1    2    0    0  0.72449716332E+01 -0.35734368973E+02 -0.17992505763E+02  0.40659131858E+02  0.00000000000E+00 0.  1.
         11    1    3    3    0    0 -0.46223367813E+01  0.12677924190E+02  0.66638367625E+01  0.15049999327E+02  0.51100000000E-03 0. -1.
        -11    1    3    3    0    0  0.35167806122E+01  0.25854134939E+02  0.11959745064E+02  0.28702605136E+02  0.51100000000E-03 0.  1.
        -12    1    3    3    0    0 -0.61394154641E+01 -0.27976901560E+01 -0.63107606374E+00  0.67762636790E+01  0.00000000000E+00 0.  1.
</event>
<event>
 7    1  0.2817603E-011  0.5052886E+02  0.7816164E-02  0.1300439E+00
        -11   -1    0    0    0    0  0.00000000000E+00  0.00000000000E+00  0.45593999997E+02  0.45594000000E+02  0.51100000000E-03 0. -1.
         11   -1    0    0    0    0 -0.00000000000E+00 -0.00000000000E+00 -0.45593999997E+02  0.45594000000E+02  0.51100000000E-03 0.  1.
    9900012    2    1    2    0    0  0.13623785693E+02 -0.36949201377E+02  0.10115071200E+02  0.50528859768E+02  0.29999999751E+02 0.  0.
        -12    1    1    2    0    0 -0.13623785693E+02  0.36949201377E+02 -0.10115071200E+02  0.40659140232E+02  0.00000000000E+00 0.  1.
         11    1    3    3    0    0  0.97672902958E+01 -0.23947479975E+02 -0.30153779818E+01  0.26037938887E+02  0.51100000000E-03 0. -1.
        -11    1    3    3    0    0  0.46308562401E+01  0.12824529343E+01 -0.37233591851E+00  0.48195590403E+01  0.51100000000E-03 0.  1.
        -12    1    3    3    0    0 -0.77436084305E+00 -0.14284174337E+02  0.13502785100E+02  0.19671361841E+02  0.00000000000E+00 0.  1.
</event>
<event>
 7    1  0.2817603E-011  0.5052887E+02  0.7816164E-02  0.1300439E+00
        -11   -1    0    0    0    0  0.00000000000E+00  0.00000000000E+00  0.45593999997E+02  0.45594000000E+02  0.51100000000E-03 0.  1.
         11   -1    0    0    0    0 -0.00000000000E+00 -0.00000000000E+00 -0.45593999997E+02  0.45594000000E+02  0.51100000000E-03 0. -1.
    9900012    2    1    2    0    0  0.24382270353E+02 -0.19745917182E+02 -0.25860565686E+02  0.50528865595E+02  0.30000017464E+02 0.  0.
        -12    1    1    2    0    0 -0.24382270353E+02  0.19745917182E+02  0.25860565686E+02  0.40659134405E+02  0.00000000000E+00 0.  1.
         11    1    3    3    0    0 -0.10666891639E+01  0.22100045429E+01  0.45599260348E+00  0.24959718283E+01  0.51100000000E-03 0. -1.
        -11    1    3    3    0    0  0.49859551203E-01 -0.41905714780E+01  0.31681144904E+01  0.52536011433E+01  0.51100000000E-03 0.  1.
         12    1    3    3    0    0  0.25399099966E+02 -0.17765350247E+02 -0.29484672780E+02  0.42779292624E+02  0.00000000000E+00 0. -1.
</event>
<event>
 7    1  0.2817603E-011  0.5052886E+02  0.7816164E-02  0.1300439E+00
        -11   -1    0    0    0    0  0.00000000000E+00  0.00000000000E+00  0.45593999997E+02  0.45594000000E+02  0.51100000000E-03 0.  1.
         11   -1    0    0    0    0 -0.00000000000E+00 -0.00000000000E+00 -0.45593999997E+02  0.45594000000E+02  0.51100000000E-03 0. -1.
    9900012    2    1    2    0    0  0.36509831516E+02 -0.86476625496E+01 -0.15665758095E+02  0.50528857835E+02  0.29999993875E+02 0.  0.
        -12    1    1    2    0    0 -0.36509831516E+02  0.86476625496E+01  0.15665758095E+02  0.40659142165E+02  0.00000000000E+00 0.  1.
         11    1    3    3    0    0  0.22851822202E+02 -0.68872432301E+01  0.13356052120E+01  0.23904471105E+02  0.51100000000E-03 0. -1.
        -11    1    3    3    0    0  0.11666185072E+02  0.46037279127E+01 -0.63497640735E+01  0.14057513609E+02  0.51100000000E-03 0.  1.
         12    1    3    3    0    0  0.19918242427E+01 -0.63641472322E+01 -0.10651599233E+02  0.12566873121E+02  0.00000000000E+00 0. -1.
</event>
<event>
 7    1  0.2817603E-011  0.5052886E+02  0.7816164E-02  0.1300439E+00
        -11   -1    0    0    0    0  0.00000000000E+00  0.00000000000E+00  0.45593999997E+02  0.45594000000E+02  0.51100000000E-03 0.  1.
         11   -1    0    0    0    0 -0.00000000000E+00 -0.00000000000E+00 -0.45593999997E+02  0.45594000000E+02  0.51100000000E-03 0. -1.
    9900012    2    1    2    0    0  0.43638710850E+01 -0.40161442399E+02  0.46022955565E+01  0.50528856492E+02  0.29999989792E+02 0.  0.
        -12    1    1    2    0    0 -0.43638710850E+01  0.40161442399E+02 -0.46022955565E+01  0.40659143508E+02  0.00000000000E+00 0.  1.
         11    1    3    3    0    0  0.39715804192E+01 -0.20257454953E+02 -0.69683393740E+01  0.21787512159E+02  0.51100000000E-03 0. -1.
        -11    1    3    3    0    0  0.64476528743E+01 -0.18663316169E+02  0.10816988842E+02  0.22514414180E+02  0.51100000000E-03 0.  1.
        -12    1    3    3    0    0 -0.60553622085E+01 -0.12406712774E+01  0.75364608855E+00  0.62269301523E+01  0.00000000000E+00 0.  1.
</event>
<event>
 7    1  0.2817603E-011  0.5052887E+02  0.7816164E-02  0.1300439E+00
        -11   -1    0    0    0    0  0.00000000000E+00  0.00000000000E+00  0.45593999997E+02  0.45594000000E+02  0.51100000000E-03 0.  1.
         11   -1    0    0    0    0 -0.00000000000E+00 -0.00000000000E+00 -0.45593999997E+02  0.45594000000E+02  0.51100000000E-03 0. -1.
    9900012    2    1    2    0    0  0.30719771810E+02 -0.14874916087E+02 -0.22095183717E+02  0.50528872462E+02  0.30000038336E+02 0.  0.
        -12    1    1    2    0    0 -0.30719771810E+02  0.14874916087E+02  0.22095183717E+02  0.40659127538E+02  0.00000000000E+00 0.  1.
         11    1    3    3    0    0  0.87606865354E+01 -0.11389529061E+01  0.21504935375E+01  0.90923850012E+01  0.51100000000E-03 0. -1.
        -11    1    3    3    0    0 -0.15385466366E+01 -0.48642167119E+01  0.16492083729E+01  0.53616805660E+01  0.51100000000E-03 0.  1.
         12    1    3    3    0    0  0.23497631911E+02 -0.88717464688E+01 -0.25894885628E+02  0.36074806895E+02  0.00000000000E+00 0. -1.
</event>
<event>
 7    1  0.2817603E-011  0.5052874E+02  0.7816164E-02  0.1300439E+00
        -11   -1    0    0    0    0  0.00000000000E+00  0.00000000000E+00  0.45593999997E+02  0.45594000000E+02  0.51100000000E-03 0.  1.
         11   -1    0    0    0    0 -0.00000000000E+00 -0.00000000000E+00 -0.45593999997E+02  0.45594000000E+02  0.51100000000E-03 0. -1.
    9900012    2    1    2    0    0  0.10057691695E+02  0.34231065680E+02 -0.19500064971E+02  0.50528738402E+02  0.29999630844E+02 0.  0.
        -12    1    1    2    0    0 -0.10057691695E+02 -0.34231065680E+02  0.19500064971E+02  0.40659261598E+02  0.00000000000E+00 0.  1.
         11    1    3    3    0    0  0.67262117013E+00  0.49892575506E+01 -0.15368404675E+02  0.16171981098E+02  0.51100000000E-03 0. -1.
        -11    1    3    3    0    0  0.41034310022E+01  0.94350400012E+01  0.55459581727E+01  0.11688275242E+02  0.51100000000E-03 0.  1.
         12    1    3    3    0    0  0.52816395224E+01  0.19806768128E+02 -0.96776184694E+01  0.22668482062E+02  0.00000000000E+00 0. -1.
</event>
<event>
 7    1  0.2817603E-011  0.5052885E+02  0.7816164E-02  0.1300439E+00
        -11   -1    0    0    0    0  0.00000000000E+00  0.00000000000E+00  0.45593999997E+02  0.45594000000E+02  0.51100000000E-03 0.  1.
         11   -1    0    0    0    0 -0.00000000000E+00 -0.00000000000E+00 -0.45593999997E+02  0.45594000000E+02  0.51100000000E-03 0. -1.
    9900012    2    1    2    0    0 -0.21506698263E+01  0.40595390208E+02  0.74506084281E+00  0.50528853397E+02  0.29999980386E+02 0.  0.
        -12    1    1    2    0    0  0.21506698263E+01 -0.40595390208E+02 -0.74506084281E+00  0.40659146603E+02  0.00000000000E+00 0.  1.
         11    1    3    3    0    0  0.21293926588E+01  0.66052904825E+01  0.38343609836E+01  0.79288397555E+01  0.51100000000E-03 0. -1.
        -11    1    3    3    0    0 -0.89627615365E+01  0.24758812743E+02  0.79124375978E+01  0.27494300715E+02  0.51100000000E-03 0.  1.
        -12    1    3    3    0    0  0.46826990514E+01  0.92312869825E+01 -0.11001737739E+02  0.15105712927E+02  0.00000000000E+00 0.  1.
</event>
<event>
 7    1  0.2817603E-011  0.5052886E+02  0.7816164E-02  0.1300439E+00
        -11   -1    0    0    0    0  0.00000000000E+00  0.00000000000E+00  0.45593999997E+02  0.45594000000E+02  0.51100000000E-03 0. -1.
         11   -1    0    0    0    0 -0.00000000000E+00 -0.00000000000E+00 -0.45593999997E+02  0.45594000000E+02  0.51100000000E-03 0.  1.
    9900012    2    1    2    0    0  0.41312830030E+01 -0.13187836758E+02  0.38238450433E+02  0.50528860448E+02  0.30000001818E+02 0.  0.
        -12    1    1    2    0    0 -0.41312830030E+01  0.13187836758E+02 -0.38238450433E+02  0.40659139552E+02  0.00000000000E+00 0.  1.
         11    1    3    3    0    0 -0.14234295561E+01 -0.16243252172E+01  0.10550338567E+02  0.10769133124E+02  0.51100000000E-03 0. -1.
        -11    1    3    3    0    0 -0.37154956276E+01  0.67636150966E+01  0.10162032774E+02  0.12760027715E+02  0.51100000000E-03 0.  1.
         12    1    3    3    0    0  0.92702081868E+01 -0.18327126638E+02  0.17526079092E+02  0.26999699609E+02  0.00000000000E+00 0. -1.
</event>
<event>
 7    1  0.2817603E-011  0.5052887E+02  0.7816164E-02  0.1300439E+00
        -11   -1    0    0    0    0  0.00000000000E+00  0.00000000000E+00  0.45593999997E+02  0.45594000000E+02  0.51100000000E-03 0. -1.
         11   -1    0    0    0    0 -0.00000000000E+00 -0.00000000000E+00 -0.45593999997E+02  0.45594000000E+02  0.51100000000E-03 0.  1.
    9900012    2    1    2    0    0  0.32746995900E+02  0.52408952543E+01  0.23523021034E+02  0.50528865207E+02  0.30000016282E+02 0.  0.
        -12    1    1    2    0    0 -0.32746995900E+02 -0.52408952543E+01 -0.23523021034E+02  0.40659134793E+02  0.00000000000E+00 0.  1.
         11    1    3    3    0    0  0.15113348892E+02  0.77760951334E+01  0.19019030958E+02  0.25506950211E+02  0.51100000000E-03 0. -1.
        -11    1    3    3    0    0  0.19347441756E+02  0.14627637511E+01  0.98627443375E+00  0.19427710050E+02  0.51100000000E-03 0.  1.
        -12    1    3    3    0    0 -0.17137947468E+01 -0.39979636303E+01  0.35177156424E+01  0.55942049448E+01  0.00000000000E+00 0.  1.
</event>
<event>
 7    1  0.2817603E-011  0.5052886E+02  0.7816164E-02  0.1300439E+00
        -11   -1    0    0    0    0  0.00000000000E+00  0.00000000000E+00  0.45593999997E+02  0.45594000000E+02  0.51100000000E-03 0.  1.
         11   -1    0    0    0    0 -0.00000000000E+00 -0.00000000000E+00 -0.45593999997E+02  0.45594000000E+02  0.51100000000E-03 0. -1.
    9900012    2    1    2    0    0 -0.75959748217E+01  0.27983943447E+02 -0.28502029587E+02  0.50528860623E+02  0.30000002348E+02 0.  0.
        -12    1    1    2    0    0  0.75959748217E+01 -0.27983943447E+02  0.28502029587E+02  0.40659139377E+02  0.00000000000E+00 0.  1.
         11    1    3    3    0    0 -0.63746040705E+01  0.63451607213E+01 -0.32934594488E+01  0.95782836164E+01  0.51100000000E-03 0. -1.
        -11    1    3    3    0    0  0.67759043191E+01  0.26280925592E+01  0.12800769734E+01  0.73795899046E+01  0.51100000000E-03 0.  1.
         12    1    3    3    0    0 -0.79972750703E+01  0.19010690166E+02 -0.26488647112E+02  0.33570987102E+02  0.00000000000E+00 0. -1.
</event>
<event>
 7    1  0.2817603E-011  0.5052885E+02  0.7816164E-02  0.1300439E+00
        -11   -1    0    0    0    0  0.00000000000E+00  0.00000000000E+00  0.45593999997E+02  0.45594000000E+02  0.51100000000E-03 0.  1.
         11   -1    0    0    0    0 -0.00000000000E+00 -0.00000000000E+00 -0.45593999997E+02  0.45594000000E+02  0.51100000000E-03 0. -1.
    9900012    2    1    2    0    0  0.13277342858E+02  0.22156829241E+02 -0.31399902185E+02  0.50528846386E+02  0.29999959075E+02 0.  0.
        -12    1    1    2    0    0 -0.13277342858E+02 -0.22156829241E+02  0.31399902185E+02  0.40659153614E+02  0.00000000000E+00 0.  1.
         11    1    3    3    0    0  0.16852815977E+01  0.89200848980E+01 -0.32505144373E+00  0.90837077977E+01  0.51100000000E-03 0. -1.
        -11    1    3    3    0    0 -0.38413998486E+01  0.55913159127E+01 -0.10970985998E+01  0.68718841689E+01  0.51100000000E-03 0.  1.
         12    1    3    3    0    0  0.15433461109E+02  0.76454284301E+01 -0.29977752141E+02  0.34573254419E+02  0.00000000000E+00 0. -1.
</event>
<event>
 7    1  0.2817603E-011  0.5052886E+02  0.7816164E-02  0.1300439E+00
        -11   -1    0    0    0    0  0.00000000000E+00  0.00000000000E+00  0.45593999997E+02  0.45594000000E+02  0.51100000000E-03 0. -1.
         11   -1    0    0    0    0 -0.00000000000E+00 -0.00000000000E+00 -0.45593999997E+02  0.45594000000E+02  0.51100000000E-03 0.  1.
    9900012    2    1    2    0    0 -0.25608046997E+02 -0.25847318180E+02  0.18146894721E+02  0.50528859378E+02  0.29999998567E+02 0.  0.
        -12    1    1    2    0    0  0.25608046997E+02  0.25847318180E+02 -0.18146894721E+02  0.40659140622E+02  0.00000000000E+00 0.  1.
         11    1    3    3    0    0 -0.61855529587E+01  0.30147955752E+01  0.37327908197E+01  0.78283960892E+01  0.51100000000E-03 0. -1.
        -11    1    3    3    0    0  0.37584876902E+01 -0.70893799379E+01  0.53042275208E+01  0.96187508271E+01  0.51100000000E-03 0.  1.
        -12    1    3    3    0    0 -0.23180981728E+02 -0.21772733817E+02  0.91098763805E+01  0.33081712462E+02  0.00000000000E+00 0.  1.
</event>
<event>
 7    1  0.2817603E-011  0.5052887E+02  0.7816164E-02  0.1300439E+00
        -11   -1    0    0    0    0  0.00000000000E+00  0.00000000000E+00  0.45593999997E+02  0.45594000000E+02  0.51100000000E-03 0.  1.
         11   -1    0    0    0    0 -0.00000000000E+00 -0.00000000000E+00 -0.45593999997E+02  0.45594000000E+02  0.51100000000E-03 0. -1.
    9900012    2    1    2    0    0 -0.20908013854E+02  0.11200994602E+02 -0.33023595786E+02  0.50528865700E+02  0.30000017781E+02 0.  0.
        -12    1    1    2    0    0  0.20908013854E+02 -0.11200994602E+02  0.33023595786E+02  0.40659134300E+02  0.00000000000E+00 0.  1.
         11    1    3    3    0    0 -0.13045373341E+01  0.14120009867E+01 -0.66508210326E+01  0.69230762752E+01  0.51100000000E-03 0. -1.
        -11    1    3    3    0    0  0.65761416015E+01  0.36077640237E+01 -0.83633905743E+01  0.11234229024E+02  0.51100000000E-03 0.  1.
         12    1    3    3    0    0 -0.26179618121E+02  0.61812295920E+01 -0.18009384179E+02  0.32371560400E+02  0.00000000000E+00 0. -1.
</event>
<event>
 7    1  0.2817603E-011  0.5052890E+02  0.7816164E-02  0.1300439E+00
        -11   -1    0    0    0    0  0.00000000000E+00  0.00000000000E+00  0.45593999997E+02  0.45594000000E+02  0.51100000000E-03 0.  1.
         11   -1    0    0    0    0 -0.00000000000E+00 -0.00000000000E+00 -0.45593999997E+02  0.45594000000E+02  0.51100000000E-03 0. -1.
    9900012    2    1    2    0    0 -0.25120781533E+02 -0.12983151973E+02 -0.29215518320E+02  0.50528900026E+02  0.30000122120E+02 0.  0.
        -12    1    1    2    0    0  0.25120781533E+02  0.12983151973E+02  0.29215518320E+02  0.40659099974E+02  0.00000000000E+00 0.  1.
         11    1    3    3    0    0 -0.10596638743E+02  0.13737751258E+01  0.17265785961E+01  0.10823912632E+02  0.51100000000E-03 0.  1.
        -11    1    3    3    0    0 -0.44533441704E+01  0.26005590712E+01 -0.62317074049E+01  0.80888416491E+01  0.51100000000E-03 0. -1.
        -12    1    3    3    0    0 -0.10070798619E+02 -0.16957486170E+02 -0.24710389511E+02  0.31616145746E+02  0.00000000000E+00 0.  1.
</event>
<event>
 7    1  0.2817603E-011  0.5052887E+02  0.7816164E-02  0.1300439E+00
        -11   -1    0    0    0    0  0.00000000000E+00  0.00000000000E+00  0.45593999997E+02  0.45594000000E+02  0.51100000000E-03 0.  1.
         11   -1    0    0    0    0 -0.00000000000E+00 -0.00000000000E+00 -0.45593999997E+02  0.45594000000E+02  0.51100000000E-03 0. -1.
    9900012    2    1    2    0    0 -0.32142129187E+02  0.22429865625E+02  0.10814331335E+02  0.50528866919E+02  0.30000021488E+02 0.  0.
        -12    1    1    2    0    0  0.32142129187E+02 -0.22429865625E+02 -0.10814331335E+02  0.40659133081E+02  0.00000000000E+00 0.  1.
         11    1    3    3    0    0 -0.17534316957E+02  0.10415300016E+02  0.33984412965E+01  0.20675593077E+02  0.51100000000E-03 0. -1.
        -11    1    3    3    0    0 -0.44644940232E+01  0.11224756774E+02  0.13406894384E+02  0.18046376057E+02  0.51100000000E-03 0.  1.
         12    1    3    3    0    0 -0.10143318207E+02  0.78980883497E+00 -0.59910043454E+01  0.11806897785E+02  0.00000000000E+00 0. -1.
</event>
<event>
 7    1  0.2817603E-011  0.5052886E+02  0.7816164E-02  0.1300439E+00
        -11   -1    0    0    0    0  0.00000000000E+00  0.00000000000E+00  0.45593999997E+02  0.45594000000E+02  0.51100000000E-03 0.  1.
         11   -1    0    0    0    0 -0.00000000000E+00 -0.00000000000E+00 -0.45593999997E+02  0.45594000000E+02  0.51100000000E-03 0. -1.
    9900012    2    1    2    0    0  0.15153537264E+01 -0.14660848195E+02 -0.37893650843E+02  0.50528861533E+02  0.30000005115E+02 0.  0.
        -12    1    1    2    0    0 -0.15153537264E+01  0.14660848195E+02  0.37893650843E+02  0.40659138467E+02  0.00000000000E+00 0.  1.
         11    1    3    3    0    0 -0.17764323952E+01 -0.51712240938E+00 -0.16987535732E+02  0.17087992806E+02  0.51100000000E-03 0. -1.
        -11    1    3    3    0    0 -0.40965703981E+01  0.29688370267E+01  0.46822874296E+00  0.50808582675E+01  0.51100000000E-03 0.  1.
        -12    1    3    3    0    0  0.73883565197E+01 -0.17112562812E+02 -0.21374343854E+02  0.28360010459E+02  0.00000000000E+00 0.  1.
</event>
<event>
 7    1  0.2817603E-011  0.5052886E+02  0.7816164E-02  0.1300439E+00
        -11   -1    0    0    0    0  0.00000000000E+00  0.00000000000E+00  0.45593999997E+02  0.45594000000E+02  0.51100000000E-03 0.  1.
         11   -1    0    0    0    0 -0.00000000000E+00 -0.00000000000E+00 -0.45593999997E+02  0.45594000000E+02  0.51100000000E-03 0. -1.
    9900012    2    1    2    0    0  0.14485735541E+02 -0.25673673890E+02 -0.28003426057E+02  0.50528856673E+02  0.29999990343E+02 0.  0.
        -12    1    1    2    0    0 -0.14485735541E+02  0.25673673890E+02  0.28003426057E+02  0.40659143327E+02  0.00000000000E+00 0.  1.
         11    1    3    3    0    0  0.10841962890E+02 -0.72338031952E+01 -0.80755168987E+01  0.15332646263E+02  0.51100000000E-03 0. -1.
        -11    1    3    3    0    0 -0.34674151938E+01 -0.19215842805E+02 -0.76197080521E+01  0.20960236971E+02  0.51100000000E-03 0.  1.
         12    1    3    3    0    0  0.71111878446E+01  0.77597211028E+00 -0.12308201106E+02  0.14235973439E+02  0.00000000000E+00 0. -1.
</event>
<event>
 7    1  0.2817603E-011  0.5052886E+02  0.7816164E-02  0.1300439E+00
        -11   -1    0    0    0    0  0.00000000000E+00  0.00000000000E+00  0.45593999997E+02  0.45594000000E+02  0.51100000000E-03 0. -1.
         11   -1    0    0    0    0 -0.00000000000E+00 -0.00000000000E+00 -0.45593999997E+02  0.45594000000E+02  0.51100000000E-03 0.  1.
    9900012    2    1    2    0    0  0.89691243392E+00  0.23054736431E+02  0.33478948247E+02  0.50528864500E+02  0.30000014135E+02 0.  0.
        -12    1    1    2    0    0 -0.89691243392E+00 -0.23054736431E+02 -0.33478948247E+02  0.40659135500E+02  0.00000000000E+00 0.  1.
         11    1    3    3    0    0  0.70067096595E+00  0.19619129713E+02  0.30263327323E+02  0.36073122563E+02  0.51100000000E-03 0. -1.
        -11    1    3    3    0    0 -0.13803767981E+01  0.27547111004E+01  0.84249070878E+01  0.89706707136E+01  0.51100000000E-03 0.  1.
        -12    1    3    3    0    0  0.15766182661E+01  0.68089561764E+00 -0.52092861634E+01  0.54850712239E+01  0.00000000000E+00 0.  1.
</event>
<event>
 7    1  0.2817603E-011  0.5052886E+02  0.7816164E-02  0.1300439E+00
        -11   -1    0    0    0    0  0.00000000000E+00  0.00000000000E+00  0.45593999997E+02  0.45594000000E+02  0.51100000000E-03 0. -1.
         11   -1    0    0    0    0 -0.00000000000E+00 -0.00000000000E+00 -0.45593999997E+02  0.45594000000E+02  0.51100000000E-03 0.  1.
    9900012    2    1    2    0    0  0.22011855921E+02 -0.32369251787E+02  0.10994332530E+02  0.50528860681E+02  0.30000002527E+02 0.  0.
        -12    1    1    2    0    0 -0.22011855921E+02  0.32369251787E+02 -0.10994332530E+02  0.40659139319E+02  0.00000000000E+00 0.  1.
         11    1    3    3    0    0  0.14606990608E+02 -0.15931199231E+02  0.39279457087E+01  0.21968068675E+02  0.51100000000E-03 0. -1.
        -11    1    3    3    0    0  0.12030035128E+02 -0.18897541080E+02  0.51782382992E+01  0.22992454331E+02  0.51100000000E-03 0.  1.
        -12    1    3    3    0    0 -0.46251698147E+01  0.24594885240E+01  0.18881485223E+01  0.55683376745E+01  0.00000000000E+00 0.  1.
</event>
<event>
 7    1  0.2817603E-011  0.5052885E+02  0.7816164E-02  0.1300439E+00
        -11   -1    0    0    0    0  0.00000000000E+00  0.00000000000E+00  0.45593999997E+02  0.45594000000E+02  0.51100000000E-03 0.  1.
         11   -1    0    0    0    0 -0.00000000000E+00 -0.00000000000E+00 -0.45593999997E+02  0.45594000000E+02  0.51100000000E-03 0. -1.
    9900012    2    1    2    0    0 -0.29610837250E+02 -0.16064636062E+02 -0.22766035897E+02  0.50528848448E+02  0.29999965343E+02 0.  0.
        -12    1    1    2    0    0  0.29610837250E+02  0.16064636062E+02  0.22766035897E+02  0.40659151552E+02  0.00000000000E+00 0.  1.
         11    1    3    3    0    0 -0.29515152674E+02 -0.84196199772E+01 -0.17657333330E+02  0.35409259502E+02  0.51100000000E-03 0. -1.
        -11    1    3    3    0    0 -0.38696842879E+01 -0.28513769751E+01  0.24587315154E+01  0.53990895592E+01  0.51100000000E-03 0.  1.
        -12    1    3    3    0    0  0.37739997116E+01 -0.47936391099E+01 -0.75674340821E+01  0.97204993867E+01  0.00000000000E+00 0.  1.
</event>
<event>
 7    1  0.2817603E-011  0.5052886E+02  0.7816164E-02  0.1300439E+00
        -11   -1    0    0    0    0  0.00000000000E+00  0.00000000000E+00  0.45593999997E+02  0.45594000000E+02  0.51100000000E-03 0.  1.
         11   -1    0    0    0    0 -0.00000000000E+00 -0.00000000000E+00 -0.45593999997E+02  0.45594000000E+02  0.51100000000E-03 0. -1.
    9900012    2    1    2    0    0  0.11367999252E+02 -0.16049507904E+02 -0.35585783058E+02  0.50528855065E+02  0.29999985457E+02 0.  0.
        -12    1    1    2    0    0 -0.11367999252E+02  0.16049507904E+02  0.35585783058E+02  0.40659144935E+02  0.00000000000E+00 0.  1.
         11    1    3    3    0    0  0.88837443082E+00 -0.16709428382E+01 -0.69797499061E+01  0.72317472377E+01  0.51100000000E-03 0. -1.
        -11    1    3    3    0    0  0.16649610927E+02 -0.77228347916E+01 -0.28878644623E+02  0.34217361628E+02  0.51100000000E-03 0.  1.
         12    1    3    3    0    0 -0.61699861064E+01 -0.66557302742E+01  0.27261147095E+00  0.90797461997E+01  0.00000000000E+00 0. -1.
</event>
<event>
 7    1  0.2817603E-011  0.5052875E+02  0.7816164E-02  0.1300439E+00
        -11   -1    0    0    0    0  0.00000000000E+00  0.00000000000E+00  0.45593999997E+02  0.45594000000E+02  0.51100000000E-03 0. -1.
         11   -1    0    0    0    0 -0.00000000000E+00 -0.00000000000E+00 -0.45593999997E+02  0.45594000000E+02  0.51100000000E-03 0.  1.
    9900012    2    1    2    0    0  0.34556338435E+02 -0.11955859288E+02  0.17778952251E+02  0.50528754551E+02  0.29999679931E+02 0.  0.
        -12    1    1    2    0    0 -0.34556338435E+02  0.11955859288E+02 -0.17778952251E+02  0.40659245449E+02  0.00000000000E+00 0.  1.
         11    1    3    3    0    0  0.62979573297E+01  0.58509526176E+01  0.62071815051E+01  0.10603160640E+02  0.51100000000E-03 0. -1.
        -11    1    3    3    0    0 -0.14771839238E+01 -0.65225947859E+00  0.46276201697E+01  0.49012634563E+01  0.51100000000E-03 0.  1.
         12    1    3    3    0    0  0.29735565029E+02 -0.17154552427E+02  0.69441505759E+01  0.35024330455E+02  0.00000000000E+00 0. -1.
</event>
<event>
 7    1  0.2817603E-011  0.5052878E+02  0.7816164E-02  0.1300439E+00
        -11   -1    0    0    0    0  0.00000000000E+00  0.00000000000E+00  0.45593999997E+02  0.45594000000E+02  0.51100000000E-03 0.  1.
         11   -1    0    0    0    0 -0.00000000000E+00 -0.00000000000E+00 -0.45593999997E+02  0.45594000000E+02  0.51100000000E-03 0. -1.
    9900012    2    1    2    0    0  0.19245212093E+02 -0.24689876629E+01 -0.35730909250E+02  0.50528782540E+02  0.29999765009E+02 0.  0.
        -12    1    1    2    0    0 -0.19245212093E+02  0.24689876629E+01  0.35730909250E+02  0.40659217460E+02  0.00000000000E+00 0.  1.
         11    1    3    3    0    0  0.80831655413E-01 -0.80818166350E-01 -0.13751264629E+02  0.13751739689E+02  0.51100000000E-03 0. -1.
        -11    1    3    3    0    0  0.56198425793E+01 -0.99726323132E+01 -0.16961047829E+02  0.20462482000E+02  0.51100000000E-03 0.  1.
        -12    1    3    3    0    0  0.13544537858E+02  0.75844628167E+01 -0.50185967926E+01  0.16314560851E+02  0.00000000000E+00 0.  1.
</event>
<event>
 7    1  0.2817603E-011  0.5052885E+02  0.7816164E-02  0.1300439E+00
        -11   -1    0    0    0    0  0.00000000000E+00  0.00000000000E+00  0.45593999997E+02  0.45594000000E+02  0.51100000000E-03 0.  1.
         11   -1    0    0    0    0 -0.00000000000E+00 -0.00000000000E+00 -0.45593999997E+02  0.45594000000E+02  0.51100000000E-03 0. -1.
    9900012    2    1    2    0    0  0.28095509896E+02 -0.22667591386E+02 -0.18707993584E+02  0.50528850974E+02  0.29999973022E+02 0.  0.
        -12    1    1    2    0    0 -0.28095509896E+02  0.22667591386E+02  0.18707993584E+02  0.40659149026E+02  0.00000000000E+00 0.  1.
         11    1    3    3    0    0  0.33807836682E+01 -0.89851563525E+01  0.22454039804E+01  0.98592379110E+01  0.51100000000E-03 0. -1.
        -11    1    3    3    0    0  0.65304247386E+01 -0.51484859253E+01  0.35011100742E+01  0.90228114578E+01  0.51100000000E-03 0.  1.
         12    1    3    3    0    0  0.18184301489E+02 -0.85339491081E+01 -0.24454507639E+02  0.31646801606E+02  0.00000000000E+00 0. -1.
</event>
<event>
 7    1  0.2817603E-011  0.5052886E+02  0.7816164E-02  0.1300439E+00
        -11   -1    0    0    0    0  0.00000000000E+00  0.00000000000E+00  0.45593999997E+02  0.45594000000E+02  0.51100000000E-03 0.  1.
         11   -1    0    0    0    0 -0.00000000000E+00 -0.00000000000E+00 -0.45593999997E+02  0.45594000000E+02  0.51100000000E-03 0. -1.
    9900012    2    1    2    0    0 -0.33188724343E+00 -0.22617801615E+02 -0.33785951628E+02  0.50528860481E+02  0.30000001918E+02 0.  0.
        -12    1    1    2    0    0  0.33188724343E+00  0.22617801615E+02  0.33785951628E+02  0.40659139519E+02  0.00000000000E+00 0.  1.
         11    1    3    3    0    0  0.19303522736E+01 -0.17981055291E+02 -0.23605383789E+01  0.18237783609E+02  0.51100000000E-03 0.  1.
        -11    1    3    3    0    0  0.75970953591E+00 -0.42653959571E+01 -0.16584997752E+02  0.17141555120E+02  0.51100000000E-03 0. -1.
        -12    1    3    3    0    0 -0.30219490530E+01 -0.37135036678E+00 -0.14840415497E+02  0.15149521752E+02  0.00000000000E+00 0.  1.
</event>
<event>
 7    1  0.2817603E-011  0.5052886E+02  0.7816164E-02  0.1300439E+00
        -11   -1    0    0    0    0  0.00000000000E+00  0.00000000000E+00  0.45593999997E+02  0.45594000000E+02  0.51100000000E-03 0. -1.
         11   -1    0    0    0    0 -0.00000000000E+00 -0.00000000000E+00 -0.45593999997E+02  0.45594000000E+02  0.51100000000E-03 0.  1.
    9900012    2    1    2    0    0  0.38904322933E+02  0.85362528850E+01  0.81701902047E+01  0.50528856327E+02  0.29999989292E+02 0.  0.
        -12    1    1    2    0    0 -0.38904322933E+02 -0.85362528850E+01 -0.81701902047E+01  0.40659143673E+02  0.00000000000E+00 0.  1.
         11    1    3    3    0    0  0.17356298884E+02 -0.47465503162E+01  0.63432519741E+01  0.19078985736E+02  0.51100000000E-03 0. -1.
        -11    1    3    3    0    0  0.12385689309E+02  0.34266078861E+01  0.94796114527E+01  0.15969031743E+02  0.51100000000E-03 0.  1.
        -12    1    3    3    0    0  0.91623347409E+01  0.98561953152E+01 -0.76526732221E+01  0.15480838848E+02  0.00000000000E+00 0.  1.
</event>
<event>
 7    1  0.2817603E-011  0.5052886E+02  0.7816164E-02  0.1300439E+00
        -11   -1    0    0    0    0  0.00000000000E+00  0.00000000000E+00  0.45593999997E+02  0.45594000000E+02  0.51100000000E-03 0.  1.
         11   -1    0    0    0    0 -0.00000000000E+00 -0.00000000000E+00 -0.45593999997E+02  0.45594000000E+02  0.51100000000E-03 0. -1.
    9900012    2    1    2    0    0  0.46668315138E+01 -0.15818374928E+02 -0.37164031131E+02  0.50528861892E+02  0.30000006208E+02 0.  0.
        -12    1    1    2    0    0 -0.46668315138E+01  0.15818374928E+02  0.37164031131E+02  0.40659138108E+02  0.00000000000E+00 0.  1.
         11    1    3    3    0    0 -0.60847569027E+01  0.25957189683E+01 -0.14956952959E+02  0.16354585461E+02  0.51100000000E-03 0. -1.
        -11    1    3    3    0    0  0.11694733346E+01  0.19550658894E+01 -0.60525267807E+01  0.64670728467E+01  0.51100000000E-03 0.  1.
         12    1    3    3    0    0  0.95821150820E+01 -0.20369159786E+02 -0.16154551391E+02  0.27707203585E+02  0.00000000000E+00 0. -1.
</event>
<event>
 7    1  0.2817603E-011  0.5052886E+02  0.7816164E-02  0.1300439E+00
        -11   -1    0    0    0    0  0.00000000000E+00  0.00000000000E+00  0.45593999997E+02  0.45594000000E+02  0.51100000000E-03 0. -1.
         11   -1    0    0    0    0 -0.00000000000E+00 -0.00000000000E+00 -0.45593999997E+02  0.45594000000E+02  0.51100000000E-03 0.  1.
    9900012    2    1    2    0    0  0.22734722178E+02 -0.32816813740E+02  0.77042119988E+01  0.50528859096E+02  0.29999997709E+02 0.  0.
        -12    1    1    2    0    0 -0.22734722178E+02  0.32816813740E+02 -0.77042119988E+01  0.40659140904E+02  0.00000000000E+00 0.  1.
         11    1    3    3    0    0  0.15322403425E+01 -0.17163344319E+01  0.84575781436E+01  0.87649411102E+01  0.51100000000E-03 0. -1.
        -11    1    3    3    0    0  0.19937830886E+02 -0.20489123838E+02  0.58784053273E+01  0.29186931074E+02  0.51100000000E-03 0.  1.
        -12    1    3    3    0    0  0.12646509497E+01 -0.10611355469E+02 -0.66317714721E+01  0.12576986912E+02  0.00000000000E+00 0.  1.
</event>
<event>
 7    1  0.2817603E-011  0.5052886E+02  0.7816164E-02  0.1300439E+00
        -11   -1    0    0    0    0  0.00000000000E+00  0.00000000000E+00  0.45593999997E+02  0.45594000000E+02  0.51100000000E-03 0.  1.
         11   -1    0    0    0    0 -0.00000000000E+00 -0.00000000000E+00 -0.45593999997E+02  0.45594000000E+02  0.51100000000E-03 0. -1.
    9900012    2    1    2    0    0 -0.75343575986E+01  0.17984841279E+02 -0.35678349143E+02  0.50528860095E+02  0.30000000743E+02 0.  0.
        -12    1    1    2    0    0  0.75343575986E+01 -0.17984841279E+02  0.35678349143E+02  0.40659139905E+02  0.00000000000E+00 0.  1.
         11    1    3    3    0    0 -0.60934929688E-01 -0.26964802921E+01 -0.15040871784E+02  0.15280790010E+02  0.51100000000E-03 0. -1.
        -11    1    3    3    0    0  0.40702540571E+01  0.30613346715E+01 -0.10921508034E+02  0.12050646292E+02  0.51100000000E-03 0.  1.
        -12    1    3    3    0    0 -0.11543676726E+02  0.17619986899E+02 -0.97159693250E+01  0.23197423793E+02  0.00000000000E+00 0.  1.
</event>
<event>
 7    1  0.2817603E-011  0.5052886E+02  0.7816164E-02  0.1300439E+00
        -11   -1    0    0    0    0  0.00000000000E+00  0.00000000000E+00  0.45593999997E+02  0.45594000000E+02  0.51100000000E-03 0.  1.
         11   -1    0    0    0    0 -0.00000000000E+00 -0.00000000000E+00 -0.45593999997E+02  0.45594000000E+02  0.51100000000E-03 0. -1.
    9900012    2    1    2    0    0 -0.24259889346E+02 -0.32614443522E+02  0.96004000039E+00  0.50528857927E+02  0.29999994154E+02 0.  0.
        -12    1    1    2    0    0  0.24259889346E+02  0.32614443522E+02 -0.96004000039E+00  0.40659142073E+02  0.00000000000E+00 0.  1.
         11    1    3    3    0    0 -0.98962285498E+01 -0.49107621164E+01  0.32410271049E+01  0.11513261095E+02  0.51100000000E-03 0. -1.
        -11    1    3    3    0    0 -0.20731342143E+02 -0.21186143573E+02 -0.33960077994E+01  0.29835785490E+02  0.51100000000E-03 0.  1.
        -12    1    3    3    0    0  0.63676813469E+01 -0.65175378321E+01  0.11150206949E+01  0.91798113422E+01  0.00000000000E+00 0.  1.
</event>
<event>
 7    1  0.2817603E-011  0.5052886E+02  0.7816164E-02  0.1300439E+00
        -11   -1    0    0    0    0  0.00000000000E+00  0.00000000000E+00  0.45593999997E+02  0.45594000000E+02  0.51100000000E-03 0. -1.
         11   -1    0    0    0    0 -0.00000000000E+00 -0.00000000000E+00 -0.45593999997E+02  0.45594000000E+02  0.51100000000E-03 0.  1.
    9900012    2    1    2    0    0 -0.14518061561E+02 -0.37452717886E+02  0.62996235788E+01  0.50528862703E+02  0.30000008671E+02 0.  0.
        -12    1    1    2    0    0  0.14518061561E+02  0.37452717886E+02 -0.62996235788E+01  0.40659137297E+02  0.00000000000E+00 0.  1.
         11    1    3    3    0    0 -0.10374412326E+02 -0.11717126358E+02 -0.93769682676E+01  0.18244095356E+02  0.51100000000E-03 0. -1.
        -11    1    3    3    0    0 -0.44101197700E+01 -0.84568232579E+01  0.95856552373E+00  0.95857114565E+01  0.51100000000E-03 0.  1.
         12    1    3    3    0    0  0.26647053570E+00 -0.17278768270E+02  0.14718026323E+02  0.22699055890E+02  0.00000000000E+00 0. -1.
</event>
<event>
 7    1  0.2817603E-011  0.5052888E+02  0.7816164E-02  0.1300439E+00
        -11   -1    0    0    0    0  0.00000000000E+00  0.00000000000E+00  0.45593999997E+02  0.45594000000E+02  0.51100000000E-03 0.  1.
         11   -1    0    0    0    0 -0.00000000000E+00 -0.00000000000E+00 -0.45593999997E+02  0.45594000000E+02  0.51100000000E-03 0. -1.
    9900012    2    1    2    0    0 -0.21660736212E+02  0.52730875183E+01 -0.34002521206E+02  0.50528875641E+02  0.30000048000E+02 0.  0.
        -12    1    1    2    0    0  0.21660736212E+02 -0.52730875183E+01  0.34002521206E+02  0.40659124359E+02  0.00000000000E+00 0.  1.
         11    1    3    3    0    0 -0.10547509948E+02  0.11544393584E+02 -0.15395118677E+02  0.21943852639E+02  0.51100000000E-03 0. -1.
        -11    1    3    3    0    0  0.25026404553E+01  0.60508590907E+00  0.17746709075E+01  0.31271065375E+01  0.51100000000E-03 0.  1.
        -12    1    3    3    0    0 -0.13615866720E+02 -0.68763919752E+01 -0.20382073437E+02  0.25457916465E+02  0.00000000000E+00 0.  1.
</event>
<event>
 7    1  0.2817603E-011  0.5052886E+02  0.7816164E-02  0.1300439E+00
        -11   -1    0    0    0    0  0.00000000000E+00  0.00000000000E+00  0.45593999997E+02  0.45594000000E+02  0.51100000000E-03 0.  1.
         11   -1    0    0    0    0 -0.00000000000E+00 -0.00000000000E+00 -0.45593999997E+02  0.45594000000E+02  0.51100000000E-03 0. -1.
    9900012    2    1    2    0    0 -0.32662955771E+02 -0.20221720253E+02  0.13318369379E+02  0.50528860651E+02  0.30000002435E+02 0.  0.
        -12    1    1    2    0    0  0.32662955771E+02  0.20221720253E+02 -0.13318369379E+02  0.40659139349E+02  0.00000000000E+00 0.  1.
         11    1    3    3    0    0  0.16041334560E+01  0.37008205918E+00  0.16302065643E-01  0.16463507809E+01  0.51100000000E-03 0.  1.
        -11    1    3    3    0    0  0.99171427171E+00 -0.98757143345E+01  0.75615944400E+00  0.99541452762E+01  0.51100000000E-03 0. -1.
        -12    1    3    3    0    0 -0.35258803499E+02 -0.10716087977E+02  0.12545907869E+02  0.38928364594E+02  0.00000000000E+00 0.  1.
</event>
<event>
 7    1  0.2817603E-011  0.5052885E+02  0.7816164E-02  0.1300439E+00
        -11   -1    0    0    0    0  0.00000000000E+00  0.00000000000E+00  0.45593999997E+02  0.45594000000E+02  0.51100000000E-03 0.  1.
         11   -1    0    0    0    0 -0.00000000000E+00 -0.00000000000E+00 -0.45593999997E+02  0.45594000000E+02  0.51100000000E-03 0. -1.
    9900012    2    1    2    0    0  0.24803705765E+02 -0.13383129416E+02 -0.29305877375E+02  0.50528850705E+02  0.29999972204E+02 0.  0.
        -12    1    1    2    0    0 -0.24803705765E+02  0.13383129416E+02  0.29305877375E+02  0.40659149295E+02  0.00000000000E+00 0.  1.
         11    1    3    3    0    0  0.10726051409E+02  0.48556487955E+00 -0.15033634758E+02  0.18474147515E+02  0.51100000000E-03 0. -1.
        -11    1    3    3    0    0  0.54652612381E+01  0.78293882396E+00 -0.14008528918E+02  0.15057255935E+02  0.51100000000E-03 0.  1.
        -12    1    3    3    0    0  0.86123931176E+01 -0.14651633120E+02 -0.26371369903E+00  0.16997447255E+02  0.00000000000E+00 0.  1.
</event>
<event>
 7    1  0.2817603E-011  0.5052878E+02  0.7816164E-02  0.1300439E+00
        -11   -1    0    0    0    0  0.00000000000E+00  0.00000000000E+00  0.45593999997E+02  0.45594000000E+02  0.51100000000E-03 0.  1.
         11   -1    0    0    0    0 -0.00000000000E+00 -0.00000000000E+00 -0.45593999997E+02  0.45594000000E+02  0.51100000000E-03 0. -1.
    9900012    2    1    2    0    0  0.28307955364E+02  0.16980425055E+02 -0.23738085890E+02  0.50528783411E+02  0.29999767655E+02 0.  0.
        -12    1    1    2    0    0 -0.28307955364E+02 -0.16980425055E+02  0.23738085890E+02  0.40659216589E+02  0.00000000000E+00 0.  1.
         11    1    3    3    0    0  0.11848381894E+02  0.99267434141E+01 -0.50754125550E+01  0.16269118021E+02  0.51100000000E-03 0. -1.
        -11    1    3    3    0    0  0.20850302768E+02  0.68071836532E+01 -0.91227740985E+01  0.23754954900E+02  0.51100000000E-03 0.  1.
         12    1    3    3    0    0 -0.43907292984E+01  0.24649798756E+00 -0.95398992365E+01  0.10504710490E+02  0.00000000000E+00 0. -1.
</event>
<event>
 7    1  0.2817603E-011  0.5052881E+02  0.7816164E-02  0.1300439E+00
        -11   -1    0    0    0    0  0.00000000000E+00  0.00000000000E+00  0.45593999997E+02  0.45594000000E+02  0.51100000000E-03 0.  1.
         11   -1    0    0    0    0 -0.00000000000E+00 -0.00000000000E+00 -0.45593999997E+02  0.45594000000E+02  0.51100000000E-03 0. -1.
    9900012    2    1    2    0    0 -0.15438880215E+02 -0.99873531935E+01 -0.36263808823E+02  0.50528805757E+02  0.29999835579E+02 0.  0.
        -12    1    1    2    0    0  0.15438880215E+02  0.99873531935E+01  0.36263808823E+02  0.40659194243E+02  0.00000000000E+00 0.  1.
         11    1    3    3    0    0  0.52725839865E-01  0.45121469846E+01 -0.39380349778E+01  0.59891877723E+01  0.51100000000E-03 0. -1.
        -11    1    3    3    0    0  0.45010637291E+01 -0.11224159897E+01 -0.52934972108E+00  0.46690045765E+01  0.51100000000E-03 0.  1.
        -12    1    3    3    0    0 -0.19992669784E+02 -0.13377084188E+02 -0.31796424124E+02  0.39870613408E+02  0.00000000000E+00 0.  1.
</event>
<event>
 7    1  0.2817603E-011  0.5052885E+02  0.7816164E-02  0.1300439E+00
        -11   -1    0    0    0    0  0.00000000000E+00  0.00000000000E+00  0.45593999997E+02  0.45594000000E+02  0.51100000000E-03 0. -1.
         11   -1    0    0    0    0 -0.00000000000E+00 -0.00000000000E+00 -0.45593999997E+02  0.45594000000E+02  0.51100000000E-03 0.  1.
    9900012    2    1    2    0    0  0.28499006224E+02  0.28759225364E+02  0.37256379096E+01  0.50528846331E+02  0.29999958906E+02 0.  0.
        -12    1    1    2    0    0 -0.28499006224E+02 -0.28759225364E+02 -0.37256379096E+01  0.40659153669E+02  0.00000000000E+00 0.  1.
         11    1    3    3    0    0  0.45155576694E+01  0.12576356693E+02 -0.39453416542E+01  0.13932721549E+02  0.51100000000E-03 0. -1.
        -11    1    3    3    0    0  0.84083841068E+01  0.11585637732E+02 -0.58502781887E+01  0.15464594405E+02  0.51100000000E-03 0.  1.
        -12    1    3    3    0    0  0.15575064448E+02  0.45972309382E+01  0.13521257753E+02  0.21131530377E+02  0.00000000000E+00 0.  1.
</event>
<event>
 7    1  0.2817603E-011  0.5052886E+02  0.7816164E-02  0.1300439E+00
        -11   -1    0    0    0    0  0.00000000000E+00  0.00000000000E+00  0.45593999997E+02  0.45594000000E+02  0.51100000000E-03 0. -1.
         11   -1    0    0    0    0 -0.00000000000E+00 -0.00000000000E+00 -0.45593999997E+02  0.45594000000E+02  0.51100000000E-03 0.  1.
    9900012    2    1    2    0    0 -0.27960883077E+02  0.29282085971E+02 -0.37301472983E+01  0.50528861542E+02  0.30000005144E+02 0.  0.
        -12    1    1    2    0    0  0.27960883077E+02 -0.29282085971E+02  0.37301472983E+01  0.40659138458E+02  0.00000000000E+00 0.  1.
         11    1    3    3    0    0 -0.47734412619E+01  0.10146145612E+02 -0.30338155743E+01  0.11616111633E+02  0.51100000000E-03 0. -1.
        -11    1    3    3    0    0 -0.26456350519E+02  0.21080471807E+02 -0.37499610944E+01  0.34035084587E+02  0.51100000000E-03 0.  1.
        -12    1    3    3    0    0  0.32689087039E+01 -0.19445314483E+01  0.30536293704E+01  0.48776653226E+01  0.00000000000E+00 0.  1.
</event>
<event>
 7    1  0.2817603E-011  0.5052886E+02  0.7816164E-02  0.1300439E+00
        -11   -1    0    0    0    0  0.00000000000E+00  0.00000000000E+00  0.45593999997E+02  0.45594000000E+02  0.51100000000E-03 0.  1.
         11   -1    0    0    0    0 -0.00000000000E+00 -0.00000000000E+00 -0.45593999997E+02  0.45594000000E+02  0.51100000000E-03 0. -1.
    9900012    2    1    2    0    0 -0.19281554772E+02 -0.34717611783E+02 -0.87220646010E+01  0.50528864087E+02  0.30000012878E+02 0.  0.
        -12    1    1    2    0    0  0.19281554772E+02  0.34717611783E+02  0.87220646010E+01  0.40659135913E+02  0.00000000000E+00 0.  1.
         11    1    3    3    0    0 -0.74484437733E+01 -0.18077931809E+01 -0.43986903206E+01  0.88371888985E+01  0.51100000000E-03 0. -1.
        -11    1    3    3    0    0 -0.10372131198E+02 -0.26960636480E+01 -0.40056796748E+01  0.11440949904E+02  0.51100000000E-03 0.  1.
        -12    1    3    3    0    0 -0.14609798008E+01 -0.30213754954E+02 -0.31769460551E+00  0.30250725285E+02  0.00000000000E+00 0.  1.
</event>
<event>
 7    1  0.2817603E-011  0.5052886E+02  0.7816164E-02  0.1300439E+00
        -11   -1    0    0    0    0  0.00000000000E+00  0.00000000000E+00  0.45593999997E+02  0.45594000000E+02  0.51100000000E-03 0.  1.
         11   -1    0    0    0    0 -0.00000000000E+00 -0.00000000000E+00 -0.45593999997E+02  0.45594000000E+02  0.51100000000E-03 0. -1.
    9900012    2    1    2    0    0  0.18996349261E+01 -0.40532725614E+02  0.25797210727E+01  0.50528863027E+02  0.30000009657E+02 0.  0.
        -12    1    1    2    0    0 -0.18996349261E+01  0.40532725614E+02 -0.25797210727E+01  0.40659136973E+02  0.00000000000E+00 0.  1.
         11    1    3    3    0    0  0.60607670276E+01 -0.27463059771E+02  0.16093133560E+01  0.28169885315E+02  0.51100000000E-03 0. -1.
        -11    1    3    3    0    0  0.22588174052E+01 -0.15214210641E+02  0.20071099585E+01  0.15511381375E+02  0.51100000000E-03 0.  1.
        -12    1    3    3    0    0 -0.64199495067E+01  0.21445447977E+01 -0.10367022418E+01  0.68475963371E+01  0.00000000000E+00 0.  1.
</event>
<event>
 7    1  0.2817603E-011  0.5052886E+02  0.7816164E-02  0.1300439E+00
        -11   -1    0    0    0    0  0.00000000000E+00  0.00000000000E+00  0.45593999997E+02  0.45594000000E+02  0.51100000000E-03 0.  1.
         11   -1    0    0    0    0 -0.00000000000E+00 -0.00000000000E+00 -0.45593999997E+02  0.45594000000E+02  0.51100000000E-03 0. -1.
    9900012    2    1    2    0    0 -0.53592528770E+01  0.71769215532E+01 -0.39660257371E+02  0.50528858234E+02  0.29999995089E+02 0.  0.
        -12    1    1    2    0    0  0.53592528770E+01 -0.71769215532E+01  0.39660257371E+02  0.40659141766E+02  0.00000000000E+00 0.  1.
         11    1    3    3    0    0 -0.11969161386E+01  0.52608333701E+01 -0.14874092440E+02  0.15822376628E+02  0.51100000000E-03 0.  1.
        -11    1    3    3    0    0 -0.79117341318E+01  0.60207694645E+01 -0.26961892406E+02  0.28736541968E+02  0.51100000000E-03 0. -1.
         12    1    3    3    0    0  0.37493973934E+01 -0.41046812814E+01  0.21757274749E+01  0.59699396379E+01  0.00000000000E+00 0. -1.
</event>
<event>
 7    1  0.2817603E-011  0.5052880E+02  0.7816164E-02  0.1300439E+00
        -11   -1    0    0    0    0  0.00000000000E+00  0.00000000000E+00  0.45593999997E+02  0.45594000000E+02  0.51100000000E-03 0. -1.
         11   -1    0    0    0    0 -0.00000000000E+00 -0.00000000000E+00 -0.45593999997E+02  0.45594000000E+02  0.51100000000E-03 0.  1.
    9900012    2    1    2    0    0 -0.38966438537E+02 -0.10489003491E+02  0.49767252256E+01  0.50528802757E+02  0.29999826459E+02 0.  0.
        -12    1    1    2    0    0  0.38966438537E+02  0.10489003491E+02 -0.49767252256E+01  0.40659197243E+02  0.00000000000E+00 0.  1.
         11    1    3    3    0    0 -0.22180934563E+02 -0.18454648350E+01  0.50578880850E+01  0.22825026412E+02  0.51100000000E-03 0. -1.
        -11    1    3    3    0    0 -0.12904942871E+02  0.44726169208E+01 -0.22891583245E+01  0.13848541393E+02  0.51100000000E-03 0.  1.
        -12    1    3    3    0    0 -0.38805611029E+01 -0.13116155577E+02  0.22079954651E+01  0.13855234952E+02  0.00000000000E+00 0.  1.
</event>
<event>
 7    1  0.2817603E-011  0.5052882E+02  0.7816164E-02  0.1300439E+00
        -11   -1    0    0    0    0  0.00000000000E+00  0.00000000000E+00  0.45593999997E+02  0.45594000000E+02  0.51100000000E-03 0. -1.
         11   -1    0    0    0    0 -0.00000000000E+00 -0.00000000000E+00 -0.45593999997E+02  0.45594000000E+02  0.51100000000E-03 0.  1.
    9900012    2    1    2    0    0 -0.15588460451E+02  0.94576450727E+01  0.36341735045E+02  0.50528820771E+02  0.29999881214E+02 0.  0.
        -12    1    1    2    0    0  0.15588460451E+02 -0.94576450727E+01 -0.36341735045E+02  0.40659179229E+02  0.00000000000E+00 0.  1.
         11    1    3    3    0    0  0.47596822121E+01  0.99145168917E+01  0.11524225836E+02  0.15929846243E+02  0.51100000000E-03 0.  1.
        -11    1    3    3    0    0 -0.68333982105E+01 -0.62531068688E+00  0.18398238569E+02  0.19636229966E+02  0.51100000000E-03 0. -1.
        -12    1    3    3    0    0 -0.13514744453E+02  0.16843886789E+00  0.64192706398E+01  0.14962744562E+02  0.00000000000E+00 0.  1.
</event>
<event>
 7    1  0.2817603E-011  0.5052883E+02  0.7816164E-02  0.1300439E+00
        -11   -1    0    0    0    0  0.00000000000E+00  0.00000000000E+00  0.45593999997E+02  0.45594000000E+02  0.51100000000E-03 0. -1.
         11   -1    0    0    0    0 -0.00000000000E+00 -0.00000000000E+00 -0.45593999997E+02  0.45594000000E+02  0.51100000000E-03 0.  1.
    9900012    2    1    2    0    0  0.39739887771E+02  0.21976312289E+01 -0.83114416070E+01  0.50528827300E+02  0.29999901059E+02 0.  0.
        -12    1    1    2    0    0 -0.39739887771E+02 -0.21976312289E+01  0.83114416070E+01  0.40659172700E+02  0.00000000000E+00 0.  1.
         11    1    3    3    0    0  0.11899957149E+01  0.72048264081E+00 -0.19905248480E+01  0.24284510431E+01  0.51100000000E-03 0. -1.
        -11    1    3    3    0    0  0.16443485728E+02  0.14582623938E+02 -0.25368715816E+01  0.22124123971E+02  0.51100000000E-03 0.  1.
         12    1    3    3    0    0  0.22106406329E+02 -0.13105475350E+02 -0.37840451774E+01  0.25976252286E+02  0.00000000000E+00 0. -1.
</event>
<event>
 7    1  0.2817603E-011  0.5052885E+02  0.7816164E-02  0.1300439E+00
        -11   -1    0    0    0    0  0.00000000000E+00  0.00000000000E+00  0.45593999997E+02  0.45594000000E+02  0.51100000000E-03 0.  1.
         11   -1    0    0    0    0 -0.00000000000E+00 -0.00000000000E+00 -0.45593999997E+02  0.45594000000E+02  0.51100000000E-03 0. -1.
    9900012    2    1    2    0    0  0.21079270565E+02 -0.24423356328E+01 -0.34682352651E+02  0.50528852981E+02  0.29999979122E+02 0.  0.
        -12    1    1    2    0    0 -0.21079270565E+02  0.24423356328E+01  0.34682352651E+02  0.40659147019E+02  0.00000000000E+00 0.  1.
         11    1    3    3    0    0  0.21215611042E+01  0.33152769164E+01 -0.56810049806E+01  0.69112878975E+01  0.51100000000E-03 0. -1.
        -11    1    3    3    0    0  0.11404748123E+02 -0.66012160064E+00 -0.32037160759E+02  0.34012993254E+02  0.51100000000E-03 0.  1.
        -12    1    3    3    0    0  0.75529613370E+01 -0.50974909485E+01  0.30358130889E+01  0.96045718301E+01  0.00000000000E+00 0.  1.
</event>
<event>
 7    1  0.2817603E-011  0.5052886E+02  0.7816164E-02  0.1300439E+00
        -11   -1    0    0    0    0  0.00000000000E+00  0.00000000000E+00  0.45593999997E+02  0.45594000000E+02  0.51100000000E-03 0.  1.
         11   -1    0    0    0    0 -0.00000000000E+00 -0.00000000000E+00 -0.45593999997E+02  0.45594000000E+02  0.51100000000E-03 0. -1.
    9900012    2    1    2    0    0  0.38747854295E+01  0.30015441700E+02 -0.27151887865E+02  0.50528859365E+02  0.29999998525E+02 0.  0.
        -12    1    1    2    0    0 -0.38747854295E+01 -0.30015441700E+02  0.27151887865E+02  0.40659140635E+02  0.00000000000E+00 0.  1.
         11    1    3    3    0    0  0.10390764427E+02  0.14013785504E+02 -0.22264770234E+02  0.28285582253E+02  0.51100000000E-03 0. -1.
        -11    1    3    3    0    0 -0.19231803538E+01  0.16202286616E+02 -0.62126703192E+01  0.17458808293E+02  0.51100000000E-03 0.  1.
        -12    1    3    3    0    0 -0.45927986440E+01 -0.20063042015E+00  0.13255526881E+01  0.47844688188E+01  0.00000000000E+00 0.  1.
</event>
<event>
 7    1  0.2817603E-011  0.5052889E+02  0.7816164E-02  0.1300439E+00
        -11   -1    0    0    0    0  0.00000000000E+00  0.00000000000E+00  0.45593999997E+02  0.45594000000E+02  0.51100000000E-03 0. -1.
         11   -1    0    0    0    0 -0.00000000000E+00 -0.00000000000E+00 -0.45593999997E+02  0.45594000000E+02  0.51100000000E-03 0.  1.
    9900012    2    1    2    0    0  0.29823944610E+02 -0.24490162431E+02  0.12803426267E+02  0.50528887219E+02  0.30000083190E+02 0.  0.
        -12    1    1    2    0    0 -0.29823944610E+02  0.24490162431E+02 -0.12803426267E+02  0.40659112781E+02  0.00000000000E+00 0.  1.
         11    1    3    3    0    0  0.72903482804E+00  0.32742276955E+01 -0.31494027045E+01  0.46011733763E+01  0.51100000000E-03 0. -1.
        -11    1    3    3    0    0  0.13577284027E+02 -0.61253451575E+01  0.16055387465E-01  0.14895058002E+02  0.51100000000E-03 0.  1.
        -12    1    3    3    0    0  0.15517625755E+02 -0.21639044969E+02  0.15936773584E+02  0.31032655841E+02  0.00000000000E+00 0.  1.
</event>
<event>
 7    1  0.2817603E-011  0.5052886E+02  0.7816164E-02  0.1300439E+00
        -11   -1    0    0    0    0  0.00000000000E+00  0.00000000000E+00  0.45593999997E+02  0.45594000000E+02  0.51100000000E-03 0. -1.
         11   -1    0    0    0    0 -0.00000000000E+00 -0.00000000000E+00 -0.45593999997E+02  0.45594000000E+02  0.51100000000E-03 0.  1.
    9900012    2    1    2    0    0 -0.36385691257E+02 -0.13642350073E+02  0.11963848540E+02  0.50528856924E+02  0.29999991107E+02 0.  0.
        -12    1    1    2    0    0  0.36385691257E+02  0.13642350073E+02 -0.11963848540E+02  0.40659143076E+02  0.00000000000E+00 0.  1.
         11    1    3    3    0    0 -0.10651435177E+02 -0.10642520900E+02  0.51457550742E+01  0.15912106020E+02  0.51100000000E-03 0. -1.
        -11    1    3    3    0    0 -0.23563487455E+02 -0.93001664539E+01  0.99968659418E+01  0.27233588931E+02  0.51100000000E-03 0.  1.
        -12    1    3    3    0    0 -0.21707686245E+01  0.63003372809E+01 -0.31787724762E+01  0.73831619737E+01  0.00000000000E+00 0.  1.
</event>
<event>
 7    1  0.2817603E-011  0.5052886E+02  0.7816164E-02  0.1300439E+00
        -11   -1    0    0    0    0  0.00000000000E+00  0.00000000000E+00  0.45593999997E+02  0.45594000000E+02  0.51100000000E-03 0.  1.
         11   -1    0    0    0    0 -0.00000000000E+00 -0.00000000000E+00 -0.45593999997E+02  0.45594000000E+02  0.51100000000E-03 0. -1.
    9900012    2    1    2    0    0 -0.84632478372E+01 -0.17756783329E+02 -0.35584208866E+02  0.50528857870E+02  0.29999993982E+02 0.  0.
        -12    1    1    2    0    0  0.84632478372E+01  0.17756783329E+02  0.35584208866E+02  0.40659142130E+02  0.00000000000E+00 0.  1.
         11    1    3    3    0    0  0.40487839273E+01 -0.46767811811E+00 -0.10415638870E+02  0.11184672881E+02  0.51100000000E-03 0.  1.
        -11    1    3    3    0    0  0.56590313971E+01 -0.80395326322E+01 -0.88563917311E+01  0.13232323910E+02  0.51100000000E-03 0. -1.
         12    1    3    3    0    0 -0.18171063162E+02 -0.92495725787E+01 -0.16312178264E+02  0.26111861080E+02  0.00000000000E+00 0. -1.
</event>
<event>
 7    1  0.2817603E-011  0.5052887E+02  0.7816164E-02  0.1300439E+00
        -11   -1    0    0    0    0  0.00000000000E+00  0.00000000000E+00  0.45593999997E+02  0.45594000000E+02  0.51100000000E-03 0.  1.
         11   -1    0    0    0    0 -0.00000000000E+00 -0.00000000000E+00 -0.45593999997E+02  0.45594000000E+02  0.51100000000E-03 0. -1.
    9900012    2    1    2    0    0 -0.17277057993E+02 -0.13622169335E+02 -0.34192167616E+02  0.50528873638E+02  0.30000041909E+02 0.  0.
        -12    1    1    2    0    0  0.17277057993E+02  0.13622169335E+02  0.34192167616E+02  0.40659126362E+02  0.00000000000E+00 0.  1.
         11    1    3    3    0    0  0.27340545809E+01 -0.20356922232E+01 -0.95086037155E+01  0.10101120837E+02  0.51100000000E-03 0. -1.
        -11    1    3    3    0    0 -0.16364883955E+02 -0.10280088348E+02 -0.28859138529E+02  0.34732398710E+02  0.51100000000E-03 0.  1.
        -12    1    3    3    0    0 -0.36462286185E+01 -0.13063887638E+01  0.41755746283E+01  0.56953540906E+01  0.00000000000E+00 0.  1.
</event>
<event>
 7    1  0.2817603E-011  0.5052886E+02  0.7816164E-02  0.1300439E+00
        -11   -1    0    0    0    0  0.00000000000E+00  0.00000000000E+00  0.45593999997E+02  0.45594000000E+02  0.51100000000E-03 0.  1.
         11   -1    0    0    0    0 -0.00000000000E+00 -0.00000000000E+00 -0.45593999997E+02  0.45594000000E+02  0.51100000000E-03 0. -1.
    9900012    2    1    2    0    0  0.10974937732E+02  0.29652197857E+02 -0.25562934078E+02  0.50528859642E+02  0.29999999367E+02 0.  0.
        -12    1    1    2    0    0 -0.10974937732E+02 -0.29652197857E+02  0.25562934078E+02  0.40659140358E+02  0.00000000000E+00 0.  1.
         11    1    3    3    0    0 -0.65419212905E+00  0.23905736109E+02 -0.21503480387E+02  0.32160719134E+02  0.51100000000E-03 0. -1.
        -11    1    3    3    0    0  0.81642803875E+01  0.78993156780E+01 -0.69962420039E+01  0.13341741448E+02  0.51100000000E-03 0.  1.
        -12    1    3    3    0    0  0.34648494732E+01 -0.21528539292E+01  0.29367883127E+01  0.50263990596E+01  0.00000000000E+00 0.  1.
</event>
<event>
 7    1  0.2817603E-011  0.5052886E+02  0.7816164E-02  0.1300439E+00
        -11   -1    0    0    0    0  0.00000000000E+00  0.00000000000E+00  0.45593999997E+02  0.45594000000E+02  0.51100000000E-03 0.  1.
         11   -1    0    0    0    0 -0.00000000000E+00 -0.00000000000E+00 -0.45593999997E+02  0.45594000000E+02  0.51100000000E-03 0. -1.
    9900012    2    1    2    0    0 -0.35564119552E+01  0.33772041521E+02 -0.22359941413E+02  0.50528857923E+02  0.29999994143E+02 0.  0.
        -12    1    1    2    0    0  0.35564119552E+01 -0.33772041521E+02  0.22359941413E+02  0.40659142077E+02  0.00000000000E+00 0.  1.
         11    1    3    3    0    0  0.31497647509E+01  0.24892379888E+01 -0.17212293466E+01  0.43680607226E+01  0.51100000000E-03 0. -1.
        -11    1    3    3    0    0 -0.37985872764E+01  0.12979855389E+02  0.50917721256E+01  0.14451022623E+02  0.51100000000E-03 0.  1.
         12    1    3    3    0    0 -0.29075894297E+01  0.18302948143E+02 -0.25730484192E+02  0.31709774577E+02  0.00000000000E+00 0. -1.
</event>
<event>
 7    1  0.2817603E-011  0.5052886E+02  0.7816164E-02  0.1300439E+00
        -11   -1    0    0    0    0  0.00000000000E+00  0.00000000000E+00  0.45593999997E+02  0.45594000000E+02  0.51100000000E-03 0.  1.
         11   -1    0    0    0    0 -0.00000000000E+00 -0.00000000000E+00 -0.45593999997E+02  0.45594000000E+02  0.51100000000E-03 0. -1.
    9900012    2    1    2    0    0 -0.29779648261E+02  0.94124221259E+01 -0.26033530299E+02  0.50528857847E+02  0.29999993910E+02 0.  0.
        -12    1    1    2    0    0  0.29779648261E+02 -0.94124221259E+01  0.26033530299E+02  0.40659142153E+02  0.00000000000E+00 0.  1.
         11    1    3    3    0    0 -0.13867214637E+02  0.13809103026E+02 -0.61776123395E+01  0.20522033590E+02  0.51100000000E-03 0. -1.
        -11    1    3    3    0    0 -0.16460168950E+02 -0.69535155360E+01 -0.11495431800E+02  0.21246964318E+02  0.51100000000E-03 0.  1.
         12    1    3    3    0    0  0.54773532578E+00  0.25568346355E+01 -0.83604861590E+01  0.87598599392E+01  0.00000000000E+00 0. -1.
</event>
<event>
 7    1  0.2817603E-011  0.5052886E+02  0.7816164E-02  0.1300439E+00
        -11   -1    0    0    0    0  0.00000000000E+00  0.00000000000E+00  0.45593999997E+02  0.45594000000E+02  0.51100000000E-03 0.  1.
         11   -1    0    0    0    0 -0.00000000000E+00 -0.00000000000E+00 -0.45593999997E+02  0.45594000000E+02  0.51100000000E-03 0. -1.
    9900012    2    1    2    0    0  0.19659143351E+02 -0.15083865531E+02 -0.32236017020E+02  0.50528859453E+02  0.29999998794E+02 0.  0.
        -12    1    1    2    0    0 -0.19659143351E+02  0.15083865531E+02  0.32236017020E+02  0.40659140547E+02  0.00000000000E+00 0.  1.
         11    1    3    3    0    0  0.94982212123E+01 -0.41372935031E+01 -0.28523013676E+01  0.10745651543E+02  0.51100000000E-03 0. -1.
        -11    1    3    3    0    0  0.41351915414E+01  0.23277852198E+01  0.20226137477E+01  0.51584260920E+01  0.51100000000E-03 0.  1.
         12    1    3    3    0    0  0.60257305976E+01 -0.13274357248E+02 -0.31406329400E+02  0.34624781818E+02  0.00000000000E+00 0. -1.
</event>
<event>
 7    1  0.2817603E-011  0.5052887E+02  0.7816164E-02  0.1300439E+00
        -11   -1    0    0    0    0  0.00000000000E+00  0.00000000000E+00  0.45593999997E+02  0.45594000000E+02  0.51100000000E-03 0.  1.
         11   -1    0    0    0    0 -0.00000000000E+00 -0.00000000000E+00 -0.45593999997E+02  0.45594000000E+02  0.51100000000E-03 0. -1.
    9900012    2    1    2    0    0  0.40304120446E+02  0.16478961948E+01 -0.51017029023E+01  0.50528867455E+02  0.30000023116E+02 0.  0.
        -12    1    1    2    0    0 -0.40304120446E+02 -0.16478961948E+01  0.51017029023E+01  0.40659132545E+02  0.00000000000E+00 0.  1.
         11    1    3    3    0    0  0.48814236899E+01 -0.24524411952E+01 -0.44190752213E+01  0.70264493970E+01  0.51100000000E-03 0. -1.
        -11    1    3    3    0    0  0.33464286227E+02  0.27434597780E+00 -0.85474921617E+01  0.34539735681E+02  0.51100000000E-03 0.  1.
        -12    1    3    3    0    0  0.19584105294E+01  0.38259914122E+01  0.78648644807E+01  0.89626823768E+01  0.00000000000E+00 0.  1.
</event>
<event>
 7    1  0.2817603E-011  0.5052885E+02  0.7816164E-02  0.1300439E+00
        -11   -1    0    0    0    0  0.00000000000E+00  0.00000000000E+00  0.45593999997E+02  0.45594000000E+02  0.51100000000E-03 0. -1.
         11   -1    0    0    0    0 -0.00000000000E+00 -0.00000000000E+00 -0.45593999997E+02  0.45594000000E+02  0.51100000000E-03 0.  1.
    9900012    2    1    2    0    0  0.22236271145E+02 -0.25036707676E+02  0.23062482951E+02  0.50528848440E+02  0.29999965318E+02 0.  0.
        -12    1    1    2    0    0 -0.22236271145E+02  0.25036707676E+02 -0.23062482951E+02  0.40659151560E+02  0.00000000000E+00 0.  1.
         11    1    3    3    0    0  0.63913844408E+01 -0.11146710017E+02  0.34797368615E+01  0.13311931046E+02  0.51100000000E-03 0. -1.
        -11    1    3    3    0    0  0.33983879638E+01 -0.44598814413E+00 -0.53031746606E+01  0.63143968769E+01  0.51100000000E-03 0.  1.
         12    1    3    3    0    0  0.12446498741E+02 -0.13444009515E+02  0.24885920750E+02  0.30902520517E+02  0.00000000000E+00 0. -1.
</event>
<event>
 7    1  0.2989660E-011  0.5052885E+02  0.7816164E-02  0.1300439E+00
        -11   -1    0    0    0    0  0.00000000000E+00  0.00000000000E+00  0.45593999997E+02  0.45594000000E+02  0.51100000000E-03 0. -1.
         11   -1    0    0    0    0 -0.00000000000E+00 -0.00000000000E+00 -0.45593999997E+02  0.45594000000E+02  0.51100000000E-03 0.  1.
    9900012    2    1    2    0    0  0.22630536978E+02 -0.22581575005E+02  0.25121652305E+02  0.50528854066E+02  0.29999982418E+02 0.  0.
        -12    1    1    2    0    0 -0.22630536978E+02  0.22581575005E+02 -0.25121652305E+02  0.40659145934E+02  0.00000000000E+00 0.  1.
         11    1    3    3    0    0  0.16848591201E+02 -0.12806794388E+02  0.14475484126E+02  0.25640371466E+02  0.51100000000E-03 0. -1.
        -11    1    3    3    0    0  0.11669795534E+02 -0.10200955255E+01  0.73752816061E+01  0.13842669602E+02  0.51100000000E-03 0.  1.
        -12    1    3    3    0    0 -0.58878497573E+01 -0.87546850910E+01  0.32708865724E+01  0.11045812998E+02  0.00000000000E+00 0.  1.
</event>
<event>
 7    1  0.2817603E-011  0.5052887E+02  0.7816164E-02  0.1300439E+00
        -11   -1    0    0    0    0  0.00000000000E+00  0.00000000000E+00  0.45593999997E+02  0.45594000000E+02  0.51100000000E-03 0.  1.
         11   -1    0    0    0    0 -0.00000000000E+00 -0.00000000000E+00 -0.45593999997E+02  0.45594000000E+02  0.51100000000E-03 0. -1.
    9900012    2    1    2    0    0 -0.33364411795E+00  0.13984659899E+00 -0.40657521762E+02  0.50528868784E+02  0.30000027155E+02 0.  0.
        -12    1    1    2    0    0  0.33364411795E+00 -0.13984659899E+00  0.40657521762E+02  0.40659131216E+02  0.00000000000E+00 0.  1.
         11    1    3    3    0    0  0.44680452263E+01  0.66308337984E+01 -0.65400223838E+01  0.10329727879E+02  0.51100000000E-03 0. -1.
        -11    1    3    3    0    0  0.72306832605E+01  0.66246845747E+00 -0.11544874133E+02  0.13638393009E+02  0.51100000000E-03 0.  1.
         12    1    3    3    0    0 -0.12032372605E+02 -0.71534556569E+01 -0.22572625245E+02  0.26560747896E+02  0.00000000000E+00 0. -1.
</event>
<event>
 7    1  0.2817603E-011  0.5052886E+02  0.7816164E-02  0.1300439E+00
        -11   -1    0    0    0    0  0.00000000000E+00  0.00000000000E+00  0.45593999997E+02  0.45594000000E+02  0.51100000000E-03 0. -1.
         11   -1    0    0    0    0 -0.00000000000E+00 -0.00000000000E+00 -0.45593999997E+02  0.45594000000E+02  0.51100000000E-03 0.  1.
    9900012    2    1    2    0    0  0.21028436627E+02  0.28191280510E+02  0.20401517735E+02  0.50528863639E+02  0.30000011516E+02 0.  0.
        -12    1    1    2    0    0 -0.21028436627E+02 -0.28191280510E+02 -0.20401517735E+02  0.40659136361E+02  0.00000000000E+00 0.  1.
         11    1    3    3    0    0  0.15941605062E+01  0.18776834524E+01  0.66909247483E+01  0.71299030229E+01  0.51100000000E-03 0. -1.
        -11    1    3    3    0    0  0.17446049126E+02  0.53045591403E+01  0.12795594560E+02  0.22276225402E+02  0.51100000000E-03 0.  1.
        -12    1    3    3    0    0  0.19882269950E+01  0.21009037917E+02  0.91499842659E+00  0.21122735214E+02  0.00000000000E+00 0.  1.
</event>
<event>
 7    1  0.2817603E-011  0.5052886E+02  0.7816164E-02  0.1300439E+00
        -11   -1    0    0    0    0  0.00000000000E+00  0.00000000000E+00  0.45593999997E+02  0.45594000000E+02  0.51100000000E-03 0.  1.
         11   -1    0    0    0    0 -0.00000000000E+00 -0.00000000000E+00 -0.45593999997E+02  0.45594000000E+02  0.51100000000E-03 0. -1.
    9900012    2    1    2    0    0 -0.32606315296E+02  0.75251756246E+01 -0.23094715177E+02  0.50528856693E+02  0.29999990403E+02 0.  0.
        -12    1    1    2    0    0  0.32606315296E+02 -0.75251756246E+01  0.23094715177E+02  0.40659143307E+02  0.00000000000E+00 0.  1.
         11    1    3    3    0    0 -0.90164982037E+01 -0.84504304962E+01 -0.83403512098E+01  0.14908671101E+02  0.51100000000E-03 0. -1.
        -11    1    3    3    0    0 -0.88927940536E+01  0.61787681408E+01 -0.14318142962E+02  0.17951829432E+02  0.51100000000E-03 0.  1.
        -12    1    3    3    0    0 -0.14697023039E+02  0.97968379801E+01 -0.43622100495E+00  0.17668356159E+02  0.00000000000E+00 0.  1.
</event>
<event>
 7    1  0.2817603E-011  0.5052880E+02  0.7816164E-02  0.1300439E+00
        -11   -1    0    0    0    0  0.00000000000E+00  0.00000000000E+00  0.45593999997E+02  0.45594000000E+02  0.51100000000E-03 0.  1.
         11   -1    0    0    0    0 -0.00000000000E+00 -0.00000000000E+00 -0.45593999997E+02  0.45594000000E+02  0.51100000000E-03 0. -1.
    9900012    2    1    2    0    0 -0.37874273901E+02  0.12963069698E+02  0.71182135160E+01  0.50528797312E+02  0.29999809909E+02 0.  0.
        -12    1    1    2    0    0  0.37874273901E+02 -0.12963069698E+02 -0.71182135160E+01  0.40659202688E+02  0.00000000000E+00 0.  1.
         11    1    3    3    0    0 -0.37184371034E+02  0.14996034857E+02  0.79533880448E+01  0.40875602653E+02  0.51100000000E-03 0. -1.
        -11    1    3    3    0    0 -0.16140861025E+01  0.32250787818E+01  0.13958231745E+01  0.38671345582E+01  0.51100000000E-03 0.  1.
        -12    1    3    3    0    0  0.92418323496E+00 -0.52580439408E+01 -0.22309977033E+01  0.57860601006E+01  0.00000000000E+00 0.  1.
</event>
<event>
 7    1  0.2817603E-011  0.5052886E+02  0.7816164E-02  0.1300439E+00
        -11   -1    0    0    0    0  0.00000000000E+00  0.00000000000E+00  0.45593999997E+02  0.45594000000E+02  0.51100000000E-03 0.  1.
         11   -1    0    0    0    0 -0.00000000000E+00 -0.00000000000E+00 -0.45593999997E+02  0.45594000000E+02  0.51100000000E-03 0. -1.
    9900012    2    1    2    0    0  0.36135459125E+02  0.18630839118E+02  0.53475481302E+00  0.50528861604E+02  0.30000005332E+02 0.  0.
        -12    1    1    2    0    0 -0.36135459125E+02 -0.18630839118E+02 -0.53475481302E+00  0.40659138396E+02  0.00000000000E+00 0.  1.
         11    1    3    3    0    0  0.15099893833E+02  0.12333428132E+02 -0.12419842931E+02  0.23116503671E+02  0.51100000000E-03 0. -1.
        -11    1    3    3    0    0  0.77323950032E+01 -0.13279998554E+01  0.87910082008E+00  0.78947029465E+01  0.51100000000E-03 0.  1.
        -12    1    3    3    0    0  0.13303170288E+02  0.76254108409E+01  0.12075496924E+02  0.19517654987E+02  0.00000000000E+00 0.  1.
</event>
<event>
 7    1  0.2817603E-011  0.5052888E+02  0.7816164E-02  0.1300439E+00
        -11   -1    0    0    0    0  0.00000000000E+00  0.00000000000E+00  0.45593999997E+02  0.45594000000E+02  0.51100000000E-03 0. -1.
         11   -1    0    0    0    0 -0.00000000000E+00 -0.00000000000E+00 -0.45593999997E+02  0.45594000000E+02  0.51100000000E-03 0.  1.
    9900012    2    1    2    0    0 -0.19276319064E+02 -0.13132160385E+02  0.33303660748E+02  0.50528881315E+02  0.30000065245E+02 0.  0.
        -12    1    1    2    0    0  0.19276319064E+02  0.13132160385E+02 -0.33303660748E+02  0.40659118685E+02  0.00000000000E+00 0.  1.
         11    1    3    3    0    0 -0.14281407138E+02 -0.13255821536E+02  0.17470927672E+02  0.26170760562E+02  0.51100000000E-03 0. -1.
        -11    1    3    3    0    0  0.42898279930E+01 -0.30083337261E+01  0.13214881875E+02  0.14215688490E+02  0.51100000000E-03 0.  1.
        -12    1    3    3    0    0 -0.92847399195E+01  0.31319948771E+01  0.26178512006E+01  0.10142432262E+02  0.00000000000E+00 0.  1.
</event>
<event>
 7    1  0.2817603E-011  0.5052887E+02  0.7816164E-02  0.1300439E+00
        -11   -1    0    0    0    0  0.00000000000E+00  0.00000000000E+00  0.45593999997E+02  0.45594000000E+02  0.51100000000E-03 0.  1.
         11   -1    0    0    0    0 -0.00000000000E+00 -0.00000000000E+00 -0.45593999997E+02  0.45594000000E+02  0.51100000000E-03 0. -1.
    9900012    2    1    2    0    0 -0.28109168219E+02  0.22762814495E+02 -0.18571322091E+02  0.50528867374E+02  0.30000022871E+02 0.  0.
        -12    1    1    2    0    0  0.28109168219E+02 -0.22762814495E+02  0.18571322091E+02  0.40659132626E+02  0.00000000000E+00 0.  1.
         11    1    3    3    0    0 -0.15131615793E+02  0.16740625881E+02 -0.16180493354E+02  0.27767295815E+02  0.51100000000E-03 0. -1.
        -11    1    3    3    0    0 -0.13113445698E+02  0.10341879915E+02  0.17298096012E+01  0.16790151273E+02  0.51100000000E-03 0.  1.
        -12    1    3    3    0    0  0.13589327259E+00 -0.43196913019E+01 -0.41206383381E+01  0.59714202866E+01  0.00000000000E+00 0.  1.
</event>
<event>
 7    1  0.2817603E-011  0.5052886E+02  0.7816164E-02  0.1300439E+00
        -11   -1    0    0    0    0  0.00000000000E+00  0.00000000000E+00  0.45593999997E+02  0.45594000000E+02  0.51100000000E-03 0. -1.
         11   -1    0    0    0    0 -0.00000000000E+00 -0.00000000000E+00 -0.45593999997E+02  0.45594000000E+02  0.51100000000E-03 0.  1.
    9900012    2    1    2    0    0  0.25968069639E+02  0.28743319763E+02  0.12355038959E+02  0.50528855156E+02  0.29999985733E+02 0.  0.
        -12    1    1    2    0    0 -0.25968069639E+02 -0.28743319763E+02 -0.12355038959E+02  0.40659144844E+02  0.00000000000E+00 0.  1.
         11    1    3    3    0    0  0.19889438640E+02  0.19896899676E+02  0.17153380666E+02  0.32950187476E+02  0.51100000000E-03 0. -1.
        -11    1    3    3    0    0  0.43686602703E+00 -0.19571647410E+01  0.26285263604E+01  0.33061301906E+01  0.51100000000E-03 0.  1.
        -12    1    3    3    0    0  0.56417649718E+01  0.10803584827E+02 -0.74268680674E+01  0.14272537490E+02  0.00000000000E+00 0.  1.
</event>
<event>
 7    1  0.2817603E-011  0.5052889E+02  0.7816164E-02  0.1300439E+00
        -11   -1    0    0    0    0  0.00000000000E+00  0.00000000000E+00  0.45593999997E+02  0.45594000000E+02  0.51100000000E-03 0.  1.
         11   -1    0    0    0    0 -0.00000000000E+00 -0.00000000000E+00 -0.45593999997E+02  0.45594000000E+02  0.51100000000E-03 0. -1.
    9900012    2    1    2    0    0 -0.32837413982E+02  0.35114102882E+01 -0.23717870445E+02  0.50528891086E+02  0.30000094946E+02 0.  0.
        -12    1    1    2    0    0  0.32837413982E+02 -0.35114102882E+01  0.23717870445E+02  0.40659108914E+02  0.00000000000E+00 0.  1.
         11    1    3    3    0    0 -0.65314617135E+01  0.34020279044E+01 -0.21794713489E+02  0.23005289008E+02  0.51100000000E-03 0. -1.
        -11    1    3    3    0    0 -0.10002391976E+01  0.15800723127E+01  0.79065776204E+00  0.20303317274E+01  0.51100000000E-03 0.  1.
         12    1    3    3    0    0 -0.25305713071E+02 -0.14706899290E+01 -0.27138147175E+01  0.25493270351E+02  0.00000000000E+00 0. -1.
</event>
<event>
 7    1  0.2817603E-011  0.5052888E+02  0.7816164E-02  0.1300439E+00
        -11   -1    0    0    0    0  0.00000000000E+00  0.00000000000E+00  0.45593999997E+02  0.45594000000E+02  0.51100000000E-03 0. -1.
         11   -1    0    0    0    0 -0.00000000000E+00 -0.00000000000E+00 -0.45593999997E+02  0.45594000000E+02  0.51100000000E-03 0.  1.
    9900012    2    1    2    0    0  0.35342334358E+02  0.13016922309E+02  0.15318056976E+02  0.50528883756E+02  0.30000072665E+02 0.  0.
        -12    1    1    2    0    0 -0.35342334358E+02 -0.13016922309E+02 -0.15318056976E+02  0.40659116244E+02  0.00000000000E+00 0.  1.
         11    1    3    3    0    0  0.11229909450E+02  0.28143258299E+01 -0.65938013394E+01  0.13323269587E+02  0.51100000000E-03 0. -1.
        -11    1    3    3    0    0  0.14471361695E+01 -0.10534110328E+01 -0.17911418264E+01  0.25322059949E+01  0.51100000000E-03 0.  1.
        -12    1    3    3    0    0  0.22665288738E+02  0.11256007512E+02  0.23703000142E+02  0.34673408174E+02  0.00000000000E+00 0.  1.
</event>
<event>
 7    1  0.2817603E-011  0.5052886E+02  0.7816164E-02  0.1300439E+00
        -11   -1    0    0    0    0  0.00000000000E+00  0.00000000000E+00  0.45593999997E+02  0.45594000000E+02  0.51100000000E-03 0. -1.
         11   -1    0    0    0    0 -0.00000000000E+00 -0.00000000000E+00 -0.45593999997E+02  0.45594000000E+02  0.51100000000E-03 0.  1.
    9900012    2    1    2    0    0  0.14467014268E+02  0.25907317022E+02  0.27797163624E+02  0.50528857330E+02  0.29999992342E+02 0.  0.
        -12    1    1    2    0    0 -0.14467014268E+02 -0.25907317022E+02 -0.27797163624E+02  0.40659142670E+02  0.00000000000E+00 0.  1.
         11    1    3    3    0    0  0.40840312982E+01 -0.14372295056E+01 -0.34360252415E+01  0.55273149013E+01  0.51100000000E-03 0.  1.
        -11    1    3    3    0    0  0.40742025840E+00  0.19477843767E+02  0.21373187061E+02  0.28919984690E+02  0.51100000000E-03 0. -1.
         12    1    3    3    0    0  0.99755627114E+01  0.78667027605E+01  0.98600018041E+01  0.16081557739E+02  0.00000000000E+00 0. -1.
</event>
<event>
 7    1  0.2817603E-011  0.5052886E+02  0.7816164E-02  0.1300439E+00
        -11   -1    0    0    0    0  0.00000000000E+00  0.00000000000E+00  0.45593999997E+02  0.45594000000E+02  0.51100000000E-03 0.  1.
         11   -1    0    0    0    0 -0.00000000000E+00 -0.00000000000E+00 -0.45593999997E+02  0.45594000000E+02  0.51100000000E-03 0. -1.
    9900012    2    1    2    0    0  0.54342656268E+01 -0.11889756965E+02 -0.38500234270E+02  0.50528860776E+02  0.30000002813E+02 0.  0.
        -12    1    1    2    0    0 -0.54342656268E+01  0.11889756965E+02  0.38500234270E+02  0.40659139224E+02  0.00000000000E+00 0.  1.
         11    1    3    3    0    0 -0.38903335613E-01 -0.11452235295E+02 -0.70718372323E+01  0.13459795274E+02  0.51100000000E-03 0. -1.
        -11    1    3    3    0    0  0.32420066029E+01 -0.95520479418E+01 -0.18809838573E+02  0.21343904378E+02  0.51100000000E-03 0.  1.
        -12    1    3    3    0    0  0.22311623595E+01  0.91145262713E+01 -0.12618558465E+02  0.15725161124E+02  0.00000000000E+00 0.  1.
</event>
<event>
 7    1  0.2817603E-011  0.5052886E+02  0.7816164E-02  0.1300439E+00
        -11   -1    0    0    0    0  0.00000000000E+00  0.00000000000E+00  0.45593999997E+02  0.45594000000E+02  0.51100000000E-03 0.  1.
         11   -1    0    0    0    0 -0.00000000000E+00 -0.00000000000E+00 -0.45593999997E+02  0.45594000000E+02  0.51100000000E-03 0. -1.
    9900012    2    1    2    0    0  0.37631930851E+02 -0.15302262002E+02 -0.16865814558E+01  0.50528855899E+02  0.29999987992E+02 0.  0.
        -12    1    1    2    0    0 -0.37631930851E+02  0.15302262002E+02  0.16865814558E+01  0.40659144101E+02  0.00000000000E+00 0.  1.
         11    1    3    3    0    0  0.21045338537E+02 -0.72830378468E+01 -0.77626610093E+01  0.23584058612E+02  0.51100000000E-03 0. -1.
        -11    1    3    3    0    0  0.14576020977E+02 -0.99195088076E+01 -0.26150224936E+01  0.17824011484E+02  0.51100000000E-03 0.  1.
         12    1    3    3    0    0  0.20105713375E+01  0.19002846526E+01  0.86911020471E+01  0.91207858026E+01  0.00000000000E+00 0. -1.
</event>
<event>
 7    1  0.2817603E-011  0.5052886E+02  0.7816164E-02  0.1300439E+00
        -11   -1    0    0    0    0  0.00000000000E+00  0.00000000000E+00  0.45593999997E+02  0.45594000000E+02  0.51100000000E-03 0.  1.
         11   -1    0    0    0    0 -0.00000000000E+00 -0.00000000000E+00 -0.45593999997E+02  0.45594000000E+02  0.51100000000E-03 0. -1.
    9900012    2    1    2    0    0  0.18388397253E+02  0.31054166507E+02  0.18726213714E+02  0.50528862146E+02  0.30000006980E+02 0.  0.
        -12    1    1    2    0    0 -0.18388397253E+02 -0.31054166507E+02 -0.18726213714E+02  0.40659137854E+02  0.00000000000E+00 0.  1.
         11    1    3    3    0    0  0.15838800319E+02  0.16732333469E+02  0.65690854160E+01  0.23958118923E+02  0.51100000000E-03 0. -1.
        -11    1    3    3    0    0  0.90024655759E+01  0.11579540334E+02  0.28887131503E+01  0.14949073707E+02  0.51100000000E-03 0.  1.
        -12    1    3    3    0    0 -0.64528686423E+01  0.27422927041E+01  0.92684151472E+01  0.11621669516E+02  0.00000000000E+00 0.  1.
</event>
<event>
 7    1  0.2817603E-011  0.5052884E+02  0.7816164E-02  0.1300439E+00
        -11   -1    0    0    0    0  0.00000000000E+00  0.00000000000E+00  0.45593999997E+02  0.45594000000E+02  0.51100000000E-03 0.  1.
         11   -1    0    0    0    0 -0.00000000000E+00 -0.00000000000E+00 -0.45593999997E+02  0.45594000000E+02  0.51100000000E-03 0. -1.
    9900012    2    1    2    0    0  0.34919408700E+02 -0.15554329631E+02 -0.13851526303E+02  0.50528842912E+02  0.29999948514E+02 0.  0.
        -12    1    1    2    0    0 -0.34919408700E+02  0.15554329631E+02  0.13851526303E+02  0.40659157088E+02  0.00000000000E+00 0.  1.
         11    1    3    3    0    0  0.18937459280E+02 -0.61162711482E+01 -0.12735904345E+02  0.23627090309E+02  0.51100000000E-03 0. -1.
        -11    1    3    3    0    0  0.70538334406E+01 -0.29946506673E+01 -0.10108961320E+02  0.12685251202E+02  0.51100000000E-03 0.  1.
         12    1    3    3    0    0  0.89281159795E+01 -0.64434078155E+01  0.89933393614E+01  0.14216501401E+02  0.00000000000E+00 0. -1.
</event>
<event>
 7    1  0.2817603E-011  0.5052884E+02  0.7816164E-02  0.1300439E+00
        -11   -1    0    0    0    0  0.00000000000E+00  0.00000000000E+00  0.45593999997E+02  0.45594000000E+02  0.51100000000E-03 0.  1.
         11   -1    0    0    0    0 -0.00000000000E+00 -0.00000000000E+00 -0.45593999997E+02  0.45594000000E+02  0.51100000000E-03 0. -1.
    9900012    2    1    2    0    0 -0.18443106122E+02 -0.14538406289E+02 -0.33191171056E+02  0.50528840430E+02  0.29999940972E+02 0.  0.
        -12    1    1    2    0    0  0.18443106122E+02  0.14538406289E+02  0.33191171056E+02  0.40659159570E+02  0.00000000000E+00 0.  1.
         11    1    3    3    0    0 -0.17642847597E+01  0.36721521456E+01  0.14708865634E+01  0.43313865721E+01  0.51100000000E-03 0. -1.
        -11    1    3    3    0    0  0.14759277062E+01  0.25545763754E+01 -0.30392486606E+01  0.42357119513E+01  0.51100000000E-03 0.  1.
         12    1    3    3    0    0 -0.18154749068E+02 -0.20765134810E+02 -0.31622808959E+02  0.41961741907E+02  0.00000000000E+00 0. -1.
</event>
<event>
 7    1  0.2817603E-011  0.5052888E+02  0.7816164E-02  0.1300439E+00
        -11   -1    0    0    0    0  0.00000000000E+00  0.00000000000E+00  0.45593999997E+02  0.45594000000E+02  0.51100000000E-03 0. -1.
         11   -1    0    0    0    0 -0.00000000000E+00 -0.00000000000E+00 -0.45593999997E+02  0.45594000000E+02  0.51100000000E-03 0.  1.
    9900012    2    1    2    0    0  0.27245360364E+01 -0.33501957929E+02  0.22877065575E+02  0.50528875427E+02  0.30000047349E+02 0.  0.
        -12    1    1    2    0    0 -0.27245360364E+01  0.33501957929E+02 -0.22877065575E+02  0.40659124573E+02  0.00000000000E+00 0.  1.
         11    1    3    3    0    0 -0.39585788650E+01  0.88626213829E+00  0.95321886922E+00  0.41670653561E+01  0.51100000000E-03 0. -1.
        -11    1    3    3    0    0  0.31750815523E+01 -0.14100230612E+02 -0.22291646239E+01  0.14624186178E+02  0.51100000000E-03 0.  1.
         12    1    3    3    0    0  0.35080333490E+01 -0.20287989455E+02  0.24153011330E+02  0.31737623894E+02  0.00000000000E+00 0. -1.
</event>
<event>
 7    1  0.2817603E-011  0.5052886E+02  0.7816164E-02  0.1300439E+00
        -11   -1    0    0    0    0  0.00000000000E+00  0.00000000000E+00  0.45593999997E+02  0.45594000000E+02  0.51100000000E-03 0. -1.
         11   -1    0    0    0    0 -0.00000000000E+00 -0.00000000000E+00 -0.45593999997E+02  0.45594000000E+02  0.51100000000E-03 0.  1.
    9900012    2    1    2    0    0 -0.17811345938E+02 -0.30144076919E+01  0.36425746161E+02  0.50528859807E+02  0.29999999869E+02 0.  0.
        -12    1    1    2    0    0  0.17811345938E+02  0.30144076919E+01 -0.36425746161E+02  0.40659140193E+02  0.00000000000E+00 0.  1.
         11    1    3    3    0    0 -0.14238269389E+02 -0.60907393240E+01  0.27116507680E+02  0.31227078149E+02  0.51100000000E-03 0.  1.
        -11    1    3    3    0    0 -0.36760801609E+01  0.72850281285E+00  0.13764039746E+02  0.14265099793E+02  0.51100000000E-03 0. -1.
        -12    1    3    3    0    0  0.10300361175E+00  0.23478288193E+01 -0.44548012647E+01  0.50366818657E+01  0.00000000000E+00 0.  1.
</event>
<event>
 7    1  0.2817603E-011  0.5052887E+02  0.7816164E-02  0.1300439E+00
        -11   -1    0    0    0    0  0.00000000000E+00  0.00000000000E+00  0.45593999997E+02  0.45594000000E+02  0.51100000000E-03 0.  1.
         11   -1    0    0    0    0 -0.00000000000E+00 -0.00000000000E+00 -0.45593999997E+02  0.45594000000E+02  0.51100000000E-03 0. -1.
    9900012    2    1    2    0    0  0.27367709995E+01 -0.31708014436E+02 -0.25303697805E+02  0.50528865509E+02  0.30000017200E+02 0.  0.
        -12    1    1    2    0    0 -0.27367709995E+01  0.31708014436E+02  0.25303697805E+02  0.40659134491E+02  0.00000000000E+00 0.  1.
         11    1    3    3    0    0  0.39221217715E+01 -0.26397465300E+01  0.24022588099E+01  0.53030320180E+01  0.51100000000E-03 0. -1.
        -11    1    3    3    0    0 -0.54833886368E+00  0.11894464899E+01  0.22752297841E+01  0.26252865164E+01  0.51100000000E-03 0.  1.
         12    1    3    3    0    0 -0.63701190828E+00 -0.30257714396E+02 -0.29981186399E+02  0.42600546974E+02  0.00000000000E+00 0. -1.
</event>
<event>
 7    1  0.2817603E-011  0.5052884E+02  0.7816164E-02  0.1300439E+00
        -11   -1    0    0    0    0  0.00000000000E+00  0.00000000000E+00  0.45593999997E+02  0.45594000000E+02  0.51100000000E-03 0. -1.
         11   -1    0    0    0    0 -0.00000000000E+00 -0.00000000000E+00 -0.45593999997E+02  0.45594000000E+02  0.51100000000E-03 0.  1.
    9900012    2    1    2    0    0 -0.89086623946E+01 -0.25776145202E+02  0.30156152460E+02  0.50528837954E+02  0.29999933444E+02 0.  0.
        -12    1    1    2    0    0  0.89086623946E+01  0.25776145202E+02 -0.30156152460E+02  0.40659162046E+02  0.00000000000E+00 0.  1.
         11    1    3    3    0    0  0.70026411982E+00 -0.53461697663E+01 -0.20740169137E+01  0.57769756298E+01  0.51100000000E-03 0. -1.
        -11    1    3    3    0    0 -0.59104954335E+01 -0.17893250444E+01 -0.12063232250E+01  0.62921265378E+01  0.51100000000E-03 0.  1.
         12    1    3    3    0    0 -0.36984310810E+01 -0.18640650391E+02  0.33436492598E+02  0.38459735786E+02  0.00000000000E+00 0. -1.
</event>
<event>
 7    1  0.3189571E-011  0.5052886E+02  0.7816164E-02  0.1300439E+00
        -11   -1    0    0    0    0  0.00000000000E+00  0.00000000000E+00  0.45593999997E+02  0.45594000000E+02  0.51100000000E-03 0.  1.
         11   -1    0    0    0    0 -0.00000000000E+00 -0.00000000000E+00 -0.45593999997E+02  0.45594000000E+02  0.51100000000E-03 0. -1.
    9900012    2    1    2    0    0  0.34407421218E+02 -0.16224764798E+02 -0.14354524772E+02  0.50528855775E+02  0.29999987615E+02 0.  0.
        -12    1    1    2    0    0 -0.34407421218E+02  0.16224764798E+02  0.14354524772E+02  0.40659144225E+02  0.00000000000E+00 0.  1.
         11    1    3    3    0    0  0.26703113249E+02 -0.12279372587E+02 -0.58864294481E+01  0.29974811096E+02  0.51100000000E-03 0. -1.
        -11    1    3    3    0    0  0.43066169117E+01  0.33801813622E+01  0.32171845379E+01  0.63500277068E+01  0.51100000000E-03 0.  1.
         12    1    3    3    0    0  0.33976910575E+01 -0.73255735737E+01 -0.11685279862E+02  0.14204016973E+02  0.00000000000E+00 0. -1.
</event>
<event>
 7    1  0.2817603E-011  0.5052885E+02  0.7816164E-02  0.1300439E+00
        -11   -1    0    0    0    0  0.00000000000E+00  0.00000000000E+00  0.45593999997E+02  0.45594000000E+02  0.51100000000E-03 0.  1.
         11   -1    0    0    0    0 -0.00000000000E+00 -0.00000000000E+00 -0.45593999997E+02  0.45594000000E+02  0.51100000000E-03 0. -1.
    9900012    2    1    2    0    0  0.12491791516E+02  0.18913959736E+02 -0.33754757272E+02  0.50528851378E+02  0.29999974249E+02 0.  0.
        -12    1    1    2    0    0 -0.12491791516E+02 -0.18913959736E+02  0.33754757272E+02  0.40659148622E+02  0.00000000000E+00 0.  1.
         11    1    3    3    0    0  0.61752301651E+01  0.91569994446E+01 -0.73007877436E+01  0.13239547136E+02  0.51100000000E-03 0. -1.
        -11    1    3    3    0    0 -0.27996522978E+01  0.13690695413E+02 -0.74210152995E+01  0.15822283723E+02  0.51100000000E-03 0.  1.
         12    1    3    3    0    0  0.91162136487E+01 -0.39337351220E+01 -0.19032954229E+02  0.21467020519E+02  0.00000000000E+00 0. -1.
</event>
<event>
 7    1  0.2817603E-011  0.5052885E+02  0.7816164E-02  0.1300439E+00
        -11   -1    0    0    0    0  0.00000000000E+00  0.00000000000E+00  0.45593999997E+02  0.45594000000E+02  0.51100000000E-03 0. -1.
         11   -1    0    0    0    0 -0.00000000000E+00 -0.00000000000E+00 -0.45593999997E+02  0.45594000000E+02  0.51100000000E-03 0.  1.
    9900012    2    1    2    0    0 -0.40150971526E+02  0.28009079957E+01  0.57637497028E+01  0.50528850836E+02  0.29999972601E+02 0.  0.
        -12    1    1    2    0    0  0.40150971526E+02 -0.28009079957E+01 -0.57637497028E+01  0.40659149164E+02  0.00000000000E+00 0.  1.
         11    1    3    3    0    0 -0.19219634815E+02 -0.41249058083E+01  0.26534909060E+01  0.19835579765E+02  0.51100000000E-03 0. -1.
        -11    1    3    3    0    0 -0.22070509162E+02  0.12145740724E+02  0.24870017674E+01  0.25314256269E+02  0.51100000000E-03 0.  1.
         12    1    3    3    0    0  0.11391724508E+01 -0.52199269195E+01  0.62325702940E+00  0.53790148022E+01  0.00000000000E+00 0. -1.
</event>
<event>
 7    1  0.2817603E-011  0.5052886E+02  0.7816164E-02  0.1300439E+00
        -11   -1    0    0    0    0  0.00000000000E+00  0.00000000000E+00  0.45593999997E+02  0.45594000000E+02  0.51100000000E-03 0.  1.
         11   -1    0    0    0    0 -0.00000000000E+00 -0.00000000000E+00 -0.45593999997E+02  0.45594000000E+02  0.51100000000E-03 0. -1.
    9900012    2    1    2    0    0  0.33274692311E+02  0.75668584668E+01 -0.22106629303E+02  0.50528861365E+02  0.30000004604E+02 0.  0.
        -12    1    1    2    0    0 -0.33274692311E+02 -0.75668584668E+01  0.22106629303E+02  0.40659138635E+02  0.00000000000E+00 0.  1.
         11    1    3    3    0    0  0.12131839459E+02 -0.33374781586E+01 -0.27592586055E+01  0.12881529313E+02  0.51100000000E-03 0. -1.
        -11    1    3    3    0    0 -0.33135378618E+01 -0.22923554497E+01 -0.48437987307E+01  0.63005406970E+01  0.51100000000E-03 0.  1.
         12    1    3    3    0    0  0.24456390714E+02  0.13196692075E+02 -0.14503571967E+02  0.31346791355E+02  0.00000000000E+00 0. -1.
</event>
<event>
 7    1  0.2817603E-011  0.5052886E+02  0.7816164E-02  0.1300439E+00
        -11   -1    0    0    0    0  0.00000000000E+00  0.00000000000E+00  0.45593999997E+02  0.45594000000E+02  0.51100000000E-03 0.  1.
         11   -1    0    0    0    0 -0.00000000000E+00 -0.00000000000E+00 -0.45593999997E+02  0.45594000000E+02  0.51100000000E-03 0. -1.
    9900012    2    1    2    0    0  0.40472270002E+02 -0.34248715311E+01  0.18523378329E+01  0.50528861549E+02  0.30000005165E+02 0.  0.
        -12    1    1    2    0    0 -0.40472270002E+02  0.34248715311E+01 -0.18523378329E+01  0.40659138451E+02  0.00000000000E+00 0.  1.
         11    1    3    3    0    0  0.39579974173E+02  0.69253013786E+00  0.13886112658E+01  0.39610379890E+02  0.51100000000E-03 0. -1.
        -11    1    3    3    0    0  0.50785543939E+01 -0.98165502161E+00  0.18734511939E+01  0.55013799133E+01  0.51100000000E-03 0.  1.
        -12    1    3    3    0    0 -0.41862585645E+01 -0.31357466473E+01 -0.14097246268E+01  0.54171017462E+01  0.00000000000E+00 0.  1.
</event>
<event>
 7    1  0.2817603E-011  0.5052890E+02  0.7816164E-02  0.1300439E+00
        -11   -1    0    0    0    0  0.00000000000E+00  0.00000000000E+00  0.45593999997E+02  0.45594000000E+02  0.51100000000E-03 0.  1.
         11   -1    0    0    0    0 -0.00000000000E+00 -0.00000000000E+00 -0.45593999997E+02  0.45594000000E+02  0.51100000000E-03 0. -1.
    9900012    2    1    2    0    0  0.14604580335E+02  0.11881019547E+01 -0.37926995261E+02  0.50528901110E+02  0.30000125412E+02 0.  0.
        -12    1    1    2    0    0 -0.14604580335E+02 -0.11881019547E+01  0.37926995261E+02  0.40659098890E+02  0.00000000000E+00 0.  1.
         11    1    3    3    0    0  0.20616735946E+02 -0.24890863710E+01 -0.31010316948E+02  0.37321376040E+02  0.51100000000E-03 0. -1.
        -11    1    3    3    0    0 -0.53227235760E-01  0.51076428211E+01 -0.34897401022E+01  0.61862051832E+01  0.51100000000E-03 0.  1.
        -12    1    3    3    0    0 -0.59589283750E+01 -0.14304544955E+01 -0.34269382106E+01  0.70213198860E+01  0.00000000000E+00 0.  1.
</event>
<event>
 7    1  0.2817603E-011  0.5052885E+02  0.7816164E-02  0.1300439E+00
        -11   -1    0    0    0    0  0.00000000000E+00  0.00000000000E+00  0.45593999997E+02  0.45594000000E+02  0.51100000000E-03 0.  1.
         11   -1    0    0    0    0 -0.00000000000E+00 -0.00000000000E+00 -0.45593999997E+02  0.45594000000E+02  0.51100000000E-03 0. -1.
    9900012    2    1    2    0    0  0.12009147653E+02  0.26496830856E+02 -0.28405370933E+02  0.50528846411E+02  0.29999959150E+02 0.  0.
        -12    1    1    2    0    0 -0.12009147653E+02 -0.26496830856E+02  0.28405370933E+02  0.40659153589E+02  0.00000000000E+00 0.  1.
         11    1    3    3    0    0  0.30903481401E+01  0.11969154039E+02 -0.79668240828E+01  0.14706501497E+02  0.51100000000E-03 0. -1.
        -11    1    3    3    0    0  0.11805195855E+02  0.19655919163E+02 -0.18966099989E+02  0.29756188539E+02  0.51100000000E-03 0.  1.
        -12    1    3    3    0    0 -0.28863963424E+01 -0.51282423460E+01 -0.14724468604E+01  0.60661563747E+01  0.00000000000E+00 0.  1.
</event>
<event>
 7    1  0.2817603E-011  0.5052882E+02  0.7816164E-02  0.1300439E+00
        -11   -1    0    0    0    0  0.00000000000E+00  0.00000000000E+00  0.45593999997E+02  0.45594000000E+02  0.51100000000E-03 0.  1.
         11   -1    0    0    0    0 -0.00000000000E+00 -0.00000000000E+00 -0.45593999997E+02  0.45594000000E+02  0.51100000000E-03 0. -1.
    9900012    2    1    2    0    0  0.14844202076E+02 -0.27593799316E+02 -0.25911408244E+02  0.50528816865E+02  0.29999869344E+02 0.  0.
        -12    1    1    2    0    0 -0.14844202076E+02  0.27593799316E+02  0.25911408244E+02  0.40659183135E+02  0.00000000000E+00 0.  1.
         11    1    3    3    0    0  0.12145740143E+02 -0.71105926959E+01 -0.21094621923E+02  0.25358679115E+02  0.51100000000E-03 0. -1.
        -11    1    3    3    0    0  0.65362393232E+01 -0.15734316466E+02 -0.73551638640E+01  0.18557736254E+02  0.51100000000E-03 0.  1.
         12    1    3    3    0    0 -0.38377773905E+01 -0.47488901548E+01  0.25383775433E+01  0.66124014967E+01  0.00000000000E+00 0. -1.
</event>
<event>
 7    1  0.2817603E-011  0.5052886E+02  0.7816164E-02  0.1300439E+00
        -11   -1    0    0    0    0  0.00000000000E+00  0.00000000000E+00  0.45593999997E+02  0.45594000000E+02  0.51100000000E-03 0.  1.
         11   -1    0    0    0    0 -0.00000000000E+00 -0.00000000000E+00 -0.45593999997E+02  0.45594000000E+02  0.51100000000E-03 0. -1.
    9900012    2    1    2    0    0 -0.68518576886E+01  0.15504161850E+02 -0.36957256713E+02  0.50528858196E+02  0.29999994973E+02 0.  0.
        -12    1    1    2    0    0  0.68518576886E+01 -0.15504161850E+02  0.36957256713E+02  0.40659141804E+02  0.00000000000E+00 0.  1.
         11    1    3    3    0    0  0.22882722138E+01  0.51198011597E+01 -0.54461623689E+01  0.78172398229E+01  0.51100000000E-03 0. -1.
        -11    1    3    3    0    0  0.57576933128E+01  0.68597102902E+01 -0.15821310217E+01  0.90944926401E+01  0.51100000000E-03 0.  1.
         12    1    3    3    0    0 -0.14897823215E+02  0.35246503997E+01 -0.29928963323E+02  0.33617125733E+02  0.00000000000E+00 0. -1.
</event>
<event>
 7    1  0.2817603E-011  0.5052886E+02  0.7816164E-02  0.1300439E+00
        -11   -1    0    0    0    0  0.00000000000E+00  0.00000000000E+00  0.45593999997E+02  0.45594000000E+02  0.51100000000E-03 0. -1.
         11   -1    0    0    0    0 -0.00000000000E+00 -0.00000000000E+00 -0.45593999997E+02  0.45594000000E+02  0.51100000000E-03 0.  1.
    9900012    2    1    2    0    0  0.14464119736E+02  0.14677976073E+02  0.35050132967E+02  0.50528861269E+02  0.30000004314E+02 0.  0.
        -12    1    1    2    0    0 -0.14464119736E+02 -0.14677976073E+02 -0.35050132967E+02  0.40659138731E+02  0.00000000000E+00 0.  1.
         11    1    3    3    0    0 -0.22590466636E+01  0.78712700002E+01  0.32956308582E+01  0.88273079848E+01  0.51100000000E-03 0. -1.
        -11    1    3    3    0    0 -0.78484347005E+00 -0.19485833496E+01 -0.18579691472E+01  0.28044617944E+01  0.51100000000E-03 0.  1.
         12    1    3    3    0    0  0.17508009869E+02  0.87552894222E+01  0.33612471256E+02  0.38897091490E+02  0.00000000000E+00 0. -1.
</event>
<event>
 7    1  0.2817603E-011  0.5052880E+02  0.7816164E-02  0.1300439E+00
        -11   -1    0    0    0    0  0.00000000000E+00  0.00000000000E+00  0.45593999997E+02  0.45594000000E+02  0.51100000000E-03 0.  1.
         11   -1    0    0    0    0 -0.00000000000E+00 -0.00000000000E+00 -0.45593999997E+02  0.45594000000E+02  0.51100000000E-03 0. -1.
    9900012    2    1    2    0    0 -0.30771247573E+02  0.25639865979E+02 -0.69926921766E+01  0.50528804871E+02  0.29999832886E+02 0.  0.
        -12    1    1    2    0    0  0.30771247573E+02 -0.25639865979E+02  0.69926921766E+01  0.40659195129E+02  0.00000000000E+00 0.  1.
         11    1    3    3    0    0 -0.19162658559E+02  0.12324476902E+02  0.28223102469E+01  0.22957910387E+02  0.51100000000E-03 0. -1.
        -11    1    3    3    0    0 -0.16083177859E+02  0.89221236888E+01 -0.35984103200E+01  0.18740903347E+02  0.51100000000E-03 0.  1.
        -12    1    3    3    0    0  0.44745888448E+01  0.43932653883E+01 -0.62165921035E+01  0.88299911372E+01  0.00000000000E+00 0.  1.
</event>
<event>
 7    1  0.2817603E-011  0.5052886E+02  0.7816164E-02  0.1300439E+00
        -11   -1    0    0    0    0  0.00000000000E+00  0.00000000000E+00  0.45593999997E+02  0.45594000000E+02  0.51100000000E-03 0.  1.
         11   -1    0    0    0    0 -0.00000000000E+00 -0.00000000000E+00 -0.45593999997E+02  0.45594000000E+02  0.51100000000E-03 0. -1.
    9900012    2    1    2    0    0 -0.11974252748E+01  0.94454767505E+01 -0.39528661358E+02  0.50528856784E+02  0.29999990680E+02 0.  0.
        -12    1    1    2    0    0  0.11974252748E+01 -0.94454767505E+01  0.39528661358E+02  0.40659143216E+02  0.00000000000E+00 0.  1.
         11    1    3    3    0    0 -0.73973321512E+00  0.91145698788E+01 -0.29825440034E+02  0.31195824445E+02  0.51100000000E-03 0. -1.
        -11    1    3    3    0    0  0.30423071064E+01  0.77994952750E+01 -0.59522563758E+01  0.10272152418E+02  0.51100000000E-03 0.  1.
         12    1    3    3    0    0 -0.34999991661E+01 -0.74685884033E+01 -0.37509649476E+01  0.90608799208E+01  0.00000000000E+00 0. -1.
</event>
<event>
 7    1  0.2817603E-011  0.5052886E+02  0.7816164E-02  0.1300439E+00
        -11   -1    0    0    0    0  0.00000000000E+00  0.00000000000E+00  0.45593999997E+02  0.45594000000E+02  0.51100000000E-03 0.  1.
         11   -1    0    0    0    0 -0.00000000000E+00 -0.00000000000E+00 -0.45593999997E+02  0.45594000000E+02  0.51100000000E-03 0. -1.
    9900012    2    1    2    0    0  0.34867910772E+02 -0.32180997206E+01 -0.20664904081E+02  0.50528860461E+02  0.30000001857E+02 0.  0.
        -12    1    1    2    0    0 -0.34867910772E+02  0.32180997206E+01  0.20664904081E+02  0.40659139539E+02  0.00000000000E+00 0.  1.
         11    1    3    3    0    0  0.17252131661E+01 -0.83988337959E+01 -0.89161722251E+01  0.12369919038E+02  0.51100000000E-03 0. -1.
        -11    1    3    3    0    0  0.98572386036E+01  0.82444769504E+00  0.28977703368E+01  0.10307373093E+02  0.51100000000E-03 0.  1.
        -12    1    3    3    0    0  0.23285459002E+02  0.43562863802E+01 -0.14646502193E+02  0.27851568330E+02  0.00000000000E+00 0.  1.
</event>
<event>
 7    1  0.2817603E-011  0.5052885E+02  0.7816164E-02  0.1300439E+00
        -11   -1    0    0    0    0  0.00000000000E+00  0.00000000000E+00  0.45593999997E+02  0.45594000000E+02  0.51100000000E-03 0.  1.
         11   -1    0    0    0    0 -0.00000000000E+00 -0.00000000000E+00 -0.45593999997E+02  0.45594000000E+02  0.51100000000E-03 0. -1.
    9900012    2    1    2    0    0 -0.17677315294E+02 -0.35656434930E+02 -0.83245035918E+01  0.50528853576E+02  0.29999980929E+02 0.  0.
        -12    1    1    2    0    0  0.17677315294E+02  0.35656434930E+02  0.83245035918E+01  0.40659146424E+02  0.00000000000E+00 0.  1.
         11    1    3    3    0    0 -0.26577395635E+01 -0.66541687335E+01 -0.28617068683E+01  0.77156274912E+01  0.51100000000E-03 0. -1.
        -11    1    3    3    0    0 -0.90292828984E+01 -0.12576749970E+01 -0.10586247561E+02  0.13970623956E+02  0.51100000000E-03 0.  1.
        -12    1    3    3    0    0 -0.59902928319E+01 -0.27744591199E+02  0.51234508371E+01  0.28842602128E+02  0.00000000000E+00 0.  1.
</event>
<event>
 7    1  0.2817603E-011  0.5052886E+02  0.7816164E-02  0.1300439E+00
        -11   -1    0    0    0    0  0.00000000000E+00  0.00000000000E+00  0.45593999997E+02  0.45594000000E+02  0.51100000000E-03 0. -1.
         11   -1    0    0    0    0 -0.00000000000E+00 -0.00000000000E+00 -0.45593999997E+02  0.45594000000E+02  0.51100000000E-03 0.  1.
    9900012    2    1    2    0    0 -0.37688009197E+02  0.14450038884E+02  0.48965577802E+01  0.50528856637E+02  0.29999990233E+02 0.  0.
        -12    1    1    2    0    0  0.37688009197E+02 -0.14450038884E+02 -0.48965577802E+01  0.40659143363E+02  0.00000000000E+00 0.  1.
         11    1    3    3    0    0 -0.11943355496E+00  0.54171873497E+01  0.15597841460E+01  0.56385379309E+01  0.51100000000E-03 0. -1.
        -11    1    3    3    0    0 -0.69517297253E+01  0.12132071722E+02  0.59853085234E+00  0.13995426035E+02  0.51100000000E-03 0.  1.
        -12    1    3    3    0    0 -0.30616845916E+02 -0.30992201882E+01  0.27382427819E+01  0.30894892671E+02  0.00000000000E+00 0.  1.
</event>
<event>
 7    1  0.2817603E-011  0.5052886E+02  0.7816164E-02  0.1300439E+00
        -11   -1    0    0    0    0  0.00000000000E+00  0.00000000000E+00  0.45593999997E+02  0.45594000000E+02  0.51100000000E-03 0. -1.
         11   -1    0    0    0    0 -0.00000000000E+00 -0.00000000000E+00 -0.45593999997E+02  0.45594000000E+02  0.51100000000E-03 0.  1.
    9900012    2    1    2    0    0  0.32514575762E+02 -0.12912166206E+02  0.20718207526E+02  0.50528858393E+02  0.29999995572E+02 0.  0.
        -12    1    1    2    0    0 -0.32514575762E+02  0.12912166206E+02 -0.20718207526E+02  0.40659141607E+02  0.00000000000E+00 0.  1.
         11    1    3    3    0    0  0.13248133030E+02 -0.10828214820E+02  0.95284023523E+01  0.19584527480E+02  0.51100000000E-03 0. -1.
        -11    1    3    3    0    0  0.75604667065E+01  0.48606064440E-01  0.16320447655E+02  0.17986662594E+02  0.51100000000E-03 0.  1.
        -12    1    3    3    0    0  0.11705976026E+02 -0.21325574507E+01 -0.51306424812E+01  0.12957668319E+02  0.00000000000E+00 0.  1.
</event>
<event>
 7    1  0.2817603E-011  0.5052885E+02  0.7816164E-02  0.1300439E+00
        -11   -1    0    0    0    0  0.00000000000E+00  0.00000000000E+00  0.45593999997E+02  0.45594000000E+02  0.51100000000E-03 0. -1.
         11   -1    0    0    0    0 -0.00000000000E+00 -0.00000000000E+00 -0.45593999997E+02  0.45594000000E+02  0.51100000000E-03 0.  1.
    9900012    2    1    2    0    0  0.18841773255E+02 -0.35894332141E+01  0.35850666403E+02  0.50528846889E+02  0.29999960603E+02 0.  0.
        -12    1    1    2    0    0 -0.18841773255E+02  0.35894332141E+01 -0.35850666403E+02  0.40659153111E+02  0.00000000000E+00 0.  1.
         11    1    3    3    0    0  0.70306107699E+01 -0.59065612391E+01  0.56065453439E+01  0.10758731543E+02  0.51100000000E-03 0. -1.
        -11    1    3    3    0    0  0.14033286887E+02  0.83195754580E+01  0.11490834628E+02  0.19954642502E+02  0.51100000000E-03 0.  1.
         12    1    3    3    0    0 -0.22221244022E+01 -0.60024474330E+01  0.18753286431E+02  0.19815472844E+02  0.00000000000E+00 0. -1.
</event>
<event>
 7    1  0.2817603E-011  0.5052885E+02  0.7816164E-02  0.1300439E+00
        -11   -1    0    0    0    0  0.00000000000E+00  0.00000000000E+00  0.45593999997E+02  0.45594000000E+02  0.51100000000E-03 0.  1.
         11   -1    0    0    0    0 -0.00000000000E+00 -0.00000000000E+00 -0.45593999997E+02  0.45594000000E+02  0.51100000000E-03 0. -1.
    9900012    2    1    2    0    0 -0.16468220377E+02  0.19871892324E+02 -0.31417698921E+02  0.50528853521E+02  0.29999980761E+02 0.  0.
        -12    1    1    2    0    0  0.16468220377E+02 -0.19871892324E+02  0.31417698921E+02  0.40659146479E+02  0.00000000000E+00 0.  1.
         11    1    3    3    0    0 -0.83122779298E+01  0.18496109922E+02 -0.17040965179E+02  0.26487629964E+02  0.51100000000E-03 0. -1.
        -11    1    3    3    0    0 -0.10178847330E+02 -0.14842192371E+00 -0.77909689787E+00  0.10209699029E+02  0.51100000000E-03 0.  1.
         12    1    3    3    0    0  0.20229048828E+01  0.15242043261E+01 -0.13597636844E+02  0.13831524527E+02  0.00000000000E+00 0. -1.
</event>
<event>
 7    1  0.2817603E-011  0.5052898E+02  0.7816164E-02  0.1300438E+00
        -11   -1    0    0    0    0  0.00000000000E+00  0.00000000000E+00  0.45593999997E+02  0.45594000000E+02  0.51100000000E-03 0. -1.
         11   -1    0    0    0    0 -0.00000000000E+00 -0.00000000000E+00 -0.45593999997E+02  0.45594000000E+02  0.51100000000E-03 0.  1.
    9900012    2    1    2    0    0  0.29387382426E+02 -0.27212682624E+02 -0.70005267401E+01  0.50528982352E+02  0.30000372355E+02 0.  0.
        -12    1    1    2    0    0 -0.29387382426E+02  0.27212682624E+02  0.70005267401E+01  0.40659017648E+02  0.00000000000E+00 0.  1.
         11    1    3    3    0    0  0.68888658746E+01 -0.89534809667E+01 -0.34783647917E+01  0.11820334866E+02  0.51100000000E-03 0. -1.
        -11    1    3    3    0    0  0.15315583271E+02 -0.19379347748E+02 -0.12066212408E+02  0.27490356349E+02  0.51100000000E-03 0.  1.
         12    1    3    3    0    0  0.71829332809E+01  0.11201460916E+01  0.85440504591E+01  0.11218291137E+02  0.00000000000E+00 0. -1.
</event>
<event>
 7    1  0.2817603E-011  0.5052885E+02  0.7816164E-02  0.1300439E+00
        -11   -1    0    0    0    0  0.00000000000E+00  0.00000000000E+00  0.45593999997E+02  0.45594000000E+02  0.51100000000E-03 0. -1.
         11   -1    0    0    0    0 -0.00000000000E+00 -0.00000000000E+00 -0.45593999997E+02  0.45594000000E+02  0.51100000000E-03 0.  1.
    9900012    2    1    2    0    0  0.30663122659E+02 -0.22459948676E+02 -0.14439187008E+02  0.50528849650E+02  0.29999968995E+02 0.  0.
        -12    1    1    2    0    0 -0.30663122659E+02  0.22459948676E+02  0.14439187008E+02  0.40659150350E+02  0.00000000000E+00 0.  1.
         11    1    3    3    0    0  0.76995737203E+01  0.17402892234E+01 -0.21907998536E+01  0.81921698173E+01  0.51100000000E-03 0. -1.
        -11    1    3    3    0    0  0.13035958782E+02  0.52687774311E+00 -0.86789428760E-01  0.13046890595E+02  0.51100000000E-03 0.  1.
         12    1    3    3    0    0  0.99275901565E+01 -0.24727115643E+02 -0.12161597725E+02  0.29289789237E+02  0.00000000000E+00 0. -1.
</event>
<event>
 7    1  0.2817603E-011  0.5052887E+02  0.7816164E-02  0.1300439E+00
        -11   -1    0    0    0    0  0.00000000000E+00  0.00000000000E+00  0.45593999997E+02  0.45594000000E+02  0.51100000000E-03 0.  1.
         11   -1    0    0    0    0 -0.00000000000E+00 -0.00000000000E+00 -0.45593999997E+02  0.45594000000E+02  0.51100000000E-03 0. -1.
    9900012    2    1    2    0    0  0.27807037321E+02 -0.29361851962E+02 -0.42208506252E+01  0.50528865046E+02  0.30000015794E+02 0.  0.
        -12    1    1    2    0    0 -0.27807037321E+02  0.29361851962E+02  0.42208506252E+01  0.40659134954E+02  0.00000000000E+00 0.  1.
         11    1    3    3    0    0  0.37436708470E+00 -0.35347359673E+01 -0.28688764104E+01  0.45678179903E+01  0.51100000000E-03 0. -1.
        -11    1    3    3    0    0 -0.14396470375E+00 -0.15390971192E+02 -0.51539162796E+01  0.16231622635E+02  0.51100000000E-03 0.  1.
         12    1    3    3    0    0  0.27576634940E+02 -0.10436144802E+02  0.38019420648E+01  0.29729424421E+02  0.00000000000E+00 0. -1.
</event>
<event>
 7    1  0.2817603E-011  0.5052886E+02  0.7816164E-02  0.1300439E+00
        -11   -1    0    0    0    0  0.00000000000E+00  0.00000000000E+00  0.45593999997E+02  0.45594000000E+02  0.51100000000E-03 0.  1.
         11   -1    0    0    0    0 -0.00000000000E+00 -0.00000000000E+00 -0.45593999997E+02  0.45594000000E+02  0.51100000000E-03 0. -1.
    9900012    2    1    2    0    0  0.31601444598E+02 -0.12684330974E+02 -0.22217603913E+02  0.50528862324E+02  0.30000007520E+02 0.  0.
        -12    1    1    2    0    0 -0.31601444598E+02  0.12684330974E+02  0.22217603913E+02  0.40659137676E+02  0.00000000000E+00 0.  1.
         11    1    3    3    0    0  0.61318889873E+01 -0.12300761625E+02 -0.11876170068E+02  0.18164586834E+02  0.51100000000E-03 0. -1.
        -11    1    3    3    0    0  0.13959228860E+02 -0.74790503054E+01 -0.87961485208E+00  0.15860957927E+02  0.51100000000E-03 0.  1.
         12    1    3    3    0    0  0.11510326751E+02  0.70954809565E+01 -0.94618189925E+01  0.16503317562E+02  0.00000000000E+00 0. -1.
</event>
<event>
 7    1  0.2817603E-011  0.5052886E+02  0.7816164E-02  0.1300439E+00
        -11   -1    0    0    0    0  0.00000000000E+00  0.00000000000E+00  0.45593999997E+02  0.45594000000E+02  0.51100000000E-03 0.  1.
         11   -1    0    0    0    0 -0.00000000000E+00 -0.00000000000E+00 -0.45593999997E+02  0.45594000000E+02  0.51100000000E-03 0. -1.
    9900012    2    1    2    0    0  0.24466587780E+02  0.24122559338E+02 -0.21740605487E+02  0.50528859410E+02  0.29999998663E+02 0.  0.
        -12    1    1    2    0    0 -0.24466587780E+02 -0.24122559338E+02  0.21740605487E+02  0.40659140590E+02  0.00000000000E+00 0.  1.
         11    1    3    3    0    0  0.85079290939E+01  0.99330236018E+01  0.31672786941E+01  0.13456651512E+02  0.51100000000E-03 0. -1.
        -11    1    3    3    0    0  0.13976530932E+01 -0.39355845844E+01 -0.44578036652E+01  0.61085410671E+01  0.51100000000E-03 0.  1.
         12    1    3    3    0    0  0.14561005593E+02  0.18125120320E+02 -0.20450080516E+02  0.30963666831E+02  0.00000000000E+00 0. -1.
</event>
<event>
 7    1  0.2817603E-011  0.5052885E+02  0.7816164E-02  0.1300439E+00
        -11   -1    0    0    0    0  0.00000000000E+00  0.00000000000E+00  0.45593999997E+02  0.45594000000E+02  0.51100000000E-03 0. -1.
         11   -1    0    0    0    0 -0.00000000000E+00 -0.00000000000E+00 -0.45593999997E+02  0.45594000000E+02  0.51100000000E-03 0.  1.
    9900012    2    1    2    0    0  0.27016181676E+02 -0.30342229407E+02  0.16252203256E+01  0.50528852212E+02  0.29999976783E+02 0.  0.
        -12    1    1    2    0    0 -0.27016181676E+02  0.30342229407E+02 -0.16252203256E+01  0.40659147788E+02  0.00000000000E+00 0.  1.
         11    1    3    3    0    0 -0.12842050486E+01 -0.58121382636E+00 -0.16466603348E+01  0.21675983572E+01  0.51100000000E-03 0. -1.
        -11    1    3    3    0    0  0.48125479248E+01  0.43940269869E+01  0.22589008598E+01  0.68971533291E+01  0.51100000000E-03 0.  1.
         12    1    3    3    0    0  0.23487838800E+02 -0.34155042568E+02  0.10129798006E+01  0.41464100525E+02  0.00000000000E+00 0. -1.
</event>
<event>
 7    1  0.2817603E-011  0.5052885E+02  0.7816164E-02  0.1300439E+00
        -11   -1    0    0    0    0  0.00000000000E+00  0.00000000000E+00  0.45593999997E+02  0.45594000000E+02  0.51100000000E-03 0.  1.
         11   -1    0    0    0    0 -0.00000000000E+00 -0.00000000000E+00 -0.45593999997E+02  0.45594000000E+02  0.51100000000E-03 0. -1.
    9900012    2    1    2    0    0  0.26529514555E+02 -0.26460607662E+02 -0.15785665132E+02  0.50528854362E+02  0.29999983318E+02 0.  0.
        -12    1    1    2    0    0 -0.26529514555E+02  0.26460607662E+02  0.15785665132E+02  0.40659145638E+02  0.00000000000E+00 0.  1.
         11    1    3    3    0    0  0.46517294527E+01 -0.17504387144E+02 -0.88294205770E+00  0.18133442672E+02  0.51100000000E-03 0. -1.
        -11    1    3    3    0    0 -0.25017350323E+00 -0.13845325922E+01  0.27530769377E+01  0.30917551919E+01  0.51100000000E-03 0.  1.
        -12    1    3    3    0    0  0.22127958605E+02 -0.75716879260E+01 -0.17655800012E+02  0.29303656498E+02  0.00000000000E+00 0.  1.
</event>
<event>
 7    1  0.2817603E-011  0.5052886E+02  0.7816164E-02  0.1300439E+00
        -11   -1    0    0    0    0  0.00000000000E+00  0.00000000000E+00  0.45593999997E+02  0.45594000000E+02  0.51100000000E-03 0.  1.
         11   -1    0    0    0    0 -0.00000000000E+00 -0.00000000000E+00 -0.45593999997E+02  0.45594000000E+02  0.51100000000E-03 0. -1.
    9900012    2    1    2    0    0 -0.24269885933E+02  0.32551433846E+02  0.21312784928E+01  0.50528861339E+02  0.30000004525E+02 0.  0.
        -12    1    1    2    0    0  0.24269885933E+02 -0.32551433846E+02 -0.21312784928E+01  0.40659138661E+02  0.00000000000E+00 0.  1.
         11    1    3    3    0    0 -0.18920746206E+02  0.32216056124E+02  0.63714002014E+01  0.37900707776E+02  0.51100000000E-03 0. -1.
        -11    1    3    3    0    0 -0.12030857047E+01  0.35350387399E+01  0.21948112692E+01  0.43314098021E+01  0.51100000000E-03 0.  1.
        -12    1    3    3    0    0 -0.41460540232E+01 -0.31996610179E+01 -0.64349329778E+01  0.82967437601E+01  0.00000000000E+00 0.  1.
</event>
<event>
 7    1  0.2817603E-011  0.5052887E+02  0.7816164E-02  0.1300439E+00
        -11   -1    0    0    0    0  0.00000000000E+00  0.00000000000E+00  0.45593999997E+02  0.45594000000E+02  0.51100000000E-03 0.  1.
         11   -1    0    0    0    0 -0.00000000000E+00 -0.00000000000E+00 -0.45593999997E+02  0.45594000000E+02  0.51100000000E-03 0. -1.
    9900012    2    1    2    0    0 -0.30981157094E+01 -0.85010566392E+01 -0.39639609903E+02  0.50528868699E+02  0.30000026896E+02 0.  0.
        -12    1    1    2    0    0  0.30981157094E+01  0.85010566392E+01  0.39639609903E+02  0.40659131301E+02  0.00000000000E+00 0.  1.
         11    1    3    3    0    0 -0.52334305901E+01  0.80132577351E+00 -0.61110335435E+01  0.80855210078E+01  0.51100000000E-03 0. -1.
        -11    1    3    3    0    0 -0.81759358489E+01 -0.76475197279E+01 -0.28952506999E+02  0.31041555160E+02  0.51100000000E-03 0.  1.
        -12    1    3    3    0    0  0.10311250730E+02 -0.16548626848E+01 -0.45760693604E+01  0.11401792530E+02  0.00000000000E+00 0.  1.
</event>
<event>
 7    1  0.2817603E-011  0.5052886E+02  0.7816164E-02  0.1300439E+00
        -11   -1    0    0    0    0  0.00000000000E+00  0.00000000000E+00  0.45593999997E+02  0.45594000000E+02  0.51100000000E-03 0. -1.
         11   -1    0    0    0    0 -0.00000000000E+00 -0.00000000000E+00 -0.45593999997E+02  0.45594000000E+02  0.51100000000E-03 0.  1.
    9900012    2    1    2    0    0  0.18554543704E+02  0.34779926906E+02  0.99624748046E+01  0.50528864349E+02  0.30000013674E+02 0.  0.
        -12    1    1    2    0    0 -0.18554543704E+02 -0.34779926906E+02 -0.99624748046E+01  0.40659135651E+02  0.00000000000E+00 0.  1.
         11    1    3    3    0    0 -0.40902897456E+00  0.14556530200E+02  0.74924704621E+01  0.16376720980E+02  0.51100000000E-03 0. -1.
        -11    1    3    3    0    0  0.71053166238E+01  0.45710472498E+01  0.10026393049E+02  0.13111390282E+02  0.51100000000E-03 0.  1.
        -12    1    3    3    0    0  0.11858256055E+02  0.15652349456E+02 -0.75563887066E+01  0.21040753087E+02  0.00000000000E+00 0.  1.
</event>
<event>
 7    1  0.2817603E-011  0.5052886E+02  0.7816164E-02  0.1300439E+00
        -11   -1    0    0    0    0  0.00000000000E+00  0.00000000000E+00  0.45593999997E+02  0.45594000000E+02  0.51100000000E-03 0.  1.
         11   -1    0    0    0    0 -0.00000000000E+00 -0.00000000000E+00 -0.45593999997E+02  0.45594000000E+02  0.51100000000E-03 0. -1.
    9900012    2    1    2    0    0  0.21888191712E+02  0.21309900031E+02 -0.26832081934E+02  0.50528863307E+02  0.30000010507E+02 0.  0.
        -12    1    1    2    0    0 -0.21888191712E+02 -0.21309900031E+02  0.26832081934E+02  0.40659136693E+02  0.00000000000E+00 0.  1.
         11    1    3    3    0    0 -0.25331595725E+01  0.41556782186E+01 -0.62757738577E+01  0.79417817051E+01  0.51100000000E-03 0. -1.
        -11    1    3    3    0    0 -0.11658016764E+01 -0.39539870719E+01 -0.20556799780E+01  0.46064007366E+01  0.51100000000E-03 0.  1.
        -12    1    3    3    0    0  0.25587152960E+02  0.21108208884E+02 -0.18500628099E+02  0.37980680865E+02  0.00000000000E+00 0.  1.
</event>
<event>
 7    1  0.2817603E-011  0.5052886E+02  0.7816164E-02  0.1300439E+00
        -11   -1    0    0    0    0  0.00000000000E+00  0.00000000000E+00  0.45593999997E+02  0.45594000000E+02  0.51100000000E-03 0.  1.
         11   -1    0    0    0    0 -0.00000000000E+00 -0.00000000000E+00 -0.45593999997E+02  0.45594000000E+02  0.51100000000E-03 0. -1.
    9900012    2    1    2    0    0 -0.35264988441E+02  0.17645120295E+02 -0.99093732813E+01  0.50528863772E+02  0.30000011921E+02 0.  0.
        -12    1    1    2    0    0  0.35264988441E+02 -0.17645120295E+02  0.99093732813E+01  0.40659136228E+02  0.00000000000E+00 0.  1.
         11    1    3    3    0    0 -0.14960960462E+02  0.11294265762E+02 -0.10922956454E+02  0.21695662124E+02  0.51100000000E-03 0. -1.
        -11    1    3    3    0    0 -0.29993039789E+01 -0.58714709878E+01 -0.30446167581E+01  0.72622095387E+01  0.51100000000E-03 0.  1.
         12    1    3    3    0    0 -0.17304724000E+02  0.12222325522E+02  0.40581999312E+01  0.21570992109E+02  0.00000000000E+00 0. -1.
</event>
<event>
 7    1  0.2817603E-011  0.5052885E+02  0.7816164E-02  0.1300439E+00
        -11   -1    0    0    0    0  0.00000000000E+00  0.00000000000E+00  0.45593999997E+02  0.45594000000E+02  0.51100000000E-03 0.  1.
         11   -1    0    0    0    0 -0.00000000000E+00 -0.00000000000E+00 -0.45593999997E+02  0.45594000000E+02  0.51100000000E-03 0. -1.
    9900012    2    1    2    0    0  0.19782196295E+02 -0.32336354679E+02 -0.14703453219E+02  0.50528847761E+02  0.29999963255E+02 0.  0.
        -12    1    1    2    0    0 -0.19782196295E+02  0.32336354679E+02  0.14703453219E+02  0.40659152239E+02  0.00000000000E+00 0.  1.
         11    1    3    3    0    0  0.53576503611E+01 -0.71853549204E+01 -0.42147950402E+01  0.99044555739E+01  0.51100000000E-03 0. -1.
        -11    1    3    3    0    0  0.20763062315E+02 -0.11729610467E+02 -0.31115032914E+01  0.24049323720E+02  0.51100000000E-03 0.  1.
        -12    1    3    3    0    0 -0.63385163812E+01 -0.13421389292E+02 -0.73771548878E+01  0.16575068467E+02  0.00000000000E+00 0.  1.
</event>
<event>
 7    1  0.2817603E-011  0.5052886E+02  0.7816164E-02  0.1300439E+00
        -11   -1    0    0    0    0  0.00000000000E+00  0.00000000000E+00  0.45593999997E+02  0.45594000000E+02  0.51100000000E-03 0.  1.
         11   -1    0    0    0    0 -0.00000000000E+00 -0.00000000000E+00 -0.45593999997E+02  0.45594000000E+02  0.51100000000E-03 0. -1.
    9900012    2    1    2    0    0 -0.81585722286E+01  0.27238877905E+02 -0.29062812945E+02  0.50528857528E+02  0.29999992941E+02 0.  0.
        -12    1    1    2    0    0  0.81585722286E+01 -0.27238877905E+02  0.29062812945E+02  0.40659142472E+02  0.00000000000E+00 0.  1.
         11    1    3    3    0    0 -0.70077027720E+01  0.18963193860E+02 -0.26705222588E+02  0.33494470189E+02  0.51100000000E-03 0.  1.
        -11    1    3    3    0    0 -0.58436652726E+01  0.69930937241E+01 -0.60398440818E+01  0.10933046256E+02  0.51100000000E-03 0. -1.
        -12    1    3    3    0    0  0.46927958160E+01  0.12825903208E+01  0.36822537252E+01  0.61013410820E+01  0.00000000000E+00 0.  1.
</event>
<event>
 7    1  0.2817603E-011  0.5052886E+02  0.7816164E-02  0.1300439E+00
        -11   -1    0    0    0    0  0.00000000000E+00  0.00000000000E+00  0.45593999997E+02  0.45594000000E+02  0.51100000000E-03 0. -1.
         11   -1    0    0    0    0 -0.00000000000E+00 -0.00000000000E+00 -0.45593999997E+02  0.45594000000E+02  0.51100000000E-03 0.  1.
    9900012    2    1    2    0    0 -0.34979044463E+01  0.32705217537E+02  0.23901856162E+02  0.50528864278E+02  0.30000013461E+02 0.  0.
        -12    1    1    2    0    0  0.34979044463E+01 -0.32705217537E+02 -0.23901856162E+02  0.40659135722E+02  0.00000000000E+00 0.  1.
         11    1    3    3    0    0 -0.19126978376E+01  0.19016460941E+02  0.11286744963E+02  0.22196279235E+02  0.51100000000E-03 0. -1.
        -11    1    3    3    0    0 -0.10839144656E+02  0.11332152564E+02  0.63893216463E+01  0.16933049636E+02  0.51100000000E-03 0.  1.
        -12    1    3    3    0    0  0.92539380476E+01  0.23566040309E+01  0.62257895525E+01  0.11399535407E+02  0.00000000000E+00 0.  1.
</event>
<event>
 7    1  0.2817603E-011  0.5052885E+02  0.7816164E-02  0.1300439E+00
        -11   -1    0    0    0    0  0.00000000000E+00  0.00000000000E+00  0.45593999997E+02  0.45594000000E+02  0.51100000000E-03 0.  1.
         11   -1    0    0    0    0 -0.00000000000E+00 -0.00000000000E+00 -0.45593999997E+02  0.45594000000E+02  0.51100000000E-03 0. -1.
    9900012    2    1    2    0    0 -0.18789338753E+02  0.12413093147E+02 -0.33853241525E+02  0.50528854731E+02  0.29999984439E+02 0.  0.
        -12    1    1    2    0    0  0.18789338753E+02 -0.12413093147E+02  0.33853241525E+02  0.40659145269E+02  0.00000000000E+00 0.  1.
         11    1    3    3    0    0  0.48779743172E+01  0.22419748413E+01 -0.56977464643E+01  0.78284991959E+01  0.51100000000E-03 0. -1.
        -11    1    3    3    0    0  0.23492974886E+01  0.49454039373E+01 -0.60838880817E+01  0.81847366020E+01  0.51100000000E-03 0.  1.
        -12    1    3    3    0    0 -0.26016610559E+02  0.52257143687E+01 -0.22071606979E+02  0.34515618933E+02  0.00000000000E+00 0.  1.
</event>
<event>
 7    1  0.2817603E-011  0.5052885E+02  0.7816164E-02  0.1300439E+00
        -11   -1    0    0    0    0  0.00000000000E+00  0.00000000000E+00  0.45593999997E+02  0.45594000000E+02  0.51100000000E-03 0.  1.
         11   -1    0    0    0    0 -0.00000000000E+00 -0.00000000000E+00 -0.45593999997E+02  0.45594000000E+02  0.51100000000E-03 0. -1.
    9900012    2    1    2    0    0  0.13737197881E+02 -0.15594038651E+02 -0.34946841737E+02  0.50528851036E+02  0.29999973208E+02 0.  0.
        -12    1    1    2    0    0 -0.13737197881E+02  0.15594038651E+02  0.34946841737E+02  0.40659148964E+02  0.00000000000E+00 0.  1.
         11    1    3    3    0    0  0.72589036533E+01 -0.90815013295E+01 -0.20709146574E+00  0.11627907627E+02  0.51100000000E-03 0. -1.
        -11    1    3    3    0    0  0.26972854729E+01  0.41585245982E+01 -0.48320859560E+01  0.69222634090E+01  0.51100000000E-03 0.  1.
         12    1    3    3    0    0  0.37810087548E+01 -0.10671061920E+02 -0.29907664316E+02  0.31978680000E+02  0.00000000000E+00 0. -1.
</event>
<event>
 7    1  0.2817603E-011  0.5052887E+02  0.7816164E-02  0.1300439E+00
        -11   -1    0    0    0    0  0.00000000000E+00  0.00000000000E+00  0.45593999997E+02  0.45594000000E+02  0.51100000000E-03 0.  1.
         11   -1    0    0    0    0 -0.00000000000E+00 -0.00000000000E+00 -0.45593999997E+02  0.45594000000E+02  0.51100000000E-03 0. -1.
    9900012    2    1    2    0    0 -0.19771220008E+02  0.32229455974E+02 -0.14950795066E+02  0.50528865158E+02  0.30000016135E+02 0.  0.
        -12    1    1    2    0    0  0.19771220008E+02 -0.32229455974E+02  0.14950795066E+02  0.40659134842E+02  0.00000000000E+00 0.  1.
         11    1    3    3    0    0 -0.13691732841E+02  0.22852056540E+02 -0.21192265625E+02  0.34041036395E+02  0.51100000000E-03 0. -1.
        -11    1    3    3    0    0 -0.10029660978E+01  0.41732718187E+01 -0.26178046562E+01  0.50274287808E+01  0.51100000000E-03 0.  1.
        -12    1    3    3    0    0 -0.50765210698E+01  0.52041276152E+01  0.88592752154E+01  0.11460399982E+02  0.00000000000E+00 0.  1.
</event>
<event>
 7    1  0.2817603E-011  0.5052884E+02  0.7816164E-02  0.1300439E+00
        -11   -1    0    0    0    0  0.00000000000E+00  0.00000000000E+00  0.45593999997E+02  0.45594000000E+02  0.51100000000E-03 0. -1.
         11   -1    0    0    0    0 -0.00000000000E+00 -0.00000000000E+00 -0.45593999997E+02  0.45594000000E+02  0.51100000000E-03 0.  1.
    9900012    2    1    2    0    0 -0.23126221690E+02  0.92310686298E+01  0.32142373141E+02  0.50528844711E+02  0.29999953982E+02 0.  0.
        -12    1    1    2    0    0  0.23126221690E+02 -0.92310686298E+01 -0.32142373141E+02  0.40659155289E+02  0.00000000000E+00 0.  1.
         11    1    3    3    0    0  0.43493280616E+01  0.28722223989E+01  0.35133408519E+01  0.62856885303E+01  0.51100000000E-03 0.  1.
        -11    1    3    3    0    0 -0.25366867773E+02  0.11112166739E+02  0.27274140490E+02  0.38869486362E+02  0.51100000000E-03 0. -1.
         12    1    3    3    0    0 -0.21086819780E+01 -0.47533205078E+01  0.13548917992E+01  0.53736698188E+01  0.00000000000E+00 0. -1.
</event>
<event>
 7    1  0.2817603E-011  0.5052886E+02  0.7816164E-02  0.1300439E+00
        -11   -1    0    0    0    0  0.00000000000E+00  0.00000000000E+00  0.45593999997E+02  0.45594000000E+02  0.51100000000E-03 0. -1.
         11   -1    0    0    0    0 -0.00000000000E+00 -0.00000000000E+00 -0.45593999997E+02  0.45594000000E+02  0.51100000000E-03 0.  1.
    9900012    2    1    2    0    0 -0.26731327277E+02  0.14458966118E+02  0.27010003041E+02  0.50528858058E+02  0.29999994553E+02 0.  0.
        -12    1    1    2    0    0  0.26731327277E+02 -0.14458966118E+02 -0.27010003041E+02  0.40659141942E+02  0.00000000000E+00 0.  1.
         11    1    3    3    0    0 -0.18884942219E+02  0.14448001470E+02  0.22370105780E+02  0.32646706143E+02  0.51100000000E-03 0. -1.
        -11    1    3    3    0    0 -0.40817773614E+01  0.73709119601E+01  0.48375209033E-01  0.84257693994E+01  0.51100000000E-03 0.  1.
        -12    1    3    3    0    0 -0.37646076970E+01 -0.73599473116E+01  0.45915220513E+01  0.94563825160E+01  0.00000000000E+00 0.  1.
</event>
<event>
 7    1  0.2817603E-011  0.5052881E+02  0.7816164E-02  0.1300439E+00
        -11   -1    0    0    0    0  0.00000000000E+00  0.00000000000E+00  0.45593999997E+02  0.45594000000E+02  0.51100000000E-03 0.  1.
         11   -1    0    0    0    0 -0.00000000000E+00 -0.00000000000E+00 -0.45593999997E+02  0.45594000000E+02  0.51100000000E-03 0. -1.
    9900012    2    1    2    0    0 -0.14635079129E+02  0.26055753901E+02 -0.27569582627E+02  0.50528809911E+02  0.29999848206E+02 0.  0.
        -12    1    1    2    0    0  0.14635079129E+02 -0.26055753901E+02  0.27569582627E+02  0.40659190089E+02  0.00000000000E+00 0.  1.
         11    1    3    3    0    0 -0.17645686135E+01 -0.19993945621E+01 -0.10943802950E+01  0.28825248477E+01  0.51100000000E-03 0.  1.
        -11    1    3    3    0    0 -0.11462311184E+02  0.20226653838E+01 -0.18520699360E+01  0.11785835407E+02  0.51100000000E-03 0. -1.
         12    1    3    3    0    0 -0.14081993316E+01  0.26032483079E+02 -0.24623132396E+02  0.35860449657E+02  0.00000000000E+00 0. -1.
</event>
<event>
 7    1  0.2817603E-011  0.5052886E+02  0.7816164E-02  0.1300439E+00
        -11   -1    0    0    0    0  0.00000000000E+00  0.00000000000E+00  0.45593999997E+02  0.45594000000E+02  0.51100000000E-03 0. -1.
         11   -1    0    0    0    0 -0.00000000000E+00 -0.00000000000E+00 -0.45593999997E+02  0.45594000000E+02  0.51100000000E-03 0.  1.
    9900012    2    1    2    0    0 -0.15621442711E+02 -0.17293485744E+02  0.33317730881E+02  0.50528864340E+02  0.30000013649E+02 0.  0.
        -12    1    1    2    0    0  0.15621442711E+02  0.17293485744E+02 -0.33317730881E+02  0.40659135660E+02  0.00000000000E+00 0.  1.
         11    1    3    3    0    0 -0.98883261869E+01 -0.10039762138E+01  0.13232186486E+02  0.16549251417E+02  0.51100000000E-03 0. -1.
        -11    1    3    3    0    0 -0.62977417842E+01  0.21706227431E+01  0.12195337349E+02  0.13896021301E+02  0.51100000000E-03 0.  1.
        -12    1    3    3    0    0  0.56462525977E+00 -0.18460132273E+02  0.78902070454E+01  0.20083591622E+02  0.00000000000E+00 0.  1.
</event>
<event>
 7    1  0.2817603E-011  0.5052886E+02  0.7816164E-02  0.1300439E+00
        -11   -1    0    0    0    0  0.00000000000E+00  0.00000000000E+00  0.45593999997E+02  0.45594000000E+02  0.51100000000E-03 0.  1.
         11   -1    0    0    0    0 -0.00000000000E+00 -0.00000000000E+00 -0.45593999997E+02  0.45594000000E+02  0.51100000000E-03 0. -1.
    9900012    2    1    2    0    0  0.18966149302E+02 -0.40107586585E+00 -0.35962336854E+02  0.50528863841E+02  0.30000012132E+02 0.  0.
        -12    1    1    2    0    0 -0.18966149302E+02  0.40107586585E+00  0.35962336854E+02  0.40659136159E+02  0.00000000000E+00 0.  1.
         11    1    3    3    0    0 -0.31562783072E+01 -0.71182508743E+01 -0.29729148249E+01  0.83348551925E+01  0.51100000000E-03 0. -1.
        -11    1    3    3    0    0  0.53422488635E+01  0.23759105287E+01 -0.11737846387E+01  0.59634171747E+01  0.51100000000E-03 0.  1.
         12    1    3    3    0    0  0.16780178746E+02  0.43412644797E+01 -0.31815637390E+02  0.36230591474E+02  0.00000000000E+00 0. -1.
</event>
<event>
 7    1  0.2817603E-011  0.5052886E+02  0.7816164E-02  0.1300439E+00
        -11   -1    0    0    0    0  0.00000000000E+00  0.00000000000E+00  0.45593999997E+02  0.45594000000E+02  0.51100000000E-03 0.  1.
         11   -1    0    0    0    0 -0.00000000000E+00 -0.00000000000E+00 -0.45593999997E+02  0.45594000000E+02  0.51100000000E-03 0. -1.
    9900012    2    1    2    0    0  0.52945052512E+00  0.40651105724E+02 -0.61071748479E+00  0.50528859696E+02  0.29999999531E+02 0.  0.
        -12    1    1    2    0    0 -0.52945052512E+00 -0.40651105724E+02  0.61071748479E+00  0.40659140304E+02  0.00000000000E+00 0.  1.
         11    1    3    3    0    0 -0.40594242496E+01 -0.61219454115E+00 -0.79863433536E+00  0.41822869889E+01  0.51100000000E-03 0. -1.
        -11    1    3    3    0    0 -0.46798075961E+01  0.92678068529E+00  0.12974779120E+01  0.49439832896E+01  0.51100000000E-03 0.  1.
         12    1    3    3    0    0  0.92686823708E+01  0.40336519580E+02 -0.11095610615E+01  0.41402589417E+02  0.00000000000E+00 0. -1.
</event>
<event>
 7    1  0.2817603E-011  0.5052887E+02  0.7816164E-02  0.1300439E+00
        -11   -1    0    0    0    0  0.00000000000E+00  0.00000000000E+00  0.45593999997E+02  0.45594000000E+02  0.51100000000E-03 0. -1.
         11   -1    0    0    0    0 -0.00000000000E+00 -0.00000000000E+00 -0.45593999997E+02  0.45594000000E+02  0.51100000000E-03 0.  1.
    9900012    2    1    2    0    0  0.12165954512E+02  0.31594210163E+02  0.22515784070E+02  0.50528866988E+02  0.30000021696E+02 0.  0.
        -12    1    1    2    0    0 -0.12165954512E+02 -0.31594210163E+02 -0.22515784070E+02  0.40659133012E+02  0.00000000000E+00 0.  1.
         11    1    3    3    0    0  0.18614158907E+01  0.24052290898E+02  0.16852287674E+02  0.29427489983E+02  0.51100000000E-03 0. -1.
        -11    1    3    3    0    0  0.15852106007E+01  0.10647936434E+02  0.48571110589E+01  0.11810290896E+02  0.51100000000E-03 0.  1.
        -12    1    3    3    0    0  0.87193280203E+01 -0.31060171689E+01  0.80638533743E+00  0.92910861094E+01  0.00000000000E+00 0.  1.
</event>
<event>
 7    1  0.2817603E-011  0.5052887E+02  0.7816164E-02  0.1300439E+00
        -11   -1    0    0    0    0  0.00000000000E+00  0.00000000000E+00  0.45593999997E+02  0.45594000000E+02  0.51100000000E-03 0. -1.
         11   -1    0    0    0    0 -0.00000000000E+00 -0.00000000000E+00 -0.45593999997E+02  0.45594000000E+02  0.51100000000E-03 0.  1.
    9900012    2    1    2    0    0 -0.10511297365E+02 -0.39114110951E+02 -0.35726987979E+01  0.50528865424E+02  0.30000016942E+02 0.  0.
        -12    1    1    2    0    0  0.10511297365E+02  0.39114110951E+02  0.35726987979E+01  0.40659134576E+02  0.00000000000E+00 0.  1.
         11    1    3    3    0    0 -0.49631427016E-03 -0.29093906036E+00  0.44868182332E+01  0.44962410858E+01  0.51100000000E-03 0.  1.
        -11    1    3    3    0    0 -0.16166840171E+02 -0.22612554890E+02 -0.77631340954E+01  0.28861056997E+02  0.51100000000E-03 0. -1.
         12    1    3    3    0    0  0.56560391200E+01 -0.16210617001E+02 -0.29638293564E+00  0.17171567341E+02  0.00000000000E+00 0. -1.
</event>
<event>
 7    1  0.2817603E-011  0.5052886E+02  0.7816164E-02  0.1300439E+00
        -11   -1    0    0    0    0  0.00000000000E+00  0.00000000000E+00  0.45593999997E+02  0.45594000000E+02  0.51100000000E-03 0. -1.
         11   -1    0    0    0    0 -0.00000000000E+00 -0.00000000000E+00 -0.45593999997E+02  0.45594000000E+02  0.51100000000E-03 0.  1.
    9900012    2    1    2    0    0 -0.22049716830E+02  0.59422144294E+01  0.33640240135E+02  0.50528859811E+02  0.29999999881E+02 0.  0.
        -12    1    1    2    0    0  0.22049716830E+02 -0.59422144294E+01 -0.33640240135E+02  0.40659140189E+02  0.00000000000E+00 0.  1.
         11    1    3    3    0    0 -0.21818228356E+02  0.10996295826E+02  0.22058449646E+02  0.32916998823E+02  0.51100000000E-03 0. -1.
        -11    1    3    3    0    0 -0.43245307174E+01 -0.43642073202E+01  0.11958055793E+02  0.13444068211E+02  0.51100000000E-03 0.  1.
        -12    1    3    3    0    0  0.40930422433E+01 -0.68987407674E+00 -0.37626530458E+00  0.41677927763E+01  0.00000000000E+00 0.  1.
</event>
<event>
 7    1  0.2817603E-011  0.5052886E+02  0.7816164E-02  0.1300439E+00
        -11   -1    0    0    0    0  0.00000000000E+00  0.00000000000E+00  0.45593999997E+02  0.45594000000E+02  0.51100000000E-03 0. -1.
         11   -1    0    0    0    0 -0.00000000000E+00 -0.00000000000E+00 -0.45593999997E+02  0.45594000000E+02  0.51100000000E-03 0.  1.
    9900012    2    1    2    0    0 -0.38106481815E+02 -0.14014960379E+02 -0.21547140381E+01  0.50528857568E+02  0.29999993064E+02 0.  0.
        -12    1    1    2    0    0  0.38106481815E+02  0.14014960379E+02  0.21547140381E+01  0.40659142432E+02  0.00000000000E+00 0.  1.
         11    1    3    3    0    0 -0.10939784184E+02  0.76229149209E+00  0.74232952908E+01  0.13242555628E+02  0.51100000000E-03 0.  1.
        -11    1    3    3    0    0 -0.10351875862E+02 -0.77921808927E+01 -0.13445154193E+02  0.18672214343E+02  0.51100000000E-03 0. -1.
         12    1    3    3    0    0 -0.16814821769E+02 -0.69850709787E+01  0.38671448644E+01  0.18614087598E+02  0.00000000000E+00 0. -1.
</event>
<event>
 7    1  0.2817603E-011  0.5052886E+02  0.7816164E-02  0.1300439E+00
        -11   -1    0    0    0    0  0.00000000000E+00  0.00000000000E+00  0.45593999997E+02  0.45594000000E+02  0.51100000000E-03 0.  1.
         11   -1    0    0    0    0 -0.00000000000E+00 -0.00000000000E+00 -0.45593999997E+02  0.45594000000E+02  0.51100000000E-03 0. -1.
    9900012    2    1    2    0    0 -0.20575037666E+02 -0.31730859097E+02 -0.14932717676E+02  0.50528860176E+02  0.30000000992E+02 0.  0.
        -12    1    1    2    0    0  0.20575037666E+02  0.31730859097E+02  0.14932717676E+02  0.40659139824E+02  0.00000000000E+00 0.  1.
         11    1    3    3    0    0  0.17421070646E+01  0.29634591906E+01 -0.36829910080E+00  0.34572636416E+01  0.51100000000E-03 0. -1.
        -11    1    3    3    0    0 -0.14816531283E+01 -0.42207444092E+01  0.37734518387E+01  0.58522575474E+01  0.51100000000E-03 0.  1.
        -12    1    3    3    0    0 -0.20835491602E+02 -0.30473573878E+02 -0.18337870414E+02  0.41219338987E+02  0.00000000000E+00 0.  1.
</event>
<event>
 7    1  0.2817603E-011  0.5052885E+02  0.7816164E-02  0.1300439E+00
        -11   -1    0    0    0    0  0.00000000000E+00  0.00000000000E+00  0.45593999997E+02  0.45594000000E+02  0.51100000000E-03 0. -1.
         11   -1    0    0    0    0 -0.00000000000E+00 -0.00000000000E+00 -0.45593999997E+02  0.45594000000E+02  0.51100000000E-03 0.  1.
    9900012    2    1    2    0    0  0.90718556377E+01  0.33560495162E+02  0.21084626017E+02  0.50528845379E+02  0.29999956015E+02 0.  0.
        -12    1    1    2    0    0 -0.90718556377E+01 -0.33560495162E+02 -0.21084626017E+02  0.40659154621E+02  0.00000000000E+00 0.  1.
         11    1    3    3    0    0  0.10298493648E+02  0.98542371903E+01  0.13223341570E+02  0.19442780782E+02  0.51100000000E-03 0. -1.
        -11    1    3    3    0    0  0.84702406006E+01  0.12831782164E+02  0.25902490905E+01  0.15591953051E+02  0.51100000000E-03 0.  1.
        -12    1    3    3    0    0 -0.96968786104E+01  0.10874475808E+02  0.52710353561E+01  0.15494111546E+02  0.00000000000E+00 0.  1.
</event>
<event>
 7    1  0.2817603E-011  0.5052887E+02  0.7816164E-02  0.1300439E+00
        -11   -1    0    0    0    0  0.00000000000E+00  0.00000000000E+00  0.45593999997E+02  0.45594000000E+02  0.51100000000E-03 0. -1.
         11   -1    0    0    0    0 -0.00000000000E+00 -0.00000000000E+00 -0.45593999997E+02  0.45594000000E+02  0.51100000000E-03 0.  1.
    9900012    2    1    2    0    0 -0.34433100978E+02 -0.21412988445E+02 -0.30017770416E+01  0.50528865940E+02  0.30000018510E+02 0.  0.
        -12    1    1    2    0    0  0.34433100978E+02  0.21412988445E+02  0.30017770416E+01  0.40659134060E+02  0.00000000000E+00 0.  1.
         11    1    3    3    0    0 -0.16349892907E+02 -0.18287092302E+02 -0.92232437459E+00  0.24547656211E+02  0.51100000000E-03 0. -1.
        -11    1    3    3    0    0 -0.14663683070E+01 -0.83510636738E+01 -0.66289656122E+00  0.85047006184E+01  0.51100000000E-03 0.  1.
        -12    1    3    3    0    0 -0.16616839764E+02  0.52251675310E+01 -0.14165561058E+01  0.17476509110E+02  0.00000000000E+00 0.  1.
</event>
<event>
 7    1  0.2817603E-011  0.5052886E+02  0.7816164E-02  0.1300439E+00
        -11   -1    0    0    0    0  0.00000000000E+00  0.00000000000E+00  0.45593999997E+02  0.45594000000E+02  0.51100000000E-03 0. -1.
         11   -1    0    0    0    0 -0.00000000000E+00 -0.00000000000E+00 -0.45593999997E+02  0.45594000000E+02  0.51100000000E-03 0.  1.
    9900012    2    1    2    0    0  0.37860065471E+02  0.47315991543E+01 -0.14049659966E+02  0.50528861627E+02  0.30000005402E+02 0.  0.
        -12    1    1    2    0    0 -0.37860065471E+02 -0.47315991543E+01  0.14049659966E+02  0.40659138373E+02  0.00000000000E+00 0.  1.
         11    1    3    3    0    0  0.23874291627E+02  0.11263437219E+02 -0.10796659379E+02  0.28520425535E+02  0.51100000000E-03 0. -1.
        -11    1    3    3    0    0  0.69559292887E+01  0.44842029478E+01 -0.33804972233E+01  0.89398428445E+01  0.51100000000E-03 0.  1.
         12    1    3    3    0    0  0.70298445557E+01 -0.11016041013E+02  0.12749663672E+00  0.13068593248E+02  0.00000000000E+00 0. -1.
</event>
<event>
 7    1  0.2817603E-011  0.5052886E+02  0.7816164E-02  0.1300439E+00
        -11   -1    0    0    0    0  0.00000000000E+00  0.00000000000E+00  0.45593999997E+02  0.45594000000E+02  0.51100000000E-03 0.  1.
         11   -1    0    0    0    0 -0.00000000000E+00 -0.00000000000E+00 -0.45593999997E+02  0.45594000000E+02  0.51100000000E-03 0. -1.
    9900012    2    1    2    0    0  0.22406583397E+02 -0.11095319642E+02 -0.32062513095E+02  0.50528857812E+02  0.29999993804E+02 0.  0.
        -12    1    1    2    0    0 -0.22406583397E+02  0.11095319642E+02  0.32062513095E+02  0.40659142188E+02  0.00000000000E+00 0.  1.
         11    1    3    3    0    0  0.14974077534E+02  0.36677642357E+01 -0.12138396927E+02  0.19621828985E+02  0.51100000000E-03 0. -1.
        -11    1    3    3    0    0 -0.63301532032E+00  0.39811509054E+00 -0.11949182415E+02  0.11972558819E+02  0.51100000000E-03 0.  1.
        -12    1    3    3    0    0  0.80655211833E+01 -0.15161198968E+02 -0.79749337535E+01  0.18934470008E+02  0.00000000000E+00 0.  1.
</event>
<event>
 7    1  0.2817603E-011  0.5052886E+02  0.7816164E-02  0.1300439E+00
        -11   -1    0    0    0    0  0.00000000000E+00  0.00000000000E+00  0.45593999997E+02  0.45594000000E+02  0.51100000000E-03 0.  1.
         11   -1    0    0    0    0 -0.00000000000E+00 -0.00000000000E+00 -0.45593999997E+02  0.45594000000E+02  0.51100000000E-03 0. -1.
    9900012    2    1    2    0    0  0.29359809989E+02 -0.26968671803E+02 -0.79911417471E+01  0.50528855299E+02  0.29999986166E+02 0.  0.
        -12    1    1    2    0    0 -0.29359809989E+02  0.26968671803E+02  0.79911417471E+01  0.40659144701E+02  0.00000000000E+00 0.  1.
         11    1    3    3    0    0  0.96179300670E+01 -0.23829704739E+02  0.17631700878E+00  0.25698064026E+02  0.51100000000E-03 0. -1.
        -11    1    3    3    0    0  0.50065950586E+01 -0.64056747501E+01 -0.12409477801E+01  0.82242698605E+01  0.51100000000E-03 0.  1.
        -12    1    3    3    0    0  0.14735284864E+02  0.32667076861E+01 -0.69265109757E+01  0.16606521412E+02  0.00000000000E+00 0.  1.
</event>
<event>
 7    1  0.2817603E-011  0.5052886E+02  0.7816164E-02  0.1300439E+00
        -11   -1    0    0    0    0  0.00000000000E+00  0.00000000000E+00  0.45593999997E+02  0.45594000000E+02  0.51100000000E-03 0.  1.
         11   -1    0    0    0    0 -0.00000000000E+00 -0.00000000000E+00 -0.45593999997E+02  0.45594000000E+02  0.51100000000E-03 0. -1.
    9900012    2    1    2    0    0 -0.27578783462E+02 -0.20811514622E+02 -0.21434948650E+02  0.50528862507E+02  0.30000008075E+02 0.  0.
        -12    1    1    2    0    0  0.27578783462E+02  0.20811514622E+02  0.21434948650E+02  0.40659137493E+02  0.00000000000E+00 0.  1.
         11    1    3    3    0    0 -0.24473605005E+02 -0.46184540957E+01 -0.13779144595E+02  0.28463174212E+02  0.51100000000E-03 0. -1.
        -11    1    3    3    0    0 -0.56946568152E+01 -0.14246570340E+02 -0.97775197502E+01  0.18193234331E+02  0.51100000000E-03 0.  1.
        -12    1    3    3    0    0  0.25894783585E+01 -0.19464901861E+01  0.21217156952E+01  0.38724539642E+01  0.00000000000E+00 0.  1.
</event>
<event>
 7    1  0.2817603E-011  0.5052887E+02  0.7816164E-02  0.1300439E+00
        -11   -1    0    0    0    0  0.00000000000E+00  0.00000000000E+00  0.45593999997E+02  0.45594000000E+02  0.51100000000E-03 0. -1.
         11   -1    0    0    0    0 -0.00000000000E+00 -0.00000000000E+00 -0.45593999997E+02  0.45594000000E+02  0.51100000000E-03 0.  1.
    9900012    2    1    2    0    0  0.31862826750E+02  0.14282578671E+02 -0.20831053947E+02  0.50528873220E+02  0.30000040639E+02 0.  0.
        -12    1    1    2    0    0 -0.31862826750E+02 -0.14282578671E+02  0.20831053947E+02  0.40659126780E+02  0.00000000000E+00 0.  1.
         11    1    3    3    0    0  0.10582450467E+02  0.61955111991E+01 -0.19028244288E+02  0.22637285567E+02  0.51100000000E-03 0. -1.
        -11    1    3    3    0    0  0.27255251434E+01 -0.44808229213E+01  0.89062668170E+00  0.53197253225E+01  0.51100000000E-03 0.  1.
         12    1    3    3    0    0  0.18554851139E+02  0.12567890393E+02 -0.26934363404E+01  0.22571862330E+02  0.00000000000E+00 0. -1.
</event>
<event>
 7    1  0.2817603E-011  0.5052886E+02  0.7816164E-02  0.1300439E+00
        -11   -1    0    0    0    0  0.00000000000E+00  0.00000000000E+00  0.45593999997E+02  0.45594000000E+02  0.51100000000E-03 0.  1.
         11   -1    0    0    0    0 -0.00000000000E+00 -0.00000000000E+00 -0.45593999997E+02  0.45594000000E+02  0.51100000000E-03 0. -1.
    9900012    2    1    2    0    0 -0.68855788045E+01  0.41908894833E+01 -0.39852115201E+02  0.50528857902E+02  0.29999994079E+02 0.  0.
        -12    1    1    2    0    0  0.68855788045E+01 -0.41908894833E+01  0.39852115201E+02  0.40659142098E+02  0.00000000000E+00 0.  1.
         11    1    3    3    0    0  0.14861971420E+01 -0.96277300894E+01 -0.90246083181E+01  0.13279515209E+02  0.51100000000E-03 0. -1.
        -11    1    3    3    0    0 -0.69828551345E+01  0.92939185250E+01 -0.84364968530E+01  0.14363553418E+02  0.51100000000E-03 0.  1.
         12    1    3    3    0    0 -0.13889208120E+01  0.45247010478E+01 -0.22391010030E+02  0.22885789275E+02  0.00000000000E+00 0. -1.
</event>
<event>
 7    1  0.2817603E-011  0.5052886E+02  0.7816164E-02  0.1300439E+00
        -11   -1    0    0    0    0  0.00000000000E+00  0.00000000000E+00  0.45593999997E+02  0.45594000000E+02  0.51100000000E-03 0.  1.
         11   -1    0    0    0    0 -0.00000000000E+00 -0.00000000000E+00 -0.45593999997E+02  0.45594000000E+02  0.51100000000E-03 0. -1.
    9900012    2    1    2    0    0 -0.38651091442E+02  0.36423354071E+00  0.12614528759E+02  0.50528857466E+02  0.29999992755E+02 0.  0.
        -12    1    1    2    0    0  0.38651091442E+02 -0.36423354071E+00 -0.12614528759E+02  0.40659142534E+02  0.00000000000E+00 0.  1.
         11    1    3    3    0    0 -0.82732046242E+01  0.20247828192E+01  0.69157746527E+01  0.10971490306E+02  0.51100000000E-03 0. -1.
        -11    1    3    3    0    0 -0.13758621453E+01  0.43314881793E+01  0.86752484478E+01  0.97936061991E+01  0.51100000000E-03 0.  1.
         12    1    3    3    0    0 -0.29002024673E+02 -0.59920374578E+01 -0.29764943417E+01  0.29763760962E+02  0.00000000000E+00 0. -1.
</event>
<event>
 7    1  0.2817603E-011  0.5052887E+02  0.7816164E-02  0.1300439E+00
        -11   -1    0    0    0    0  0.00000000000E+00  0.00000000000E+00  0.45593999997E+02  0.45594000000E+02  0.51100000000E-03 0.  1.
         11   -1    0    0    0    0 -0.00000000000E+00 -0.00000000000E+00 -0.45593999997E+02  0.45594000000E+02  0.51100000000E-03 0. -1.
    9900012    2    1    2    0    0  0.16807255303E+02 -0.67343399572E+01 -0.36405079956E+02  0.50528868035E+02  0.30000024880E+02 0.  0.
        -12    1    1    2    0    0 -0.16807255303E+02  0.67343399572E+01  0.36405079956E+02  0.40659131965E+02  0.00000000000E+00 0.  1.
         11    1    3    3    0    0  0.34727920300E+01 -0.12388747213E+02 -0.63713212198E+01  0.14357404931E+02  0.51100000000E-03 0. -1.
        -11    1    3    3    0    0 -0.19521319172E+01 -0.69320881549E+00 -0.23578569401E+00  0.20849346845E+01  0.51100000000E-03 0.  1.
         12    1    3    3    0    0  0.15286595190E+02  0.63476160715E+01 -0.29797973043E+02  0.34086528420E+02  0.00000000000E+00 0. -1.
</event>
<event>
 7    1  0.2817603E-011  0.5052900E+02  0.7816164E-02  0.1300438E+00
        -11   -1    0    0    0    0  0.00000000000E+00  0.00000000000E+00  0.45593999997E+02  0.45594000000E+02  0.51100000000E-03 0. -1.
         11   -1    0    0    0    0 -0.00000000000E+00 -0.00000000000E+00 -0.45593999997E+02  0.45594000000E+02  0.51100000000E-03 0.  1.
    9900012    2    1    2    0    0  0.33087139131E+02 -0.23160446363E+02 -0.46892923981E+01  0.50528997125E+02  0.30000417257E+02 0.  0.
        -12    1    1    2    0    0 -0.33087139131E+02  0.23160446363E+02  0.46892923981E+01  0.40659002875E+02  0.00000000000E+00 0.  1.
         11    1    3    3    0    0  0.20079330610E+02 -0.14929099083E+02 -0.12990713542E+02  0.28192484030E+02  0.51100000000E-03 0. -1.
        -11    1    3    3    0    0  0.10459982946E+02 -0.81215207864E+01 -0.42049182191E+00  0.13249420996E+02  0.51100000000E-03 0.  1.
        -12    1    3    3    0    0  0.25478255754E+01 -0.10982649335E+00  0.87219129658E+01  0.90870920983E+01  0.00000000000E+00 0.  1.
</event>
<event>
 7    1  0.2817603E-011  0.5052886E+02  0.7816164E-02  0.1300439E+00
        -11   -1    0    0    0    0  0.00000000000E+00  0.00000000000E+00  0.45593999997E+02  0.45594000000E+02  0.51100000000E-03 0.  1.
         11   -1    0    0    0    0 -0.00000000000E+00 -0.00000000000E+00 -0.45593999997E+02  0.45594000000E+02  0.51100000000E-03 0. -1.
    9900012    2    1    2    0    0 -0.23527647820E+02  0.44320350317E+01 -0.32862935379E+02  0.50528859967E+02  0.30000000356E+02 0.  0.
        -12    1    1    2    0    0  0.23527647820E+02 -0.44320350317E+01  0.32862935379E+02  0.40659140033E+02  0.00000000000E+00 0.  1.
         11    1    3    3    0    0 -0.36562467482E+01 -0.45725504809E+01 -0.18471196679E+02  0.19376828048E+02  0.51100000000E-03 0. -1.
        -11    1    3    3    0    0  0.91383816897E-01  0.72636240848E+01 -0.17938213076E+01  0.74824047599E+01  0.51100000000E-03 0.  1.
        -12    1    3    3    0    0 -0.19962784889E+02  0.17409614278E+01 -0.12597917393E+02  0.23669627159E+02  0.00000000000E+00 0.  1.
</event>
<event>
 7    1  0.2817603E-011  0.5052886E+02  0.7816164E-02  0.1300439E+00
        -11   -1    0    0    0    0  0.00000000000E+00  0.00000000000E+00  0.45593999997E+02  0.45594000000E+02  0.51100000000E-03 0.  1.
         11   -1    0    0    0    0 -0.00000000000E+00 -0.00000000000E+00 -0.45593999997E+02  0.45594000000E+02  0.51100000000E-03 0. -1.
    9900012    2    1    2    0    0  0.24085485542E+02  0.21791879521E+02 -0.24457497436E+02  0.50528858252E+02  0.29999995143E+02 0.  0.
        -12    1    1    2    0    0 -0.24085485542E+02 -0.21791879521E+02  0.24457497436E+02  0.40659141748E+02  0.00000000000E+00 0.  1.
         11    1    3    3    0    0  0.58731037080E+01  0.12229904526E+02 -0.19372242989E+02  0.23650532987E+02  0.51100000000E-03 0. -1.
        -11    1    3    3    0    0 -0.17536623792E+01 -0.98182982956E+00 -0.37562933144E+01  0.42601715082E+01  0.51100000000E-03 0.  1.
         12    1    3    3    0    0  0.19966044213E+02  0.10543804824E+02 -0.13289611331E+01  0.22618153757E+02  0.00000000000E+00 0. -1.
</event>
<event>
 7    1  0.2817603E-011  0.5052885E+02  0.7816164E-02  0.1300439E+00
        -11   -1    0    0    0    0  0.00000000000E+00  0.00000000000E+00  0.45593999997E+02  0.45594000000E+02  0.51100000000E-03 0.  1.
         11   -1    0    0    0    0 -0.00000000000E+00 -0.00000000000E+00 -0.45593999997E+02  0.45594000000E+02  0.51100000000E-03 0. -1.
    9900012    2    1    2    0    0 -0.89116443727E+01 -0.11824476249E+02 -0.37867279141E+02  0.50528850064E+02  0.29999970254E+02 0.  0.
        -12    1    1    2    0    0  0.89116443727E+01  0.11824476249E+02  0.37867279141E+02  0.40659149936E+02  0.00000000000E+00 0.  1.
         11    1    3    3    0    0  0.74223436381E+01 -0.11702981163E+02 -0.13312740466E+02  0.19216659756E+02  0.51100000000E-03 0. -1.
        -11    1    3    3    0    0 -0.74145764244E+01 -0.34483968535E+00 -0.30400655909E+01  0.80210259331E+01  0.51100000000E-03 0.  1.
        -12    1    3    3    0    0 -0.89194115864E+01  0.22334459894E+00 -0.21514473084E+02  0.23291164375E+02  0.00000000000E+00 0.  1.
</event>
<event>
 7    1  0.2817603E-011  0.5052880E+02  0.7816164E-02  0.1300439E+00
        -11   -1    0    0    0    0  0.00000000000E+00  0.00000000000E+00  0.45593999997E+02  0.45594000000E+02  0.51100000000E-03 0.  1.
         11   -1    0    0    0    0 -0.00000000000E+00 -0.00000000000E+00 -0.45593999997E+02  0.45594000000E+02  0.51100000000E-03 0. -1.
    9900012    2    1    2    0    0 -0.10472074616E+02 -0.39229289073E+02 -0.21375281299E+01  0.50528800617E+02  0.29999819955E+02 0.  0.
        -12    1    1    2    0    0  0.10472074616E+02  0.39229289073E+02  0.21375281299E+01  0.40659199383E+02  0.00000000000E+00 0.  1.
         11    1    3    3    0    0  0.53814768375E+01 -0.84314959482E+01  0.29479843507E+01  0.10427896666E+02  0.51100000000E-03 0. -1.
        -11    1    3    3    0    0 -0.82892690385E+01 -0.23560170817E+00 -0.11030742296E+01  0.83656597094E+01  0.51100000000E-03 0.  1.
        -12    1    3    3    0    0 -0.75642824149E+01 -0.30562191417E+02 -0.39824382511E+01  0.31735244242E+02  0.00000000000E+00 0.  1.
</event>
<event>
 7    1  0.2817603E-011  0.5052892E+02  0.7816164E-02  0.1300439E+00
        -11   -1    0    0    0    0  0.00000000000E+00  0.00000000000E+00  0.45593999997E+02  0.45594000000E+02  0.51100000000E-03 0.  1.
         11   -1    0    0    0    0 -0.00000000000E+00 -0.00000000000E+00 -0.45593999997E+02  0.45594000000E+02  0.51100000000E-03 0. -1.
    9900012    2    1    2    0    0 -0.27346872383E+02 -0.29942988524E+02 -0.29541364316E+01  0.50528918444E+02  0.30000178103E+02 0.  0.
        -12    1    1    2    0    0  0.27346872383E+02  0.29942988524E+02  0.29541364316E+01  0.40659081556E+02  0.00000000000E+00 0.  1.
         11    1    3    3    0    0 -0.24463515123E+01 -0.10274895355E+01 -0.49870575430E+01  0.56489922699E+01  0.51100000000E-03 0.  1.
        -11    1    3    3    0    0 -0.20771915905E+02 -0.77663187901E+01 -0.39297244887E+01  0.22521787956E+02  0.51100000000E-03 0. -1.
        -12    1    3    3    0    0 -0.41286049656E+01 -0.21149180199E+02  0.59626456002E+01  0.22358138219E+02  0.00000000000E+00 0.  1.
</event>
<event>
 7    1  0.2817603E-011  0.5052887E+02  0.7816164E-02  0.1300439E+00
        -11   -1    0    0    0    0  0.00000000000E+00  0.00000000000E+00  0.45593999997E+02  0.45594000000E+02  0.51100000000E-03 0.  1.
         11   -1    0    0    0    0 -0.00000000000E+00 -0.00000000000E+00 -0.45593999997E+02  0.45594000000E+02  0.51100000000E-03 0. -1.
    9900012    2    1    2    0    0 -0.16913586876E+02 -0.21636607448E+02 -0.29982545214E+02  0.50528865475E+02  0.30000017097E+02 0.  0.
        -12    1    1    2    0    0  0.16913586876E+02  0.21636607448E+02  0.29982545214E+02  0.40659134525E+02  0.00000000000E+00 0.  1.
         11    1    3    3    0    0 -0.48270988119E+01 -0.14880378329E+02 -0.78131706102E+01  0.17486342597E+02  0.51100000000E-03 0. -1.
        -11    1    3    3    0    0 -0.89478618316E+01 -0.13735196946E+02 -0.17931151949E+02  0.24294980489E+02  0.51100000000E-03 0.  1.
        -12    1    3    3    0    0 -0.31386262326E+01  0.69789678280E+01 -0.42382226547E+01  0.87475423888E+01  0.00000000000E+00 0.  1.
</event>
<event>
 7    1  0.2817603E-011  0.5052886E+02  0.7816164E-02  0.1300439E+00
        -11   -1    0    0    0    0  0.00000000000E+00  0.00000000000E+00  0.45593999997E+02  0.45594000000E+02  0.51100000000E-03 0. -1.
         11   -1    0    0    0    0 -0.00000000000E+00 -0.00000000000E+00 -0.45593999997E+02  0.45594000000E+02  0.51100000000E-03 0.  1.
    9900012    2    1    2    0    0  0.10820992424E+02  0.32170413399E+02 -0.22386065355E+02  0.50528864528E+02  0.30000014219E+02 0.  0.
        -12    1    1    2    0    0 -0.10820992424E+02 -0.32170413399E+02  0.22386065355E+02  0.40659135472E+02  0.00000000000E+00 0.  1.
         11    1    3    3    0    0 -0.14068248832E+01  0.31832278487E+02 -0.15103454672E+02  0.35261699522E+02  0.51100000000E-03 0. -1.
        -11    1    3    3    0    0  0.18768319015E+00  0.38642073398E+00 -0.21263234615E+01  0.21692850637E+01  0.51100000000E-03 0.  1.
        -12    1    3    3    0    0  0.12040134117E+02 -0.48285822061E-01 -0.51562872213E+01  0.13097879942E+02  0.00000000000E+00 0.  1.
</event>
<event>
 7    1  0.2817603E-011  0.5052886E+02  0.7816164E-02  0.1300439E+00
        -11   -1    0    0    0    0  0.00000000000E+00  0.00000000000E+00  0.45593999997E+02  0.45594000000E+02  0.51100000000E-03 0. -1.
         11   -1    0    0    0    0 -0.00000000000E+00 -0.00000000000E+00 -0.45593999997E+02  0.45594000000E+02  0.51100000000E-03 0.  1.
    9900012    2    1    2    0    0  0.24558298788E+02 -0.25935987320E+02 -0.19426275869E+02  0.50528859924E+02  0.30000000224E+02 0.  0.
        -12    1    1    2    0    0 -0.24558298788E+02  0.25935987320E+02  0.19426275869E+02  0.40659140076E+02  0.00000000000E+00 0.  1.
         11    1    3    3    0    0  0.49405689628E+01  0.38630780868E+01 -0.21446372843E+01  0.66281266828E+01  0.51100000000E-03 0.  1.
        -11    1    3    3    0    0  0.14050721824E+02 -0.13224551485E+02  0.30677867144E-01  0.19295400674E+02  0.51100000000E-03 0. -1.
         12    1    3    3    0    0  0.55670080011E+01 -0.16574513922E+02 -0.17312316452E+02  0.24605332567E+02  0.00000000000E+00 0. -1.
</event>
<event>
 7    1  0.2817603E-011  0.5052891E+02  0.7816164E-02  0.1300439E+00
        -11   -1    0    0    0    0  0.00000000000E+00  0.00000000000E+00  0.45593999997E+02  0.45594000000E+02  0.51100000000E-03 0.  1.
         11   -1    0    0    0    0 -0.00000000000E+00 -0.00000000000E+00 -0.45593999997E+02  0.45594000000E+02  0.51100000000E-03 0. -1.
    9900012    2    1    2    0    0 -0.35564465127E+02  0.12176109163E+02 -0.15494272344E+02  0.50528913812E+02  0.30000164024E+02 0.  0.
        -12    1    1    2    0    0  0.35564465127E+02 -0.12176109163E+02  0.15494272344E+02  0.40659086188E+02  0.00000000000E+00 0.  1.
         11    1    3    3    0    0 -0.51274227090E+01  0.87044566768E+00 -0.26072477216E+01  0.58177212240E+01  0.51100000000E-03 0. -1.
        -11    1    3    3    0    0 -0.14004421319E+02 -0.87956676351E+01 -0.76670879675E+01  0.18228324766E+02  0.51100000000E-03 0.  1.
         12    1    3    3    0    0 -0.16432621100E+02  0.20101331130E+02 -0.52199366545E+01  0.26482867822E+02  0.00000000000E+00 0. -1.
</event>
<event>
 7    1  0.2817603E-011  0.5052886E+02  0.7816164E-02  0.1300439E+00
        -11   -1    0    0    0    0  0.00000000000E+00  0.00000000000E+00  0.45593999997E+02  0.45594000000E+02  0.51100000000E-03 0. -1.
         11   -1    0    0    0    0 -0.00000000000E+00 -0.00000000000E+00 -0.45593999997E+02  0.45594000000E+02  0.51100000000E-03 0.  1.
    9900012    2    1    2    0    0 -0.25369741290E+02 -0.30827319539E+02  0.76953364793E+01  0.50528860724E+02  0.30000002658E+02 0.  0.
        -12    1    1    2    0    0  0.25369741290E+02  0.30827319539E+02 -0.76953364793E+01  0.40659139276E+02  0.00000000000E+00 0.  1.
         11    1    3    3    0    0 -0.10435728361E+02 -0.77333837462E+01 -0.70437665791E+01  0.14775801111E+02  0.51100000000E-03 0.  1.
        -11    1    3    3    0    0 -0.87155687301E+01 -0.94858149190E+01 -0.22913049445E+01  0.13084032313E+02  0.51100000000E-03 0. -1.
         12    1    3    3    0    0 -0.62184441985E+01 -0.13608120874E+02  0.17030408003E+02  0.22669027300E+02  0.00000000000E+00 0. -1.
</event>
<event>
 7    1  0.2817603E-011  0.5052885E+02  0.7816164E-02  0.1300439E+00
        -11   -1    0    0    0    0  0.00000000000E+00  0.00000000000E+00  0.45593999997E+02  0.45594000000E+02  0.51100000000E-03 0.  1.
         11   -1    0    0    0    0 -0.00000000000E+00 -0.00000000000E+00 -0.45593999997E+02  0.45594000000E+02  0.51100000000E-03 0. -1.
    9900012    2    1    2    0    0  0.20251181855E+02  0.29662798647E+02 -0.19057145515E+02  0.50528846230E+02  0.29999958602E+02 0.  0.
        -12    1    1    2    0    0 -0.20251181855E+02 -0.29662798647E+02  0.19057145515E+02  0.40659153770E+02  0.00000000000E+00 0.  1.
         11    1    3    3    0    0  0.11281151612E+02  0.20729288860E+02 -0.29783358080E+00  0.23602044476E+02  0.51100000000E-03 0. -1.
        -11    1    3    3    0    0  0.10707226436E+02  0.62148480055E+01 -0.59842581919E+01  0.13750650168E+02  0.51100000000E-03 0.  1.
        -12    1    3    3    0    0 -0.17371961927E+01  0.27186617808E+01 -0.12775053743E+02  0.13176151586E+02  0.00000000000E+00 0.  1.
</event>
<event>
 7    1  0.2817603E-011  0.5052886E+02  0.7816164E-02  0.1300439E+00
        -11   -1    0    0    0    0  0.00000000000E+00  0.00000000000E+00  0.45593999997E+02  0.45594000000E+02  0.51100000000E-03 0.  1.
         11   -1    0    0    0    0 -0.00000000000E+00 -0.00000000000E+00 -0.45593999997E+02  0.45594000000E+02  0.51100000000E-03 0. -1.
    9900012    2    1    2    0    0 -0.17943520295E+02  0.18590098836E+02 -0.31394324961E+02  0.50528864064E+02  0.30000012808E+02 0.  0.
        -12    1    1    2    0    0  0.17943520295E+02 -0.18590098836E+02  0.31394324961E+02  0.40659135936E+02  0.00000000000E+00 0.  1.
         11    1    3    3    0    0 -0.48135245499E+01  0.12216132409E+02 -0.18418847415E+02  0.22619855216E+02  0.51100000000E-03 0. -1.
        -11    1    3    3    0    0 -0.12063096768E+02  0.88162241006E+01 -0.17281462359E+02  0.22844978716E+02  0.51100000000E-03 0.  1.
        -12    1    3    3    0    0 -0.10668989774E+01 -0.24422576729E+01  0.43059848127E+01  0.50640301318E+01  0.00000000000E+00 0.  1.
</event>
<event>
 7    1  0.2817603E-011  0.5052884E+02  0.7816164E-02  0.1300439E+00
        -11   -1    0    0    0    0  0.00000000000E+00  0.00000000000E+00  0.45593999997E+02  0.45594000000E+02  0.51100000000E-03 0.  1.
         11   -1    0    0    0    0 -0.00000000000E+00 -0.00000000000E+00 -0.45593999997E+02  0.45594000000E+02  0.51100000000E-03 0. -1.
    9900012    2    1    2    0    0 -0.12931047110E+01  0.27220260593E-01 -0.40638586375E+02  0.50528836663E+02  0.29999929521E+02 0.  0.
        -12    1    1    2    0    0  0.12931047110E+01 -0.27220260593E-01  0.40638586375E+02  0.40659163337E+02  0.00000000000E+00 0.  1.
         11    1    3    3    0    0 -0.35662687046E+01 -0.65839394039E+01 -0.84089923014E+01  0.11259559598E+02  0.51100000000E-03 0. -1.
        -11    1    3    3    0    0 -0.72931816751E+01 -0.38502883042E+01 -0.11240646313E+02  0.13941569093E+02  0.51100000000E-03 0.  1.
         12    1    3    3    0    0  0.95663456687E+01  0.10461447969E+02 -0.20988947760E+02  0.25327707972E+02  0.00000000000E+00 0. -1.
</event>
<event>
 7    1  0.2817603E-011  0.5052886E+02  0.7816164E-02  0.1300439E+00
        -11   -1    0    0    0    0  0.00000000000E+00  0.00000000000E+00  0.45593999997E+02  0.45594000000E+02  0.51100000000E-03 0. -1.
         11   -1    0    0    0    0 -0.00000000000E+00 -0.00000000000E+00 -0.45593999997E+02  0.45594000000E+02  0.51100000000E-03 0.  1.
    9900012    2    1    2    0    0 -0.38873277819E+02 -0.17013689673E+01  0.11795734791E+02  0.50528859035E+02  0.29999997522E+02 0.  0.
        -12    1    1    2    0    0  0.38873277819E+02  0.17013689673E+01 -0.11795734791E+02  0.40659140965E+02  0.00000000000E+00 0.  1.
         11    1    3    3    0    0 -0.64169008092E+01 -0.43026843207E+01 -0.25416717590E+01  0.81332529747E+01  0.51100000000E-03 0. -1.
        -11    1    3    3    0    0  0.27274124749E+01 -0.26440681713E+01 -0.54065918519E+00  0.38369503409E+01  0.51100000000E-03 0.  1.
         12    1    3    3    0    0 -0.35183789485E+02  0.52453835247E+01  0.14878065735E+02  0.38558655719E+02  0.00000000000E+00 0. -1.
</event>
<event>
 7    1  0.2817603E-011  0.5052884E+02  0.7816164E-02  0.1300439E+00
        -11   -1    0    0    0    0  0.00000000000E+00  0.00000000000E+00  0.45593999997E+02  0.45594000000E+02  0.51100000000E-03 0.  1.
         11   -1    0    0    0    0 -0.00000000000E+00 -0.00000000000E+00 -0.45593999997E+02  0.45594000000E+02  0.51100000000E-03 0. -1.
    9900012    2    1    2    0    0 -0.20280311837E+02  0.35207370917E+02  0.15223213978E+01  0.50528837717E+02  0.29999932725E+02 0.  0.
        -12    1    1    2    0    0  0.20280311837E+02 -0.35207370917E+02 -0.15223213978E+01  0.40659162283E+02  0.00000000000E+00 0.  1.
         11    1    3    3    0    0 -0.10588146913E+02  0.43437976723E+01  0.51640983866E+01  0.12555689773E+02  0.51100000000E-03 0. -1.
        -11    1    3    3    0    0 -0.11476737358E+02  0.94517503770E+01  0.36037514789E+01  0.15298304173E+02  0.51100000000E-03 0.  1.
         12    1    3    3    0    0  0.17845724340E+01  0.21411822868E+02 -0.72455284677E+01  0.22674843771E+02  0.00000000000E+00 0. -1.
</event>
<event>
 7    1  0.2817603E-011  0.5052886E+02  0.7816164E-02  0.1300439E+00
        -11   -1    0    0    0    0  0.00000000000E+00  0.00000000000E+00  0.45593999997E+02  0.45594000000E+02  0.51100000000E-03 0.  1.
         11   -1    0    0    0    0 -0.00000000000E+00 -0.00000000000E+00 -0.45593999997E+02  0.45594000000E+02  0.51100000000E-03 0. -1.
    9900012    2    1    2    0    0 -0.12361857013E+02 -0.37520930565E+01 -0.38552195415E+02  0.50528862251E+02  0.30000007300E+02 0.  0.
        -12    1    1    2    0    0  0.12361857013E+02  0.37520930565E+01  0.38552195415E+02  0.40659137749E+02  0.00000000000E+00 0.  1.
         11    1    3    3    0    0 -0.49040011790E+01  0.56867548084E+00 -0.11292365040E+02  0.12324371295E+02  0.51100000000E-03 0. -1.
        -11    1    3    3    0    0 -0.39048121328E+01  0.10325109608E+02 -0.15787875557E+02  0.19264279407E+02  0.51100000000E-03 0.  1.
        -12    1    3    3    0    0 -0.35530437011E+01 -0.14645878145E+02 -0.11471954818E+02  0.18940211549E+02  0.00000000000E+00 0.  1.
</event>
<event>
 7    1  0.2817603E-011  0.5052886E+02  0.7816164E-02  0.1300439E+00
        -11   -1    0    0    0    0  0.00000000000E+00  0.00000000000E+00  0.45593999997E+02  0.45594000000E+02  0.51100000000E-03 0.  1.
         11   -1    0    0    0    0 -0.00000000000E+00 -0.00000000000E+00 -0.45593999997E+02  0.45594000000E+02  0.51100000000E-03 0. -1.
    9900012    2    1    2    0    0  0.27607421134E+02  0.11996434616E+01 -0.29825439801E+02  0.50528859509E+02  0.29999998965E+02 0.  0.
        -12    1    1    2    0    0 -0.27607421134E+02 -0.11996434616E+01  0.29825439801E+02  0.40659140491E+02  0.00000000000E+00 0.  1.
         11    1    3    3    0    0  0.30028114700E+02 -0.41431859061E+01 -0.25130394864E+02  0.39374997247E+02  0.51100000000E-03 0. -1.
        -11    1    3    3    0    0  0.29105987305E+01  0.18497768417E+01 -0.29688780562E+01  0.45505490336E+01  0.51100000000E-03 0.  1.
        -12    1    3    3    0    0 -0.53312922964E+01  0.34930525261E+01 -0.17261668801E+01  0.66033132288E+01  0.00000000000E+00 0.  1.
</event>
<event>
 7    1  0.2817603E-011  0.5052885E+02  0.7816164E-02  0.1300439E+00
        -11   -1    0    0    0    0  0.00000000000E+00  0.00000000000E+00  0.45593999997E+02  0.45594000000E+02  0.51100000000E-03 0. -1.
         11   -1    0    0    0    0 -0.00000000000E+00 -0.00000000000E+00 -0.45593999997E+02  0.45594000000E+02  0.51100000000E-03 0.  1.
    9900012    2    1    2    0    0 -0.37278474935E+02 -0.12081992812E+02  0.10840090953E+02  0.50528845856E+02  0.29999957465E+02 0.  0.
        -12    1    1    2    0    0  0.37278474935E+02  0.12081992812E+02 -0.10840090953E+02  0.40659154144E+02  0.00000000000E+00 0.  1.
         11    1    3    3    0    0 -0.87266333146E+01 -0.22616599842E+01  0.36529381165E+01  0.97269312754E+01  0.51100000000E-03 0. -1.
        -11    1    3    3    0    0 -0.16624393295E+02 -0.17412447174E+02  0.10525318411E+02  0.26274438090E+02  0.51100000000E-03 0.  1.
        -12    1    3    3    0    0 -0.11927448326E+02  0.75921143462E+01 -0.33381655741E+01  0.14527476491E+02  0.00000000000E+00 0.  1.
</event>
<event>
 7    1  0.2817603E-011  0.5052884E+02  0.7816164E-02  0.1300439E+00
        -11   -1    0    0    0    0  0.00000000000E+00  0.00000000000E+00  0.45593999997E+02  0.45594000000E+02  0.51100000000E-03 0.  1.
         11   -1    0    0    0    0 -0.00000000000E+00 -0.00000000000E+00 -0.45593999997E+02  0.45594000000E+02  0.51100000000E-03 0. -1.
    9900012    2    1    2    0    0 -0.37156503674E+02 -0.32090434212E+01  0.16194543665E+02  0.50528843965E+02  0.29999951717E+02 0.  0.
        -12    1    1    2    0    0  0.37156503674E+02  0.32090434212E+01 -0.16194543665E+02  0.40659156035E+02  0.00000000000E+00 0.  1.
         11    1    3    3    0    0 -0.15743626164E+02 -0.51419046890E+01  0.32008596007E+01  0.16868504707E+02  0.51100000000E-03 0. -1.
        -11    1    3    3    0    0 -0.72060434556E+01 -0.10111340852E+02  0.47849919435E+01  0.13306480536E+02  0.51100000000E-03 0.  1.
        -12    1    3    3    0    0 -0.14206834055E+02  0.12044202119E+02  0.82086921206E+01  0.20353858722E+02  0.00000000000E+00 0.  1.
</event>
<event>
 7    1  0.2817603E-011  0.5052885E+02  0.7816164E-02  0.1300439E+00
        -11   -1    0    0    0    0  0.00000000000E+00  0.00000000000E+00  0.45593999997E+02  0.45594000000E+02  0.51100000000E-03 0.  1.
         11   -1    0    0    0    0 -0.00000000000E+00 -0.00000000000E+00 -0.45593999997E+02  0.45594000000E+02  0.51100000000E-03 0. -1.
    9900012    2    1    2    0    0 -0.15691827640E+02  0.33087494415E+02 -0.17667783872E+02  0.50528851850E+02  0.29999975684E+02 0.  0.
        -12    1    1    2    0    0  0.15691827640E+02 -0.33087494415E+02  0.17667783872E+02  0.40659148150E+02  0.00000000000E+00 0.  1.
         11    1    3    3    0    0 -0.79871358758E+01  0.60002532294E+00 -0.19947858520E+01  0.82543043767E+01  0.51100000000E-03 0.  1.
        -11    1    3    3    0    0 -0.13428662326E+02  0.14876924514E+02 -0.41556506633E+01  0.20467566723E+02  0.51100000000E-03 0. -1.
        -12    1    3    3    0    0  0.57239705616E+01  0.17610544578E+02 -0.11517347357E+02  0.21806980751E+02  0.00000000000E+00 0.  1.
</event>
<event>
 7    1  0.2817603E-011  0.5052887E+02  0.7816164E-02  0.1300439E+00
        -11   -1    0    0    0    0  0.00000000000E+00  0.00000000000E+00  0.45593999997E+02  0.45594000000E+02  0.51100000000E-03 0.  1.
         11   -1    0    0    0    0 -0.00000000000E+00 -0.00000000000E+00 -0.45593999997E+02  0.45594000000E+02  0.51100000000E-03 0. -1.
    9900012    2    1    2    0    0 -0.97828880585E+01 -0.37644389562E+02 -0.11847363784E+02  0.50528868271E+02  0.30000025598E+02 0.  0.
        -12    1    1    2    0    0  0.97828880585E+01  0.37644389562E+02  0.11847363784E+02  0.40659131729E+02  0.00000000000E+00 0.  1.
         11    1    3    3    0    0 -0.31076161544E+01 -0.17559581352E+02 -0.44098138217E+01  0.18369611689E+02  0.51100000000E-03 0. -1.
        -11    1    3    3    0    0  0.60888490183E+01 -0.16512092699E+02 -0.15856904575E+01  0.17670249069E+02  0.51100000000E-03 0.  1.
        -12    1    3    3    0    0 -0.12764120922E+02 -0.35727155111E+01 -0.58518595046E+01  0.14489007513E+02  0.00000000000E+00 0.  1.
</event>
<event>
 7    1  0.2817603E-011  0.5052886E+02  0.7816164E-02  0.1300439E+00
        -11   -1    0    0    0    0  0.00000000000E+00  0.00000000000E+00  0.45593999997E+02  0.45594000000E+02  0.51100000000E-03 0.  1.
         11   -1    0    0    0    0 -0.00000000000E+00 -0.00000000000E+00 -0.45593999997E+02  0.45594000000E+02  0.51100000000E-03 0. -1.
    9900012    2    1    2    0    0 -0.13723611821E+01 -0.39550386017E+02 -0.93300375814E+01  0.50528855757E+02  0.29999987560E+02 0.  0.
        -12    1    1    2    0    0  0.13723611821E+01  0.39550386017E+02  0.93300375814E+01  0.40659144243E+02  0.00000000000E+00 0.  1.
         11    1    3    3    0    0 -0.36970221809E+01  0.59136699396E+00  0.42338848596E+01  0.56518553761E+01  0.51100000000E-03 0. -1.
        -11    1    3    3    0    0 -0.15353549631E+01 -0.35751367344E+00 -0.32262075515E+01  0.35907584597E+01  0.51100000000E-03 0.  1.
         12    1    3    3    0    0  0.38600159618E+01 -0.39784239337E+02 -0.10337714889E+02  0.41286241921E+02  0.00000000000E+00 0. -1.
</event>
<event>
 7    1  0.2817603E-011  0.5052882E+02  0.7816164E-02  0.1300439E+00
        -11   -1    0    0    0    0  0.00000000000E+00  0.00000000000E+00  0.45593999997E+02  0.45594000000E+02  0.51100000000E-03 0. -1.
         11   -1    0    0    0    0 -0.00000000000E+00 -0.00000000000E+00 -0.45593999997E+02  0.45594000000E+02  0.51100000000E-03 0.  1.
    9900012    2    1    2    0    0  0.22231653690E+02 -0.24966655830E+02 -0.23142781697E+02  0.50528823006E+02  0.29999888009E+02 0.  0.
        -12    1    1    2    0    0 -0.22231653690E+02  0.24966655830E+02  0.23142781697E+02  0.40659176994E+02  0.00000000000E+00 0.  1.
         11    1    3    3    0    0  0.89657410536E+00  0.21377512684E+01 -0.67438163625E+01  0.71311208799E+01  0.51100000000E-03 0. -1.
        -11    1    3    3    0    0 -0.20852742253E+01  0.19172581905E+01 -0.17565548915E+01  0.33331265970E+01  0.51100000000E-03 0.  1.
         12    1    3    3    0    0  0.23420353810E+02 -0.29021665289E+02 -0.14642410443E+02  0.40064575529E+02  0.00000000000E+00 0. -1.
</event>
<event>
 7    1  0.2817603E-011  0.5052886E+02  0.7816164E-02  0.1300439E+00
        -11   -1    0    0    0    0  0.00000000000E+00  0.00000000000E+00  0.45593999997E+02  0.45594000000E+02  0.51100000000E-03 0. -1.
         11   -1    0    0    0    0 -0.00000000000E+00 -0.00000000000E+00 -0.45593999997E+02  0.45594000000E+02  0.51100000000E-03 0.  1.
    9900012    2    1    2    0    0  0.30783767564E+02 -0.59209834269E+01  0.25893384387E+02  0.50528859020E+02  0.29999997479E+02 0.  0.
        -12    1    1    2    0    0 -0.30783767564E+02  0.59209834269E+01 -0.25893384387E+02  0.40659140980E+02  0.00000000000E+00 0.  1.
         11    1    3    3    0    0  0.11193217945E+02  0.20271759721E+01  0.10292677895E+02  0.15340690627E+02  0.51100000000E-03 0. -1.
        -11    1    3    3    0    0  0.77718738482E+01 -0.70250669983E+01 -0.48542320296E+01  0.11546304963E+02  0.51100000000E-03 0.  1.
         12    1    3    3    0    0  0.11818675771E+02 -0.92309240068E+00  0.20454938522E+02  0.23641863431E+02  0.00000000000E+00 0. -1.
</event>
<event>
 7    1  0.2817603E-011  0.5052887E+02  0.7816164E-02  0.1300439E+00
        -11   -1    0    0    0    0  0.00000000000E+00  0.00000000000E+00  0.45593999997E+02  0.45594000000E+02  0.51100000000E-03 0.  1.
         11   -1    0    0    0    0 -0.00000000000E+00 -0.00000000000E+00 -0.45593999997E+02  0.45594000000E+02  0.51100000000E-03 0. -1.
    9900012    2    1    2    0    0  0.26198715915E+02 -0.30053294294E+02 -0.79744250740E+01  0.50528872258E+02  0.30000037715E+02 0.  0.
        -12    1    1    2    0    0 -0.26198715915E+02  0.30053294294E+02  0.79744250740E+01  0.40659127742E+02  0.00000000000E+00 0.  1.
         11    1    3    3    0    0 -0.15603487268E+01 -0.30633504021E+01  0.17420129819E+01  0.38540126265E+01  0.51100000000E-03 0. -1.
        -11    1    3    3    0    0 -0.39445484476E+01 -0.68062599437E+01 -0.33762145707E+01  0.85605760300E+01  0.51100000000E-03 0.  1.
        -12    1    3    3    0    0  0.31703613089E+02 -0.20183683948E+02 -0.63402234852E+01  0.38114283601E+02  0.00000000000E+00 0.  1.
</event>
<event>
 7    1  0.2817603E-011  0.5052887E+02  0.7816164E-02  0.1300439E+00
        -11   -1    0    0    0    0  0.00000000000E+00  0.00000000000E+00  0.45593999997E+02  0.45594000000E+02  0.51100000000E-03 0. -1.
         11   -1    0    0    0    0 -0.00000000000E+00 -0.00000000000E+00 -0.45593999997E+02  0.45594000000E+02  0.51100000000E-03 0.  1.
    9900012    2    1    2    0    0 -0.27839666555E+02  0.14691177208E+02  0.25734933451E+02  0.50528874070E+02  0.30000043224E+02 0.  0.
        -12    1    1    2    0    0  0.27839666555E+02 -0.14691177208E+02 -0.25734933451E+02  0.40659125930E+02  0.00000000000E+00 0.  1.
         11    1    3    3    0    0 -0.21716069002E+00  0.15209595644E+02  0.62555139717E+01  0.16447200787E+02  0.51100000000E-03 0.  1.
        -11    1    3    3    0    0 -0.10228626745E+02  0.10792555705E+01  0.92901217199E+01  0.13859868669E+02  0.51100000000E-03 0. -1.
        -12    1    3    3    0    0 -0.17393879120E+02 -0.15976740065E+01  0.10189297759E+02  0.20221804615E+02  0.00000000000E+00 0.  1.
</event>
<event>
 7    1  0.2817603E-011  0.5052886E+02  0.7816164E-02  0.1300439E+00
        -11   -1    0    0    0    0  0.00000000000E+00  0.00000000000E+00  0.45593999997E+02  0.45594000000E+02  0.51100000000E-03 0.  1.
         11   -1    0    0    0    0 -0.00000000000E+00 -0.00000000000E+00 -0.45593999997E+02  0.45594000000E+02  0.51100000000E-03 0. -1.
    9900012    2    1    2    0    0  0.29599866708E+01  0.32813966167E+02 -0.23825362981E+02  0.50528858126E+02  0.29999994761E+02 0.  0.
        -12    1    1    2    0    0 -0.29599866708E+01 -0.32813966167E+02  0.23825362981E+02  0.40659141874E+02  0.00000000000E+00 0.  1.
         11    1    3    3    0    0 -0.56017699382E+01  0.55158267040E+01  0.73614940435E-02  0.78615663275E+01  0.51100000000E-03 0. -1.
        -11    1    3    3    0    0 -0.59698872436E+01  0.12019090273E+02 -0.47721509715E+01  0.14243297014E+02  0.51100000000E-03 0.  1.
         12    1    3    3    0    0  0.14531643853E+02  0.15279049191E+02 -0.19060573503E+02  0.28423994784E+02  0.00000000000E+00 0. -1.
</event>
<event>
 7    1  0.2817603E-011  0.5052887E+02  0.7816164E-02  0.1300439E+00
        -11   -1    0    0    0    0  0.00000000000E+00  0.00000000000E+00  0.45593999997E+02  0.45594000000E+02  0.51100000000E-03 0.  1.
         11   -1    0    0    0    0 -0.00000000000E+00 -0.00000000000E+00 -0.45593999997E+02  0.45594000000E+02  0.51100000000E-03 0. -1.
    9900012    2    1    2    0    0 -0.98878447498E+01 -0.57700743261E+01 -0.39014123538E+02  0.50528867361E+02  0.30000022830E+02 0.  0.
        -12    1    1    2    0    0  0.98878447498E+01  0.57700743261E+01  0.39014123538E+02  0.40659132639E+02  0.00000000000E+00 0.  1.
         11    1    3    3    0    0 -0.37853711600E+01  0.14235468854E+01  0.13146169803E+01  0.42524979271E+01  0.51100000000E-03 0. -1.
        -11    1    3    3    0    0  0.28794688317E+01  0.40191209627E+01 -0.24100867452E+02  0.24602773955E+02  0.51100000000E-03 0.  1.
         12    1    3    3    0    0 -0.89819424215E+01 -0.11212742174E+02 -0.16227873066E+02  0.21673595479E+02  0.00000000000E+00 0. -1.
</event>
<event>
 7    1  0.2817603E-011  0.5052886E+02  0.7816164E-02  0.1300439E+00
        -11   -1    0    0    0    0  0.00000000000E+00  0.00000000000E+00  0.45593999997E+02  0.45594000000E+02  0.51100000000E-03 0.  1.
         11   -1    0    0    0    0 -0.00000000000E+00 -0.00000000000E+00 -0.45593999997E+02  0.45594000000E+02  0.51100000000E-03 0. -1.
    9900012    2    1    2    0    0  0.20474799851E+02 -0.21275950992E+02 -0.27951428566E+02  0.50528857382E+02  0.29999992500E+02 0.  0.
        -12    1    1    2    0    0 -0.20474799851E+02  0.21275950992E+02  0.27951428566E+02  0.40659142618E+02  0.00000000000E+00 0.  1.
         11    1    3    3    0    0 -0.20126829299E+01 -0.27446809775E+00 -0.44481173259E+00  0.20794429667E+01  0.51100000000E-03 0. -1.
        -11    1    3    3    0    0  0.11059661424E+02  0.29540111121E+01 -0.19661904933E+01  0.11614998828E+02  0.51100000000E-03 0.  1.
         12    1    3    3    0    0  0.11427821357E+02 -0.23955494006E+02 -0.25540426340E+02  0.36834415587E+02  0.00000000000E+00 0. -1.
</event>
<event>
 7    1  0.2817603E-011  0.5052886E+02  0.7816164E-02  0.1300439E+00
        -11   -1    0    0    0    0  0.00000000000E+00  0.00000000000E+00  0.45593999997E+02  0.45594000000E+02  0.51100000000E-03 0.  1.
         11   -1    0    0    0    0 -0.00000000000E+00 -0.00000000000E+00 -0.45593999997E+02  0.45594000000E+02  0.51100000000E-03 0. -1.
    9900012    2    1    2    0    0  0.88576215170E+01  0.32653358388E+02 -0.22549199014E+02  0.50528860202E+02  0.30000001071E+02 0.  0.
        -12    1    1    2    0    0 -0.88576215170E+01 -0.32653358388E+02  0.22549199014E+02  0.40659139798E+02  0.00000000000E+00 0.  1.
         11    1    3    3    0    0 -0.19547543862E+01  0.68611500124E+01 -0.10991412970E+02  0.13103724797E+02  0.51100000000E-03 0. -1.
        -11    1    3    3    0    0 -0.64834413025E+01  0.81883760813E+01 -0.71289610199E+00  0.10468654884E+02  0.51100000000E-03 0.  1.
        -12    1    3    3    0    0  0.17295817206E+02  0.17603832294E+02 -0.10844889942E+02  0.26956480521E+02  0.00000000000E+00 0.  1.
</event>
<event>
 7    1  0.2817603E-011  0.5052886E+02  0.7816164E-02  0.1300439E+00
        -11   -1    0    0    0    0  0.00000000000E+00  0.00000000000E+00  0.45593999997E+02  0.45594000000E+02  0.51100000000E-03 0.  1.
         11   -1    0    0    0    0 -0.00000000000E+00 -0.00000000000E+00 -0.45593999997E+02  0.45594000000E+02  0.51100000000E-03 0. -1.
    9900012    2    1    2    0    0  0.56503345519E+01 -0.17782313612E+02 -0.36125182052E+02  0.50528859131E+02  0.29999997814E+02 0.  0.
        -12    1    1    2    0    0 -0.56503345519E+01  0.17782313612E+02  0.36125182052E+02  0.40659140869E+02  0.00000000000E+00 0.  1.
         11    1    3    3    0    0 -0.18731861910E+01 -0.86138908172E+00 -0.24119402154E+02  0.24207362066E+02  0.51100000000E-03 0. -1.
        -11    1    3    3    0    0 -0.35107612767E+01 -0.54139110031E+01 -0.72044064983E+01  0.96715743468E+01  0.51100000000E-03 0.  1.
         12    1    3    3    0    0  0.11034282020E+02 -0.11507013527E+02 -0.48013733990E+01  0.16649922718E+02  0.00000000000E+00 0. -1.
</event>
<event>
 7    1  0.2817603E-011  0.5052887E+02  0.7816164E-02  0.1300439E+00
        -11   -1    0    0    0    0  0.00000000000E+00  0.00000000000E+00  0.45593999997E+02  0.45594000000E+02  0.51100000000E-03 0.  1.
         11   -1    0    0    0    0 -0.00000000000E+00 -0.00000000000E+00 -0.45593999997E+02  0.45594000000E+02  0.51100000000E-03 0. -1.
    9900012    2    1    2    0    0 -0.31891559711E+02  0.25149314164E+02 -0.18988601268E+01  0.50528865067E+02  0.30000015858E+02 0.  0.
        -12    1    1    2    0    0  0.31891559711E+02 -0.25149314164E+02  0.18988601268E+01  0.40659134933E+02  0.00000000000E+00 0.  1.
         11    1    3    3    0    0 -0.19034146651E+02  0.14935619739E+02 -0.14211710518E+02  0.28059654164E+02  0.51100000000E-03 0.  1.
        -11    1    3    3    0    0 -0.89313981682E+01  0.62637414191E+01  0.25086257337E+01  0.11193638065E+02  0.51100000000E-03 0. -1.
        -12    1    3    3    0    0 -0.39260148917E+01  0.39499530059E+01  0.98042246575E+01  0.11275572837E+02  0.00000000000E+00 0.  1.
</event>
<event>
 7    1  0.2817603E-011  0.5052885E+02  0.7816164E-02  0.1300439E+00
        -11   -1    0    0    0    0  0.00000000000E+00  0.00000000000E+00  0.45593999997E+02  0.45594000000E+02  0.51100000000E-03 0.  1.
         11   -1    0    0    0    0 -0.00000000000E+00 -0.00000000000E+00 -0.45593999997E+02  0.45594000000E+02  0.51100000000E-03 0. -1.
    9900012    2    1    2    0    0 -0.12740326817E+02 -0.10580049979E+02 -0.37133722746E+02  0.50528846665E+02  0.29999959921E+02 0.  0.
        -12    1    1    2    0    0  0.12740326817E+02  0.10580049979E+02  0.37133722746E+02  0.40659153335E+02  0.00000000000E+00 0.  1.
         11    1    3    3    0    0 -0.76315439483E+01 -0.52324001389E+01 -0.11474473474E+02  0.14740489002E+02  0.51100000000E-03 0.  1.
        -11    1    3    3    0    0 -0.83917437868E+01 -0.11583477217E+02 -0.24879375932E+02  0.28698112399E+02  0.51100000000E-03 0. -1.
         12    1    3    3    0    0  0.32829609185E+01  0.62358273770E+01 -0.77987333969E+00  0.70902452633E+01  0.00000000000E+00 0. -1.
</event>
<event>
 7    1  0.2817603E-011  0.5052885E+02  0.7816164E-02  0.1300439E+00
        -11   -1    0    0    0    0  0.00000000000E+00  0.00000000000E+00  0.45593999997E+02  0.45594000000E+02  0.51100000000E-03 0.  1.
         11   -1    0    0    0    0 -0.00000000000E+00 -0.00000000000E+00 -0.45593999997E+02  0.45594000000E+02  0.51100000000E-03 0. -1.
    9900012    2    1    2    0    0  0.16267316948E+01 -0.13196977436E+02 -0.38423430206E+02  0.50528850252E+02  0.29999970825E+02 0.  0.
        -12    1    1    2    0    0 -0.16267316948E+01  0.13196977436E+02  0.38423430206E+02  0.40659149748E+02  0.00000000000E+00 0.  1.
         11    1    3    3    0    0 -0.46451717958E+01 -0.12685677562E+02 -0.27278171076E+02  0.30440148714E+02  0.51100000000E-03 0. -1.
        -11    1    3    3    0    0  0.68448916311E+01 -0.72340169362E+01 -0.63526752409E+01  0.11812706102E+02  0.51100000000E-03 0.  1.
         12    1    3    3    0    0 -0.57298814050E+00  0.67227170628E+01 -0.47925838896E+01  0.82759954359E+01  0.00000000000E+00 0. -1.
</event>
<event>
 7    1  0.2817603E-011  0.5052889E+02  0.7816164E-02  0.1300439E+00
        -11   -1    0    0    0    0  0.00000000000E+00  0.00000000000E+00  0.45593999997E+02  0.45594000000E+02  0.51100000000E-03 0.  1.
         11   -1    0    0    0    0 -0.00000000000E+00 -0.00000000000E+00 -0.45593999997E+02  0.45594000000E+02  0.51100000000E-03 0. -1.
    9900012    2    1    2    0    0  0.21932568999E+02 -0.41882877176E+01 -0.33979174421E+02  0.50528885017E+02  0.30000076498E+02 0.  0.
        -12    1    1    2    0    0 -0.21932568999E+02  0.41882877176E+01  0.33979174421E+02  0.40659114983E+02  0.00000000000E+00 0.  1.
         11    1    3    3    0    0  0.29134361935E+01  0.22143936975E+01 -0.10034962561E+02  0.10681391471E+02  0.51100000000E-03 0.  1.
        -11    1    3    3    0    0  0.16306775414E+02  0.42211389159E+00 -0.27277137094E+02  0.31782563031E+02  0.51100000000E-03 0. -1.
         12    1    3    3    0    0  0.27123573914E+01 -0.68247953067E+01  0.33329252340E+01  0.80649305151E+01  0.00000000000E+00 0. -1.
</event>
<event>
 7    1  0.2817603E-011  0.5052894E+02  0.7816164E-02  0.1300439E+00
        -11   -1    0    0    0    0  0.00000000000E+00  0.00000000000E+00  0.45593999997E+02  0.45594000000E+02  0.51100000000E-03 0. -1.
         11   -1    0    0    0    0 -0.00000000000E+00 -0.00000000000E+00 -0.45593999997E+02  0.45594000000E+02  0.51100000000E-03 0.  1.
    9900012    2    1    2    0    0  0.19164469410E+02  0.15261070584E+02  0.32449686010E+02  0.50528938460E+02  0.30000238943E+02 0.  0.
        -12    1    1    2    0    0 -0.19164469410E+02 -0.15261070584E+02 -0.32449686010E+02  0.40659061540E+02  0.00000000000E+00 0.  1.
         11    1    3    3    0    0  0.20241406202E+01 -0.75227627386E-01 -0.94380984383E+00  0.22346323475E+01  0.51100000000E-03 0. -1.
        -11    1    3    3    0    0  0.18867398836E+02  0.83212074141E+01  0.83803836196E+01  0.22258752471E+02  0.51100000000E-03 0.  1.
         12    1    3    3    0    0 -0.17270700461E+01  0.70150907972E+01  0.25013112234E+02  0.26035553642E+02  0.00000000000E+00 0. -1.
</event>
<event>
 7    1  0.2817603E-011  0.5052886E+02  0.7816164E-02  0.1300439E+00
        -11   -1    0    0    0    0  0.00000000000E+00  0.00000000000E+00  0.45593999997E+02  0.45594000000E+02  0.51100000000E-03 0.  1.
         11   -1    0    0    0    0 -0.00000000000E+00 -0.00000000000E+00 -0.45593999997E+02  0.45594000000E+02  0.51100000000E-03 0. -1.
    9900012    2    1    2    0    0  0.15475871394E+02 -0.30552064751E+02 -0.21914244201E+02  0.50528863821E+02  0.30000012069E+02 0.  0.
        -12    1    1    2    0    0 -0.15475871394E+02  0.30552064751E+02  0.21914244201E+02  0.40659136179E+02  0.00000000000E+00 0.  1.
         11    1    3    3    0    0  0.11927794526E+02 -0.12619428640E+02 -0.14501448048E+02  0.22623312251E+02  0.51100000000E-03 0. -1.
        -11    1    3    3    0    0  0.75513239785E+01 -0.19505364447E+02 -0.20284325116E+01  0.21014192222E+02  0.51100000000E-03 0.  1.
         12    1    3    3    0    0 -0.40032471104E+01  0.15727283355E+01 -0.53843636408E+01  0.68913593478E+01  0.00000000000E+00 0. -1.
</event>
<event>
 7    1  0.2817603E-011  0.5052887E+02  0.7816164E-02  0.1300439E+00
        -11   -1    0    0    0    0  0.00000000000E+00  0.00000000000E+00  0.45593999997E+02  0.45594000000E+02  0.51100000000E-03 0. -1.
         11   -1    0    0    0    0 -0.00000000000E+00 -0.00000000000E+00 -0.45593999997E+02  0.45594000000E+02  0.51100000000E-03 0.  1.
    9900012    2    1    2    0    0  0.20045368124E+01 -0.23332832275E+02  0.33237415196E+02  0.50528868200E+02  0.30000025382E+02 0.  0.
        -12    1    1    2    0    0 -0.20045368124E+01  0.23332832275E+02 -0.33237415196E+02  0.40659131800E+02  0.00000000000E+00 0.  1.
         11    1    3    3    0    0  0.45249199767E+01 -0.17418772842E+02  0.25101816737E+01  0.18171118854E+02  0.51100000000E-03 0.  1.
        -11    1    3    3    0    0 -0.12081964161E+01 -0.64297468704E+01  0.12798732288E+02  0.14373897587E+02  0.51100000000E-03 0. -1.
        -12    1    3    3    0    0 -0.13121867482E+01  0.51568743792E+00  0.17928501234E+02  0.17983851759E+02  0.00000000000E+00 0.  1.
</event>
<event>
 7    1  0.2817603E-011  0.5052885E+02  0.7816164E-02  0.1300439E+00
        -11   -1    0    0    0    0  0.00000000000E+00  0.00000000000E+00  0.45593999997E+02  0.45594000000E+02  0.51100000000E-03 0.  1.
         11   -1    0    0    0    0 -0.00000000000E+00 -0.00000000000E+00 -0.45593999997E+02  0.45594000000E+02  0.51100000000E-03 0. -1.
    9900012    2    1    2    0    0  0.17114896636E+02 -0.29017449876E+02 -0.22764767831E+02  0.50528846805E+02  0.29999960349E+02 0.  0.
        -12    1    1    2    0    0 -0.17114896636E+02  0.29017449876E+02  0.22764767831E+02  0.40659153195E+02  0.00000000000E+00 0.  1.
         11    1    3    3    0    0  0.56618040121E+01 -0.20914783410E+02 -0.10249697277E+02  0.23969574136E+02  0.51100000000E-03 0. -1.
        -11    1    3    3    0    0 -0.11047690171E+01 -0.10537905913E+02 -0.64279050658E+01  0.12392979440E+02  0.51100000000E-03 0.  1.
         12    1    3    3    0    0  0.12557861641E+02  0.24352394471E+01 -0.60871654882E+01  0.14166293229E+02  0.00000000000E+00 0. -1.
</event>
<event>
 7    1  0.2817603E-011  0.5052878E+02  0.7816164E-02  0.1300439E+00
        -11   -1    0    0    0    0  0.00000000000E+00  0.00000000000E+00  0.45593999997E+02  0.45594000000E+02  0.51100000000E-03 0.  1.
         11   -1    0    0    0    0 -0.00000000000E+00 -0.00000000000E+00 -0.45593999997E+02  0.45594000000E+02  0.51100000000E-03 0. -1.
    9900012    2    1    2    0    0  0.30669681409E+02 -0.11741435942E+02 -0.23972518876E+02  0.50528777959E+02  0.29999751083E+02 0.  0.
        -12    1    1    2    0    0 -0.30669681409E+02  0.11741435942E+02  0.23972518876E+02  0.40659222041E+02  0.00000000000E+00 0.  1.
         11    1    3    3    0    0  0.11688684907E+02  0.46244481894E+01 -0.18609615057E+02  0.22457262717E+02  0.51100000000E-03 0. -1.
        -11    1    3    3    0    0  0.10826960544E+01 -0.70901640706E+01  0.14403447402E+00  0.71737997940E+01  0.51100000000E-03 0.  1.
        -12    1    3    3    0    0  0.17898300448E+02 -0.92757200613E+01 -0.55069382926E+01  0.20897715448E+02  0.00000000000E+00 0.  1.
</event>
<event>
 7    1  0.2817603E-011  0.5052886E+02  0.7816164E-02  0.1300439E+00
        -11   -1    0    0    0    0  0.00000000000E+00  0.00000000000E+00  0.45593999997E+02  0.45594000000E+02  0.51100000000E-03 0.  1.
         11   -1    0    0    0    0 -0.00000000000E+00 -0.00000000000E+00 -0.45593999997E+02  0.45594000000E+02  0.51100000000E-03 0. -1.
    9900012    2    1    2    0    0 -0.35961800150E+02  0.71616119637E+01  0.17567742498E+02  0.50528864096E+02  0.30000012906E+02 0.  0.
        -12    1    1    2    0    0  0.35961800150E+02 -0.71616119637E+01 -0.17567742498E+02  0.40659135904E+02  0.00000000000E+00 0.  1.
         11    1    3    3    0    0 -0.19297451401E+01 -0.35992135488E+01  0.18554085158E+01  0.44856209712E+01  0.51100000000E-03 0. -1.
        -11    1    3    3    0    0  0.11212146452E+01 -0.47266773474E+01  0.14904048466E+01  0.50813293433E+01  0.51100000000E-03 0.  1.
         12    1    3    3    0    0 -0.35153269655E+02  0.15487502860E+02  0.14221929136E+02  0.40961913782E+02  0.00000000000E+00 0. -1.
</event>
<event>
 7    1  0.2817603E-011  0.5052885E+02  0.7816164E-02  0.1300439E+00
        -11   -1    0    0    0    0  0.00000000000E+00  0.00000000000E+00  0.45593999997E+02  0.45594000000E+02  0.51100000000E-03 0. -1.
         11   -1    0    0    0    0 -0.00000000000E+00 -0.00000000000E+00 -0.45593999997E+02  0.45594000000E+02  0.51100000000E-03 0.  1.
    9900012    2    1    2    0    0 -0.34022495822E+02  0.73753111933E+01  0.21005733182E+02  0.50528852645E+02  0.29999978099E+02 0.  0.
        -12    1    1    2    0    0  0.34022495822E+02 -0.73753111933E+01 -0.21005733182E+02  0.40659147355E+02  0.00000000000E+00 0.  1.
         11    1    3    3    0    0 -0.74793207353E+00 -0.28558440555E+01  0.18011254667E+00  0.29576491419E+01  0.51100000000E-03 0. -1.
        -11    1    3    3    0    0 -0.10066526481E+00 -0.37941329528E+01  0.88267963519E+01  0.96082210871E+01  0.51100000000E-03 0.  1.
         12    1    3    3    0    0 -0.33173898483E+02  0.14025288202E+02  0.11998824283E+02  0.37962982416E+02  0.00000000000E+00 0. -1.
</event>
<event>
 7    1  0.2817603E-011  0.5052886E+02  0.7816164E-02  0.1300439E+00
        -11   -1    0    0    0    0  0.00000000000E+00  0.00000000000E+00  0.45593999997E+02  0.45594000000E+02  0.51100000000E-03 0.  1.
         11   -1    0    0    0    0 -0.00000000000E+00 -0.00000000000E+00 -0.45593999997E+02  0.45594000000E+02  0.51100000000E-03 0. -1.
    9900012    2    1    2    0    0  0.21166998039E+02  0.11903794370E+02 -0.32610174912E+02  0.50528860386E+02  0.30000001628E+02 0.  0.
        -12    1    1    2    0    0 -0.21166998039E+02 -0.11903794370E+02  0.32610174912E+02  0.40659139614E+02  0.00000000000E+00 0.  1.
         11    1    3    3    0    0 -0.16710016365E+01  0.46144793583E+01  0.12203589435E+00  0.49092320416E+01  0.51100000000E-03 0. -1.
        -11    1    3    3    0    0 -0.20712928044E+01 -0.32856702870E+01 -0.11951608589E+01  0.40637781505E+01  0.51100000000E-03 0.  1.
         12    1    3    3    0    0  0.24909292480E+02  0.10574985299E+02 -0.31537049948E+02  0.41555850194E+02  0.00000000000E+00 0. -1.
</event>
<event>
 7    1  0.2817603E-011  0.5052887E+02  0.7816164E-02  0.1300439E+00
        -11   -1    0    0    0    0  0.00000000000E+00  0.00000000000E+00  0.45593999997E+02  0.45594000000E+02  0.51100000000E-03 0.  1.
         11   -1    0    0    0    0 -0.00000000000E+00 -0.00000000000E+00 -0.45593999997E+02  0.45594000000E+02  0.51100000000E-03 0. -1.
    9900012    2    1    2    0    0 -0.22812383650E+02  0.60717022859E+01 -0.33104301745E+02  0.50528865596E+02  0.30000017465E+02 0.  0.
        -12    1    1    2    0    0  0.22812383650E+02 -0.60717022859E+01  0.33104301745E+02  0.40659134404E+02  0.00000000000E+00 0.  1.
         11    1    3    3    0    0 -0.89352777956E+01 -0.22804349660E+01 -0.67035355612E+01  0.11400743932E+02  0.51100000000E-03 0. -1.
        -11    1    3    3    0    0 -0.15534395825E+02  0.33453451516E+01 -0.43778926923E+01  0.16482558433E+02  0.51100000000E-03 0.  1.
        -12    1    3    3    0    0  0.16572899704E+01  0.50067921003E+01 -0.22022873492E+02  0.22645563231E+02  0.00000000000E+00 0.  1.
</event>
<event>
 7    1  0.2817603E-011  0.5052878E+02  0.7816164E-02  0.1300439E+00
        -11   -1    0    0    0    0  0.00000000000E+00  0.00000000000E+00  0.45593999997E+02  0.45594000000E+02  0.51100000000E-03 0. -1.
         11   -1    0    0    0    0 -0.00000000000E+00 -0.00000000000E+00 -0.45593999997E+02  0.45594000000E+02  0.51100000000E-03 0.  1.
    9900012    2    1    2    0    0  0.37826149445E+02 -0.10817440941E+02  0.10263402649E+02  0.50528781559E+02  0.29999762025E+02 0.  0.
        -12    1    1    2    0    0 -0.37826149445E+02  0.10817440941E+02 -0.10263402649E+02  0.40659218441E+02  0.00000000000E+00 0.  1.
         11    1    3    3    0    0  0.10272023177E+02 -0.12591355169E+01  0.31771344975E+00  0.10353783100E+02  0.51100000000E-03 0. -1.
        -11    1    3    3    0    0  0.31429965787E+02 -0.46631097306E+01  0.11412165504E+02  0.33761292385E+02  0.51100000000E-03 0.  1.
        -12    1    3    3    0    0 -0.38758395191E+01 -0.48951956932E+01 -0.14664763039E+01  0.64137060739E+01  0.00000000000E+00 0.  1.
</event>
<event>
 7    1  0.2817603E-011  0.5052886E+02  0.7816164E-02  0.1300439E+00
        -11   -1    0    0    0    0  0.00000000000E+00  0.00000000000E+00  0.45593999997E+02  0.45594000000E+02  0.51100000000E-03 0.  1.
         11   -1    0    0    0    0 -0.00000000000E+00 -0.00000000000E+00 -0.45593999997E+02  0.45594000000E+02  0.51100000000E-03 0. -1.
    9900012    2    1    2    0    0  0.24496470212E+02  0.32011942124E+02 -0.53220259074E+01  0.50528862636E+02  0.30000008469E+02 0.  0.
        -12    1    1    2    0    0 -0.24496470212E+02 -0.32011942124E+02  0.53220259074E+01  0.40659137364E+02  0.00000000000E+00 0.  1.
         11    1    3    3    0    0  0.29520937148E+01  0.22634165041E+02 -0.34940043698E+01  0.23091737726E+02  0.51100000000E-03 0. -1.
        -11    1    3    3    0    0  0.22941414873E+00  0.11489649847E+01  0.37408500604E+01  0.39200396456E+01  0.51100000000E-03 0.  1.
        -12    1    3    3    0    0  0.21314962348E+02  0.82288120983E+01 -0.55688715980E+01  0.23517085264E+02  0.00000000000E+00 0.  1.
</event>
<event>
 7    1  0.2817603E-011  0.5052887E+02  0.7816164E-02  0.1300439E+00
        -11   -1    0    0    0    0  0.00000000000E+00  0.00000000000E+00  0.45593999997E+02  0.45594000000E+02  0.51100000000E-03 0.  1.
         11   -1    0    0    0    0 -0.00000000000E+00 -0.00000000000E+00 -0.45593999997E+02  0.45594000000E+02  0.51100000000E-03 0. -1.
    9900012    2    1    2    0    0 -0.20045497995E+02  0.10330268382E+02 -0.33832359963E+02  0.50528867996E+02  0.30000024760E+02 0.  0.
        -12    1    1    2    0    0  0.20045497995E+02 -0.10330268382E+02  0.33832359963E+02  0.40659132004E+02  0.00000000000E+00 0.  1.
         11    1    3    3    0    0 -0.22678225603E+02  0.45263656569E+01 -0.14335027016E+02  0.27208140370E+02  0.51100000000E-03 0. -1.
        -11    1    3    3    0    0 -0.94443890060E-01  0.32422664662E+01  0.22041593899E+00  0.32511221038E+01  0.51100000000E-03 0.  1.
        -12    1    3    3    0    0  0.27271714982E+01  0.25616362585E+01 -0.19717748885E+02  0.20069605522E+02  0.00000000000E+00 0.  1.
</event>
<event>
 7    1  0.2817603E-011  0.5052886E+02  0.7816164E-02  0.1300439E+00
        -11   -1    0    0    0    0  0.00000000000E+00  0.00000000000E+00  0.45593999997E+02  0.45594000000E+02  0.51100000000E-03 0. -1.
         11   -1    0    0    0    0 -0.00000000000E+00 -0.00000000000E+00 -0.45593999997E+02  0.45594000000E+02  0.51100000000E-03 0.  1.
    9900012    2    1    2    0    0  0.19895080408E+02  0.32466155367E+02 -0.14258340390E+02  0.50528859092E+02  0.29999997695E+02 0.  0.
        -12    1    1    2    0    0 -0.19895080408E+02 -0.32466155367E+02  0.14258340390E+02  0.40659140908E+02  0.00000000000E+00 0.  1.
         11    1    3    3    0    0 -0.28513822593E+01  0.86312817665E+01  0.35379703276E+01  0.97543139185E+01  0.51100000000E-03 0. -1.
        -11    1    3    3    0    0 -0.23456967977E-01 -0.73110864853E+00  0.18172705070E+01  0.19589646352E+01  0.51100000000E-03 0.  1.
         12    1    3    3    0    0  0.22769919636E+02  0.24565982249E+02 -0.19613581224E+02  0.38815580538E+02  0.00000000000E+00 0. -1.
</event>
<event>
 7    1  0.2817603E-011  0.5052886E+02  0.7816164E-02  0.1300439E+00
        -11   -1    0    0    0    0  0.00000000000E+00  0.00000000000E+00  0.45593999997E+02  0.45594000000E+02  0.51100000000E-03 0. -1.
         11   -1    0    0    0    0 -0.00000000000E+00 -0.00000000000E+00 -0.45593999997E+02  0.45594000000E+02  0.51100000000E-03 0.  1.
    9900012    2    1    2    0    0 -0.22106541137E+02  0.27534358028E+02 -0.20157517387E+02  0.50528861541E+02  0.30000005139E+02 0.  0.
        -12    1    1    2    0    0  0.22106541137E+02 -0.27534358028E+02  0.20157517387E+02  0.40659138459E+02  0.00000000000E+00 0.  1.
         11    1    3    3    0    0  0.15343067724E+01  0.24215171067E+00 -0.19297142465E+01  0.24772024659E+01  0.51100000000E-03 0.  1.
        -11    1    3    3    0    0  0.44144222705E+01  0.10345069080E+02 -0.18070119555E+01  0.11391789619E+02  0.51100000000E-03 0. -1.
        -12    1    3    3    0    0 -0.28055270180E+02  0.16947137237E+02 -0.16420791185E+02  0.36659869456E+02  0.00000000000E+00 0.  1.
</event>
<event>
 7    1  0.2817603E-011  0.5052885E+02  0.7816164E-02  0.1300439E+00
        -11   -1    0    0    0    0  0.00000000000E+00  0.00000000000E+00  0.45593999997E+02  0.45594000000E+02  0.51100000000E-03 0.  1.
         11   -1    0    0    0    0 -0.00000000000E+00 -0.00000000000E+00 -0.45593999997E+02  0.45594000000E+02  0.51100000000E-03 0. -1.
    9900012    2    1    2    0    0  0.16114352555E+02  0.59064223943E-01 -0.37329485157E+02  0.50528852087E+02  0.29999976405E+02 0.  0.
        -12    1    1    2    0    0 -0.16114352555E+02 -0.59064223943E-01  0.37329485157E+02  0.40659147913E+02  0.00000000000E+00 0.  1.
         11    1    3    3    0    0 -0.55843642944E+01  0.89022621353E+00 -0.72863441663E+01  0.92232553285E+01  0.51100000000E-03 0. -1.
        -11    1    3    3    0    0 -0.13999331955E+00  0.54536778933E+01 -0.76971487526E+01  0.94344210142E+01  0.51100000000E-03 0.  1.
         12    1    3    3    0    0  0.21838710169E+02 -0.62848398828E+01 -0.22345992239E+02  0.31871175745E+02  0.00000000000E+00 0. -1.
</event>
<event>
 7    1  0.2817603E-011  0.5052883E+02  0.7816164E-02  0.1300439E+00
        -11   -1    0    0    0    0  0.00000000000E+00  0.00000000000E+00  0.45593999997E+02  0.45594000000E+02  0.51100000000E-03 0.  1.
         11   -1    0    0    0    0 -0.00000000000E+00 -0.00000000000E+00 -0.45593999997E+02  0.45594000000E+02  0.51100000000E-03 0. -1.
    9900012    2    1    2    0    0 -0.37325071362E+02 -0.14380991548E+02  0.72934451577E+01  0.50528828681E+02  0.29999905260E+02 0.  0.
        -12    1    1    2    0    0  0.37325071362E+02  0.14380991548E+02 -0.72934451577E+01  0.40659171319E+02  0.00000000000E+00 0.  1.
         11    1    3    3    0    0 -0.16149202589E+02 -0.12945625527E+02  0.89771767391E+01  0.22560489069E+02  0.51100000000E-03 0. -1.
        -11    1    3    3    0    0 -0.85530674145E+01 -0.75868394440E+01  0.49252905145E+01  0.12448838575E+02  0.51100000000E-03 0.  1.
        -12    1    3    3    0    0 -0.12622801358E+02  0.61514734233E+01 -0.66090220959E+01  0.15519501038E+02  0.00000000000E+00 0.  1.
</event>
<event>
 7    1  0.2817603E-011  0.5052883E+02  0.7816164E-02  0.1300439E+00
        -11   -1    0    0    0    0  0.00000000000E+00  0.00000000000E+00  0.45593999997E+02  0.45594000000E+02  0.51100000000E-03 0.  1.
         11   -1    0    0    0    0 -0.00000000000E+00 -0.00000000000E+00 -0.45593999997E+02  0.45594000000E+02  0.51100000000E-03 0. -1.
    9900012    2    1    2    0    0 -0.27403826560E+02 -0.30033483471E+02 -0.43371655962E+00  0.50528831912E+02  0.29999915081E+02 0.  0.
        -12    1    1    2    0    0  0.27403826560E+02  0.30033483471E+02  0.43371655962E+00  0.40659168088E+02  0.00000000000E+00 0.  1.
         11    1    3    3    0    0 -0.12647333449E+02 -0.18470982237E+02 -0.79886549988E+01  0.23768694477E+02  0.51100000000E-03 0. -1.
        -11    1    3    3    0    0 -0.15635383766E+02 -0.15017265537E+02  0.46752170045E+01  0.22177491833E+02  0.51100000000E-03 0.  1.
        -12    1    3    3    0    0  0.87889065576E+00  0.34547643028E+01  0.28797214347E+01  0.45826456021E+01  0.00000000000E+00 0.  1.
</event>
<event>
 7    1  0.2817603E-011  0.5052888E+02  0.7816164E-02  0.1300439E+00
        -11   -1    0    0    0    0  0.00000000000E+00  0.00000000000E+00  0.45593999997E+02  0.45594000000E+02  0.51100000000E-03 0.  1.
         11   -1    0    0    0    0 -0.00000000000E+00 -0.00000000000E+00 -0.45593999997E+02  0.45594000000E+02  0.51100000000E-03 0. -1.
    9900012    2    1    2    0    0 -0.15814423331E+02 -0.23401084141E+02 -0.29248201269E+02  0.50528880460E+02  0.30000062647E+02 0.  0.
        -12    1    1    2    0    0  0.15814423331E+02  0.23401084141E+02  0.29248201269E+02  0.40659119540E+02  0.00000000000E+00 0.  1.
         11    1    3    3    0    0  0.16622095266E+01 -0.83660537792E+00 -0.41347000121E+01  0.45341585239E+01  0.51100000000E-03 0. -1.
        -11    1    3    3    0    0  0.27589397845E+01  0.34738727926E+01 -0.72255503737E+01  0.84786861823E+01  0.51100000000E-03 0.  1.
         12    1    3    3    0    0 -0.20235572642E+02 -0.26038351555E+02 -0.17887950883E+02  0.37516035754E+02  0.00000000000E+00 0. -1.
</event>
<event>
 7    1  0.2817603E-011  0.5052886E+02  0.7816164E-02  0.1300439E+00
        -11   -1    0    0    0    0  0.00000000000E+00  0.00000000000E+00  0.45593999997E+02  0.45594000000E+02  0.51100000000E-03 0. -1.
         11   -1    0    0    0    0 -0.00000000000E+00 -0.00000000000E+00 -0.45593999997E+02  0.45594000000E+02  0.51100000000E-03 0.  1.
    9900012    2    1    2    0    0  0.32954100740E+02  0.23146726626E+02  0.56055029205E+01  0.50528863609E+02  0.30000011426E+02 0.  0.
        -12    1    1    2    0    0 -0.32954100740E+02 -0.23146726626E+02 -0.56055029205E+01  0.40659136391E+02  0.00000000000E+00 0.  1.
         11    1    3    3    0    0  0.67082501006E+01  0.78070743362E+01 -0.73213651235E+01  0.12631445548E+02  0.51100000000E-03 0. -1.
        -11    1    3    3    0    0  0.16597722665E+02  0.79740671641E+01 -0.21528901020E+01  0.18539284799E+02  0.51100000000E-03 0.  1.
        -12    1    3    3    0    0  0.96481279739E+01  0.73655851256E+01  0.15079758146E+02  0.19358133262E+02  0.00000000000E+00 0.  1.
</event>
<event>
 7    1  0.2989437E-011  0.5052892E+02  0.7816164E-02  0.1300439E+00
        -11   -1    0    0    0    0  0.00000000000E+00  0.00000000000E+00  0.45593999997E+02  0.45594000000E+02  0.51100000000E-03 0. -1.
         11   -1    0    0    0    0 -0.00000000000E+00 -0.00000000000E+00 -0.45593999997E+02  0.45594000000E+02  0.51100000000E-03 0.  1.
    9900012    2    1    2    0    0  0.78966716825E+01 -0.35667750592E+02  0.17849790664E+02  0.50528918816E+02  0.30000179233E+02 0.  0.
        -12    1    1    2    0    0 -0.78966716825E+01  0.35667750592E+02 -0.17849790664E+02  0.40659081184E+02  0.00000000000E+00 0.  1.
         11    1    3    3    0    0  0.19016310397E+01 -0.26991620112E+02  0.12161157938E+02  0.29665763424E+02  0.51100000000E-03 0. -1.
        -11    1    3    3    0    0 -0.47912682260E+01 -0.42545475246E+01 -0.22143148273E+01  0.67794259542E+01  0.51100000000E-03 0.  1.
        -12    1    3    3    0    0  0.10786308869E+02 -0.44215829557E+01  0.79029475537E+01  0.14083729438E+02  0.00000000000E+00 0.  1.
</event>
<event>
 7    1  0.2817603E-011  0.5052885E+02  0.7816164E-02  0.1300439E+00
        -11   -1    0    0    0    0  0.00000000000E+00  0.00000000000E+00  0.45593999997E+02  0.45594000000E+02  0.51100000000E-03 0. -1.
         11   -1    0    0    0    0 -0.00000000000E+00 -0.00000000000E+00 -0.45593999997E+02  0.45594000000E+02  0.51100000000E-03 0.  1.
    9900012    2    1    2    0    0 -0.36371378144E+01 -0.10178950511E+02  0.39196003047E+02  0.50528850232E+02  0.29999970764E+02 0.  0.
        -12    1    1    2    0    0  0.36371378144E+01  0.10178950511E+02 -0.39196003047E+02  0.40659149768E+02  0.00000000000E+00 0.  1.
         11    1    3    3    0    0  0.15553790162E+01 -0.31834192853E+00  0.34343161740E+01  0.37835265707E+01  0.51100000000E-03 0. -1.
        -11    1    3    3    0    0  0.10029773353E+02  0.18399410238E+01  0.17464325117E+02  0.20223362444E+02  0.51100000000E-03 0.  1.
         12    1    3    3    0    0 -0.15222290184E+02 -0.11700549607E+02  0.18297361757E+02  0.26521961217E+02  0.00000000000E+00 0. -1.
</event>
<event>
 7    1  0.2817603E-011  0.5052888E+02  0.7816164E-02  0.1300439E+00
        -11   -1    0    0    0    0  0.00000000000E+00  0.00000000000E+00  0.45593999997E+02  0.45594000000E+02  0.51100000000E-03 0. -1.
         11   -1    0    0    0    0 -0.00000000000E+00 -0.00000000000E+00 -0.45593999997E+02  0.45594000000E+02  0.51100000000E-03 0.  1.
    9900012    2    1    2    0    0 -0.94091648581E+01 -0.28379447328E+02  0.27554289815E+02  0.50528876778E+02  0.30000051455E+02 0.  0.
        -12    1    1    2    0    0  0.94091648581E+01  0.28379447328E+02 -0.27554289815E+02  0.40659123222E+02  0.00000000000E+00 0.  1.
         11    1    3    3    0    0 -0.16219919795E+00 -0.20041358151E+02  0.18385860069E+02  0.27197834396E+02  0.51100000000E-03 0. -1.
        -11    1    3    3    0    0 -0.11011523967E+02 -0.60036619688E+01  0.13291789913E+02  0.18274826852E+02  0.51100000000E-03 0.  1.
         12    1    3    3    0    0  0.17645583073E+01 -0.23344272085E+01 -0.41233601675E+01  0.50562155297E+01  0.00000000000E+00 0. -1.
</event>
<event>
 7    1  0.2817603E-011  0.5052886E+02  0.7816164E-02  0.1300439E+00
        -11   -1    0    0    0    0  0.00000000000E+00  0.00000000000E+00  0.45593999997E+02  0.45594000000E+02  0.51100000000E-03 0.  1.
         11   -1    0    0    0    0 -0.00000000000E+00 -0.00000000000E+00 -0.45593999997E+02  0.45594000000E+02  0.51100000000E-03 0. -1.
    9900012    2    1    2    0    0 -0.36098955313E+02 -0.11635847920E+02 -0.14650522412E+02  0.50528864022E+02  0.30000012681E+02 0.  0.
        -12    1    1    2    0    0  0.36098955313E+02  0.11635847920E+02  0.14650522412E+02  0.40659135978E+02  0.00000000000E+00 0.  1.
         11    1    3    3    0    0 -0.11697039865E+02 -0.96150910756E+01  0.53758009789E-01  0.15141783520E+02  0.51100000000E-03 0. -1.
        -11    1    3    3    0    0  0.49559072041E+00 -0.38199080973E+01  0.29169095898E+01  0.48317356975E+01  0.51100000000E-03 0.  1.
        -12    1    3    3    0    0 -0.24897506169E+02  0.17991512524E+01 -0.17621190012E+02  0.30555344804E+02  0.00000000000E+00 0.  1.
</event>
<event>
 7    1  0.2817603E-011  0.5052895E+02  0.7816164E-02  0.1300438E+00
        -11   -1    0    0    0    0  0.00000000000E+00  0.00000000000E+00  0.45593999997E+02  0.45594000000E+02  0.51100000000E-03 0.  1.
         11   -1    0    0    0    0 -0.00000000000E+00 -0.00000000000E+00 -0.45593999997E+02  0.45594000000E+02  0.51100000000E-03 0. -1.
    9900012    2    1    2    0    0 -0.21725385123E+02  0.33107903390E+02 -0.92213367843E+01  0.50528945932E+02  0.30000261655E+02 0.  0.
        -12    1    1    2    0    0  0.21725385123E+02 -0.33107903390E+02  0.92213367843E+01  0.40659054068E+02  0.00000000000E+00 0.  1.
         11    1    3    3    0    0 -0.13924343291E+02  0.11900146881E+02  0.19177005800E+01  0.18416796889E+02  0.51100000000E-03 0.  1.
        -11    1    3    3    0    0 -0.37989516399E+00  0.17617024023E+02  0.75846487214E+00  0.17637435329E+02  0.51100000000E-03 0. -1.
         12    1    3    3    0    0 -0.74211466673E+01  0.35907324856E+01 -0.11897502236E+02  0.14474713714E+02  0.00000000000E+00 0. -1.
</event>
<event>
 7    1  0.2817603E-011  0.5052886E+02  0.7816164E-02  0.1300439E+00
        -11   -1    0    0    0    0  0.00000000000E+00  0.00000000000E+00  0.45593999997E+02  0.45594000000E+02  0.51100000000E-03 0.  1.
         11   -1    0    0    0    0 -0.00000000000E+00 -0.00000000000E+00 -0.45593999997E+02  0.45594000000E+02  0.51100000000E-03 0. -1.
    9900012    2    1    2    0    0 -0.18348251767E+02 -0.56854535542E+00 -0.36279251979E+02  0.50528859443E+02  0.29999998762E+02 0.  0.
        -12    1    1    2    0    0  0.18348251767E+02  0.56854535542E+00  0.36279251979E+02  0.40659140557E+02  0.00000000000E+00 0.  1.
         11    1    3    3    0    0 -0.17873743142E+01  0.56654478589E+01 -0.82875427369E+01  0.10196831432E+02  0.51100000000E-03 0. -1.
        -11    1    3    3    0    0 -0.12396296727E+02 -0.14616884171E+02 -0.22183598839E+02  0.29316096826E+02  0.51100000000E-03 0.  1.
         12    1    3    3    0    0 -0.41645807262E+01  0.83828909564E+01 -0.58081104026E+01  0.11015931184E+02  0.00000000000E+00 0. -1.
</event>
<event>
 7    1  0.2817603E-011  0.5052887E+02  0.7816164E-02  0.1300439E+00
        -11   -1    0    0    0    0  0.00000000000E+00  0.00000000000E+00  0.45593999997E+02  0.45594000000E+02  0.51100000000E-03 0.  1.
         11   -1    0    0    0    0 -0.00000000000E+00 -0.00000000000E+00 -0.45593999997E+02  0.45594000000E+02  0.51100000000E-03 0. -1.
    9900012    2    1    2    0    0  0.11690640449E+02 -0.38932781148E+02  0.85595496449E+00  0.50528865959E+02  0.30000018570E+02 0.  0.
        -12    1    1    2    0    0 -0.11690640449E+02  0.38932781148E+02 -0.85595496449E+00  0.40659134041E+02  0.00000000000E+00 0.  1.
         11    1    3    3    0    0  0.10141049945E+02 -0.16617315113E+01 -0.34348950647E+01  0.10835162665E+02  0.51100000000E-03 0. -1.
        -11    1    3    3    0    0  0.50489205601E+01 -0.63987909224E+01  0.26872834679E+01  0.85824015746E+01  0.51100000000E-03 0.  1.
         12    1    3    3    0    0 -0.34993300570E+01 -0.30872258714E+02  0.16035665612E+01  0.31111301720E+02  0.00000000000E+00 0. -1.
</event>
<event>
 7    1  0.2817603E-011  0.5052885E+02  0.7816164E-02  0.1300439E+00
        -11   -1    0    0    0    0  0.00000000000E+00  0.00000000000E+00  0.45593999997E+02  0.45594000000E+02  0.51100000000E-03 0.  1.
         11   -1    0    0    0    0 -0.00000000000E+00 -0.00000000000E+00 -0.45593999997E+02  0.45594000000E+02  0.51100000000E-03 0. -1.
    9900012    2    1    2    0    0 -0.18339392473E+02  0.21804017494E+02 -0.29007200329E+02  0.50528853845E+02  0.29999981747E+02 0.  0.
        -12    1    1    2    0    0  0.18339392473E+02 -0.21804017494E+02  0.29007200329E+02  0.40659146155E+02  0.00000000000E+00 0.  1.
         11    1    3    3    0    0 -0.17227499183E+01 -0.42512277209E+01 -0.10320964159E+02  0.11294383819E+02  0.51100000000E-03 0. -1.
        -11    1    3    3    0    0 -0.23107029832E+00  0.14361244398E+02 -0.81178939970E+01  0.16498452574E+02  0.51100000000E-03 0.  1.
        -12    1    3    3    0    0 -0.16385572257E+02  0.11694000817E+02 -0.10568342173E+02  0.22736017452E+02  0.00000000000E+00 0.  1.
</event>
<event>
 7    1  0.2817603E-011  0.5052885E+02  0.7816164E-02  0.1300439E+00
        -11   -1    0    0    0    0  0.00000000000E+00  0.00000000000E+00  0.45593999997E+02  0.45594000000E+02  0.51100000000E-03 0.  1.
         11   -1    0    0    0    0 -0.00000000000E+00 -0.00000000000E+00 -0.45593999997E+02  0.45594000000E+02  0.51100000000E-03 0. -1.
    9900012    2    1    2    0    0  0.32981731562E+02  0.19734626425E+01 -0.23695506619E+02  0.50528853359E+02  0.29999980270E+02 0.  0.
        -12    1    1    2    0    0 -0.32981731562E+02 -0.19734626425E+01  0.23695506619E+02  0.40659146641E+02  0.00000000000E+00 0.  1.
         11    1    3    3    0    0  0.12222893263E+02  0.67264690246E+01 -0.22455142140E+01  0.14131059394E+02  0.51100000000E-03 0. -1.
        -11    1    3    3    0    0  0.10262864638E+02  0.78418862589E+01 -0.10909838494E+02  0.16906985151E+02  0.51100000000E-03 0.  1.
        -12    1    3    3    0    0  0.10495973661E+02 -0.12594892641E+02 -0.10540153911E+02  0.19490808813E+02  0.00000000000E+00 0.  1.
</event>
<event>
 7    1  0.2817603E-011  0.5052886E+02  0.7816164E-02  0.1300439E+00
        -11   -1    0    0    0    0  0.00000000000E+00  0.00000000000E+00  0.45593999997E+02  0.45594000000E+02  0.51100000000E-03 0.  1.
         11   -1    0    0    0    0 -0.00000000000E+00 -0.00000000000E+00 -0.45593999997E+02  0.45594000000E+02  0.51100000000E-03 0. -1.
    9900012    2    1    2    0    0 -0.36307472654E+02 -0.17554586564E+02  0.51739433880E+01  0.50528858714E+02  0.29999996547E+02 0.  0.
        -12    1    1    2    0    0  0.36307472654E+02  0.17554586564E+02 -0.51739433880E+01  0.40659141286E+02  0.00000000000E+00 0.  1.
         11    1    3    3    0    0 -0.22993220098E+02 -0.49595069130E+01  0.69336706252E+01  0.24522656216E+02  0.51100000000E-03 0. -1.
        -11    1    3    3    0    0  0.16965832259E+01 -0.22736022249E+01  0.56639556526E+01  0.63346709161E+01  0.51100000000E-03 0.  1.
        -12    1    3    3    0    0 -0.15010835782E+02 -0.10321477426E+02 -0.74236828897E+01  0.19671531582E+02  0.00000000000E+00 0.  1.
</event>
<event>
 7    1  0.2817603E-011  0.5052888E+02  0.7816164E-02  0.1300439E+00
        -11   -1    0    0    0    0  0.00000000000E+00  0.00000000000E+00  0.45593999997E+02  0.45594000000E+02  0.51100000000E-03 0. -1.
         11   -1    0    0    0    0 -0.00000000000E+00 -0.00000000000E+00 -0.45593999997E+02  0.45594000000E+02  0.51100000000E-03 0.  1.
    9900012    2    1    2    0    0 -0.33092736549E+02 -0.22966864030E+02 -0.55278921842E+01  0.50528884814E+02  0.30000075882E+02 0.  0.
        -12    1    1    2    0    0  0.33092736549E+02  0.22966864030E+02  0.55278921842E+01  0.40659115186E+02  0.00000000000E+00 0.  1.
         11    1    3    3    0    0 -0.25463952090E+02 -0.20530581558E+02 -0.51853009496E+01  0.33118046158E+02  0.51100000000E-03 0. -1.
        -11    1    3    3    0    0 -0.49729777461E+01 -0.88762962957E+01 -0.16949371940E+01  0.10314647640E+02  0.51100000000E-03 0.  1.
        -12    1    3    3    0    0 -0.26558067127E+01  0.64400138231E+01  0.13523459594E+01  0.70961910157E+01  0.00000000000E+00 0.  1.
</event>
<event>
 7    1  0.2817603E-011  0.5052887E+02  0.7816164E-02  0.1300439E+00
        -11   -1    0    0    0    0  0.00000000000E+00  0.00000000000E+00  0.45593999997E+02  0.45594000000E+02  0.51100000000E-03 0.  1.
         11   -1    0    0    0    0 -0.00000000000E+00 -0.00000000000E+00 -0.45593999997E+02  0.45594000000E+02  0.51100000000E-03 0. -1.
    9900012    2    1    2    0    0  0.51376741265E+01 -0.33904897993E+02 -0.21845521714E+02  0.50528872830E+02  0.30000039453E+02 0.  0.
        -12    1    1    2    0    0 -0.51376741265E+01  0.33904897993E+02  0.21845521714E+02  0.40659127170E+02  0.00000000000E+00 0.  1.
         11    1    3    3    0    0 -0.49620455347E+01  0.14234542365E+01 -0.90919651894E+00  0.52416368076E+01  0.51100000000E-03 0. -1.
        -11    1    3    3    0    0  0.13049345753E+02 -0.18773155138E+02 -0.85809281089E+01  0.24420260152E+02  0.51100000000E-03 0.  1.
         12    1    3    3    0    0 -0.29496260919E+01 -0.16555197091E+02 -0.12355397086E+02  0.20866975870E+02  0.00000000000E+00 0. -1.
</event>
<event>
 7    1  0.2817603E-011  0.5052886E+02  0.7816164E-02  0.1300439E+00
        -11   -1    0    0    0    0  0.00000000000E+00  0.00000000000E+00  0.45593999997E+02  0.45594000000E+02  0.51100000000E-03 0.  1.
         11   -1    0    0    0    0 -0.00000000000E+00 -0.00000000000E+00 -0.45593999997E+02  0.45594000000E+02  0.51100000000E-03 0. -1.
    9900012    2    1    2    0    0 -0.25560960047E+02 -0.17280530312E+02 -0.26479918772E+02  0.50528861979E+02  0.30000006471E+02 0.  0.
        -12    1    1    2    0    0  0.25560960047E+02  0.17280530312E+02  0.26479918772E+02  0.40659138021E+02  0.00000000000E+00 0.  1.
         11    1    3    3    0    0 -0.97754267325E+01 -0.15132131987E+02 -0.20123817358E+02  0.27009413388E+02  0.51100000000E-03 0. -1.
        -11    1    3    3    0    0 -0.53344277613E+01 -0.14769584959E+01 -0.10805587741E+02  0.12140768206E+02  0.51100000000E-03 0.  1.
        -12    1    3    3    0    0 -0.10451105553E+02 -0.67143982975E+00  0.44494863263E+01  0.11378680385E+02  0.00000000000E+00 0.  1.
</event>
<event>
 7    1  0.2817603E-011  0.5052886E+02  0.7816164E-02  0.1300439E+00
        -11   -1    0    0    0    0  0.00000000000E+00  0.00000000000E+00  0.45593999997E+02  0.45594000000E+02  0.51100000000E-03 0.  1.
         11   -1    0    0    0    0 -0.00000000000E+00 -0.00000000000E+00 -0.45593999997E+02  0.45594000000E+02  0.51100000000E-03 0. -1.
    9900012    2    1    2    0    0  0.28874296578E+02 -0.28077289636E+02  0.55773481398E+01  0.50528855783E+02  0.29999987639E+02 0.  0.
        -12    1    1    2    0    0 -0.28874296578E+02  0.28077289636E+02 -0.55773481398E+01  0.40659144217E+02  0.00000000000E+00 0.  1.
         11    1    3    3    0    0 -0.42382841194E+01 -0.42119851132E+00 -0.21168742476E+01  0.47562188032E+01  0.51100000000E-03 0. -1.
        -11    1    3    3    0    0  0.46707657145E+01 -0.10412435659E+02  0.48189917039E+01  0.12387798433E+02  0.51100000000E-03 0.  1.
        -12    1    3    3    0    0  0.28441814982E+02 -0.17243655466E+02  0.28752306836E+01  0.33384838547E+02  0.00000000000E+00 0.  1.
</event>
<event>
 7    1  0.2817603E-011  0.5052887E+02  0.7816164E-02  0.1300439E+00
        -11   -1    0    0    0    0  0.00000000000E+00  0.00000000000E+00  0.45593999997E+02  0.45594000000E+02  0.51100000000E-03 0.  1.
         11   -1    0    0    0    0 -0.00000000000E+00 -0.00000000000E+00 -0.45593999997E+02  0.45594000000E+02  0.51100000000E-03 0. -1.
    9900012    2    1    2    0    0 -0.50551215666E+01 -0.40298526913E+02 -0.19076481032E+01  0.50528872530E+02  0.30000038541E+02 0.  0.
        -12    1    1    2    0    0  0.50551215666E+01  0.40298526913E+02  0.19076481032E+01  0.40659127470E+02  0.00000000000E+00 0.  1.
         11    1    3    3    0    0  0.32148417660E+01 -0.17176259537E+02 -0.38661804746E+01  0.17897107336E+02  0.51100000000E-03 0. -1.
        -11    1    3    3    0    0  0.69228633806E+01 -0.92953454154E+01  0.32838124239E+01  0.12046281919E+02  0.51100000000E-03 0.  1.
        -12    1    3    3    0    0 -0.15192826713E+02 -0.13826921960E+02 -0.13252800524E+01  0.20585483274E+02  0.00000000000E+00 0.  1.
</event>
<event>
 7    1  0.2817603E-011  0.5052885E+02  0.7816164E-02  0.1300439E+00
        -11   -1    0    0    0    0  0.00000000000E+00  0.00000000000E+00  0.45593999997E+02  0.45594000000E+02  0.51100000000E-03 0. -1.
         11   -1    0    0    0    0 -0.00000000000E+00 -0.00000000000E+00 -0.45593999997E+02  0.45594000000E+02  0.51100000000E-03 0.  1.
    9900012    2    1    2    0    0  0.46860975082E+01 -0.22741620590E+02  0.33377018638E+02  0.50528853550E+02  0.29999980851E+02 0.  0.
        -12    1    1    2    0    0 -0.46860975082E+01  0.22741620590E+02 -0.33377018638E+02  0.40659146450E+02  0.00000000000E+00 0.  1.
         11    1    3    3    0    0  0.41368368530E+01 -0.22118818422E+01  0.88199118398E+00  0.47732325674E+01  0.51100000000E-03 0.  1.
        -11    1    3    3    0    0 -0.79472113938E+01  0.17031812742E+01  0.11058998966E+02  0.13724447303E+02  0.51100000000E-03 0. -1.
         12    1    3    3    0    0  0.84964720490E+01 -0.22232920022E+02  0.21436028488E+02  0.32031173680E+02  0.00000000000E+00 0. -1.
</event>
<event>
 7    1  0.2817603E-011  0.5052886E+02  0.7816164E-02  0.1300439E+00
        -11   -1    0    0    0    0  0.00000000000E+00  0.00000000000E+00  0.45593999997E+02  0.45594000000E+02  0.51100000000E-03 0.  1.
         11   -1    0    0    0    0 -0.00000000000E+00 -0.00000000000E+00 -0.45593999997E+02  0.45594000000E+02  0.51100000000E-03 0. -1.
    9900012    2    1    2    0    0 -0.28900296713E+02  0.18079509794E+02 -0.22160101629E+02  0.50528856764E+02  0.29999990619E+02 0.  0.
        -12    1    1    2    0    0  0.28900296713E+02 -0.18079509794E+02  0.22160101629E+02  0.40659143236E+02  0.00000000000E+00 0.  1.
         11    1    3    3    0    0 -0.83818319329E+01  0.10440640666E+01 -0.30760832039E+01  0.89892972175E+01  0.51100000000E-03 0.  1.
        -11    1    3    3    0    0 -0.20204934408E+02  0.12195392232E+01 -0.62964584734E+01  0.21198397107E+02  0.51100000000E-03 0. -1.
        -12    1    3    3    0    0 -0.31353037256E+00  0.15815906505E+02 -0.12787559952E+02  0.20341162439E+02  0.00000000000E+00 0.  1.
</event>
<event>
 7    1  0.2817603E-011  0.5052886E+02  0.7816164E-02  0.1300439E+00
        -11   -1    0    0    0    0  0.00000000000E+00  0.00000000000E+00  0.45593999997E+02  0.45594000000E+02  0.51100000000E-03 0. -1.
         11   -1    0    0    0    0 -0.00000000000E+00 -0.00000000000E+00 -0.45593999997E+02  0.45594000000E+02  0.51100000000E-03 0.  1.
    9900012    2    1    2    0    0 -0.30938342262E+02 -0.61405401495E+01  0.25656937164E+02  0.50528859824E+02  0.29999999922E+02 0.  0.
        -12    1    1    2    0    0  0.30938342262E+02  0.61405401495E+01 -0.25656937164E+02  0.40659140176E+02  0.00000000000E+00 0.  1.
         11    1    3    3    0    0 -0.31269258899E+01 -0.66930043948E+01  0.18355315457E+02  0.19786146142E+02  0.51100000000E-03 0. -1.
        -11    1    3    3    0    0 -0.10424585546E+01  0.46595078375E+00  0.35289361309E+01  0.37090727207E+01  0.51100000000E-03 0.  1.
         12    1    3    3    0    0 -0.26768957817E+02  0.86513461484E-01  0.37726855753E+01  0.27033640962E+02  0.00000000000E+00 0. -1.
</event>
<event>
 7    1  0.2817603E-011  0.5052885E+02  0.7816164E-02  0.1300439E+00
        -11   -1    0    0    0    0  0.00000000000E+00  0.00000000000E+00  0.45593999997E+02  0.45594000000E+02  0.51100000000E-03 0.  1.
         11   -1    0    0    0    0 -0.00000000000E+00 -0.00000000000E+00 -0.45593999997E+02  0.45594000000E+02  0.51100000000E-03 0. -1.
    9900012    2    1    2    0    0 -0.12377208633E+02 -0.35584075501E+02 -0.15288713772E+02  0.50528849842E+02  0.29999969579E+02 0.  0.
        -12    1    1    2    0    0  0.12377208633E+02  0.35584075501E+02  0.15288713772E+02  0.40659150158E+02  0.00000000000E+00 0.  1.
         11    1    3    3    0    0 -0.59967088134E+01 -0.27269829169E+00 -0.10996333037E+02  0.12528137191E+02  0.51100000000E-03 0. -1.
        -11    1    3    3    0    0 -0.61124593899E+01 -0.16020341038E+02 -0.69963622554E+01  0.18519248684E+02  0.51100000000E-03 0.  1.
        -12    1    3    3    0    0 -0.26804042931E+00 -0.19291036171E+02  0.27039815198E+01  0.19481463967E+02  0.00000000000E+00 0.  1.
</event>
<event>
 7    1  0.2817603E-011  0.5052873E+02  0.7816164E-02  0.1300439E+00
        -11   -1    0    0    0    0  0.00000000000E+00  0.00000000000E+00  0.45593999997E+02  0.45594000000E+02  0.51100000000E-03 0.  1.
         11   -1    0    0    0    0 -0.00000000000E+00 -0.00000000000E+00 -0.45593999997E+02  0.45594000000E+02  0.51100000000E-03 0. -1.
    9900012    2    1    2    0    0 -0.93566888167E+01  0.22412343975E+02 -0.32608521718E+02  0.50528727052E+02  0.29999596344E+02 0.  0.
        -12    1    1    2    0    0  0.93566888167E+01 -0.22412343975E+02  0.32608521718E+02  0.40659272948E+02  0.00000000000E+00 0.  1.
         11    1    3    3    0    0  0.33740957583E+01  0.15042180128E+01  0.32125176937E+01  0.48956576892E+01  0.51100000000E-03 0. -1.
        -11    1    3    3    0    0  0.33978709912E+00  0.32506790593E+01 -0.15045913706E+02  0.15396814252E+02  0.51100000000E-03 0.  1.
         12    1    3    3    0    0 -0.13070571674E+02  0.17657446903E+02 -0.20775125705E+02  0.30236255110E+02  0.00000000000E+00 0. -1.
</event>
<event>
 7    1  0.2817603E-011  0.5052886E+02  0.7816164E-02  0.1300439E+00
        -11   -1    0    0    0    0  0.00000000000E+00  0.00000000000E+00  0.45593999997E+02  0.45594000000E+02  0.51100000000E-03 0.  1.
         11   -1    0    0    0    0 -0.00000000000E+00 -0.00000000000E+00 -0.45593999997E+02  0.45594000000E+02  0.51100000000E-03 0. -1.
    9900012    2    1    2    0    0  0.25983367566E+02 -0.27316585456E+02 -0.15226113581E+02  0.50528858767E+02  0.29999996707E+02 0.  0.
        -12    1    1    2    0    0 -0.25983367566E+02  0.27316585456E+02  0.15226113581E+02  0.40659141233E+02  0.00000000000E+00 0.  1.
         11    1    3    3    0    0  0.60847807738E+01 -0.17569805020E+02 -0.11155424938E+02  0.21683314122E+02  0.51100000000E-03 0. -1.
        -11    1    3    3    0    0  0.20980497047E+02 -0.88602036956E+01 -0.84165765878E+01  0.24280099415E+02  0.51100000000E-03 0.  1.
        -12    1    3    3    0    0 -0.10819102553E+01 -0.88657674096E+00  0.43458879447E+01  0.45654452298E+01  0.00000000000E+00 0.  1.
</event>
<event>
 7    1  0.2817603E-011  0.5052887E+02  0.7816164E-02  0.1300439E+00
        -11   -1    0    0    0    0  0.00000000000E+00  0.00000000000E+00  0.45593999997E+02  0.45594000000E+02  0.51100000000E-03 0. -1.
         11   -1    0    0    0    0 -0.00000000000E+00 -0.00000000000E+00 -0.45593999997E+02  0.45594000000E+02  0.51100000000E-03 0.  1.
    9900012    2    1    2    0    0  0.79374623090E+01  0.29564490444E+02  0.26760096947E+02  0.50528865827E+02  0.30000018167E+02 0.  0.
        -12    1    1    2    0    0 -0.79374623090E+01 -0.29564490444E+02 -0.26760096947E+02  0.40659134173E+02  0.00000000000E+00 0.  1.
         11    1    3    3    0    0  0.93458592569E+01  0.22287861158E+02  0.16408810868E+02  0.29212033730E+02  0.51100000000E-03 0. -1.
        -11    1    3    3    0    0  0.39689401988E+01  0.10419413754E+02  0.10161556088E+02  0.15085552415E+02  0.51100000000E-03 0.  1.
        -12    1    3    3    0    0 -0.53773371467E+01 -0.31427844686E+01  0.18972999088E+00  0.62312796819E+01  0.00000000000E+00 0.  1.
</event>
<event>
 7    1  0.2817603E-011  0.5052885E+02  0.7816164E-02  0.1300439E+00
        -11   -1    0    0    0    0  0.00000000000E+00  0.00000000000E+00  0.45593999997E+02  0.45594000000E+02  0.51100000000E-03 0.  1.
         11   -1    0    0    0    0 -0.00000000000E+00 -0.00000000000E+00 -0.45593999997E+02  0.45594000000E+02  0.51100000000E-03 0. -1.
    9900012    2    1    2    0    0 -0.12996486941E+02 -0.27950278406E+02 -0.26514893585E+02  0.50528851981E+02  0.29999976082E+02 0.  0.
        -12    1    1    2    0    0  0.12996486941E+02  0.27950278406E+02  0.26514893585E+02  0.40659148019E+02  0.00000000000E+00 0.  1.
         11    1    3    3    0    0 -0.79855019700E+01 -0.21883929242E+02 -0.15997618675E+02  0.28259483441E+02  0.51100000000E-03 0. -1.
        -11    1    3    3    0    0 -0.60656284416E+01 -0.25749327913E+01 -0.15063030020E+02  0.16441319926E+02  0.51100000000E-03 0.  1.
        -12    1    3    3    0    0  0.10546434704E+01 -0.34914163724E+01  0.45457551098E+01  0.58280486145E+01  0.00000000000E+00 0.  1.
</event>
<event>
 7    1  0.2817603E-011  0.5052886E+02  0.7816164E-02  0.1300439E+00
        -11   -1    0    0    0    0  0.00000000000E+00  0.00000000000E+00  0.45593999997E+02  0.45594000000E+02  0.51100000000E-03 0. -1.
         11   -1    0    0    0    0 -0.00000000000E+00 -0.00000000000E+00 -0.45593999997E+02  0.45594000000E+02  0.51100000000E-03 0.  1.
    9900012    2    1    2    0    0 -0.19376768448E+02 -0.33933253833E+02  0.11235697481E+02  0.50528858727E+02  0.29999996587E+02 0.  0.
        -12    1    1    2    0    0  0.19376768448E+02  0.33933253833E+02 -0.11235697481E+02  0.40659141273E+02  0.00000000000E+00 0.  1.
         11    1    3    3    0    0 -0.72007349311E+01 -0.70310764774E+01 -0.73254032119E+01  0.12447817176E+02  0.51100000000E-03 0.  1.
        -11    1    3    3    0    0  0.27846220166E+01 -0.33669983140E+01 -0.35421721995E+00  0.43836363355E+01  0.51100000000E-03 0. -1.
        -12    1    3    3    0    0 -0.14960655533E+02 -0.23535179041E+02  0.18915317913E+02  0.33697405215E+02  0.00000000000E+00 0.  1.
</event>
<event>
 7    1  0.2817603E-011  0.5052886E+02  0.7816164E-02  0.1300439E+00
        -11   -1    0    0    0    0  0.00000000000E+00  0.00000000000E+00  0.45593999997E+02  0.45594000000E+02  0.51100000000E-03 0.  1.
         11   -1    0    0    0    0 -0.00000000000E+00 -0.00000000000E+00 -0.45593999997E+02  0.45594000000E+02  0.51100000000E-03 0. -1.
    9900012    2    1    2    0    0  0.21546018500E+02 -0.32830567408E+02 -0.10539847184E+02  0.50528862673E+02  0.30000008580E+02 0.  0.
        -12    1    1    2    0    0 -0.21546018500E+02  0.32830567408E+02  0.10539847184E+02  0.40659137327E+02  0.00000000000E+00 0.  1.
         11    1    3    3    0    0 -0.30633929788E+00 -0.48647104049E+01  0.30324852728E+01  0.57406635748E+01  0.51100000000E-03 0. -1.
        -11    1    3    3    0    0 -0.28424109889E+01  0.22011985545E+01 -0.30989108287E+00  0.36084079662E+01  0.51100000000E-03 0.  1.
        -12    1    3    3    0    0  0.24694768787E+02 -0.30167055558E+02 -0.13262441374E+02  0.41179791132E+02  0.00000000000E+00 0.  1.
</event>
<event>
 7    1  0.2817603E-011  0.5052886E+02  0.7816164E-02  0.1300439E+00
        -11   -1    0    0    0    0  0.00000000000E+00  0.00000000000E+00  0.45593999997E+02  0.45594000000E+02  0.51100000000E-03 0.  1.
         11   -1    0    0    0    0 -0.00000000000E+00 -0.00000000000E+00 -0.45593999997E+02  0.45594000000E+02  0.51100000000E-03 0. -1.
    9900012    2    1    2    0    0  0.12936179416E+02 -0.32803393985E+01 -0.38406516089E+02  0.50528857823E+02  0.29999993839E+02 0.  0.
        -12    1    1    2    0    0 -0.12936179416E+02  0.32803393985E+01  0.38406516089E+02  0.40659142177E+02  0.00000000000E+00 0.  1.
         11    1    3    3    0    0  0.16154623514E+02 -0.77054781914E+01 -0.32424533933E+02  0.37036423370E+02  0.51100000000E-03 0. -1.
        -11    1    3    3    0    0 -0.98782026232E+00 -0.30611788132E+01 -0.45160811023E+01  0.55445102021E+01  0.51100000000E-03 0.  1.
        -12    1    3    3    0    0 -0.22306238357E+01  0.74863176061E+01 -0.14659010536E+01  0.79479242507E+01  0.00000000000E+00 0.  1.
</event>
<event>
 7    1  0.2817603E-011  0.5052886E+02  0.7816164E-02  0.1300439E+00
        -11   -1    0    0    0    0  0.00000000000E+00  0.00000000000E+00  0.45593999997E+02  0.45594000000E+02  0.51100000000E-03 0. -1.
         11   -1    0    0    0    0 -0.00000000000E+00 -0.00000000000E+00 -0.45593999997E+02  0.45594000000E+02  0.51100000000E-03 0.  1.
    9900012    2    1    2    0    0 -0.28998512988E+02  0.90214968245E+01  0.27034507565E+02  0.50528858842E+02  0.29999996936E+02 0.  0.
        -12    1    1    2    0    0  0.28998512988E+02 -0.90214968245E+01 -0.27034507565E+02  0.40659141158E+02  0.00000000000E+00 0.  1.
         11    1    3    3    0    0  0.60888896623E+01  0.18404390159E+00  0.37927527407E+01  0.71758917976E+01  0.51100000000E-03 0. -1.
        -11    1    3    3    0    0 -0.46635277766E+01 -0.34037488784E-01  0.14178299281E+01  0.48744119481E+01  0.51100000000E-03 0.  1.
         12    1    3    3    0    0 -0.30423874873E+02  0.88714904117E+01  0.21823924896E+02  0.38478555096E+02  0.00000000000E+00 0. -1.
</event>
<event>
 7    1  0.2817603E-011  0.5052884E+02  0.7816164E-02  0.1300439E+00
        -11   -1    0    0    0    0  0.00000000000E+00  0.00000000000E+00  0.45593999997E+02  0.45594000000E+02  0.51100000000E-03 0.  1.
         11   -1    0    0    0    0 -0.00000000000E+00 -0.00000000000E+00 -0.45593999997E+02  0.45594000000E+02  0.51100000000E-03 0. -1.
    9900012    2    1    2    0    0 -0.78692800842E+01  0.12583260421E+01 -0.39870516071E+02  0.50528843525E+02  0.29999950378E+02 0.  0.
        -12    1    1    2    0    0  0.78692800842E+01 -0.12583260421E+01  0.39870516071E+02  0.40659156475E+02  0.00000000000E+00 0.  1.
         11    1    3    3    0    0  0.67430766834E+01 -0.41237127789E+01 -0.44889755654E+01  0.90898290484E+01  0.51100000000E-03 0. -1.
        -11    1    3    3    0    0 -0.53947322432E+01  0.99200184765E+01 -0.18994448871E+02  0.22097488335E+02  0.51100000000E-03 0.  1.
        -12    1    3    3    0    0 -0.92176245243E+01 -0.45379796554E+01 -0.16387091635E+02  0.19341526141E+02  0.00000000000E+00 0.  1.
</event>
<event>
 7    1  0.2817603E-011  0.5052889E+02  0.7816164E-02  0.1300439E+00
        -11   -1    0    0    0    0  0.00000000000E+00  0.00000000000E+00  0.45593999997E+02  0.45594000000E+02  0.51100000000E-03 0.  1.
         11   -1    0    0    0    0 -0.00000000000E+00 -0.00000000000E+00 -0.45593999997E+02  0.45594000000E+02  0.51100000000E-03 0. -1.
    9900012    2    1    2    0    0  0.65659410017E+01  0.90294908653E+01 -0.39096289586E+02  0.50528890985E+02  0.30000094638E+02 0.  0.
        -12    1    1    2    0    0 -0.65659410017E+01 -0.90294908653E+01  0.39096289586E+02  0.40659109015E+02  0.00000000000E+00 0.  1.
         11    1    3    3    0    0 -0.77922323785E+00  0.14615694933E+01 -0.17297958530E+02  0.17377075238E+02  0.51100000000E-03 0. -1.
        -11    1    3    3    0    0  0.58658822251E+01  0.94192667371E+01 -0.26032948181E+02  0.28299214678E+02  0.51100000000E-03 0.  1.
        -12    1    3    3    0    0  0.14792820144E+01 -0.18513453652E+01  0.42346171256E+01  0.48526010695E+01  0.00000000000E+00 0.  1.
</event>
<event>
 7    1  0.2817603E-011  0.5052883E+02  0.7816164E-02  0.1300439E+00
        -11   -1    0    0    0    0  0.00000000000E+00  0.00000000000E+00  0.45593999997E+02  0.45594000000E+02  0.51100000000E-03 0.  1.
         11   -1    0    0    0    0 -0.00000000000E+00 -0.00000000000E+00 -0.45593999997E+02  0.45594000000E+02  0.51100000000E-03 0. -1.
    9900012    2    1    2    0    0  0.19058150347E+02 -0.10891819210E+02 -0.34224604078E+02  0.50528827055E+02  0.29999900315E+02 0.  0.
        -12    1    1    2    0    0 -0.19058150347E+02  0.10891819210E+02  0.34224604078E+02  0.40659172945E+02  0.00000000000E+00 0.  1.
         11    1    3    3    0    0  0.70331699548E+01 -0.41691266914E+01 -0.11971422282E+02  0.14496966879E+02  0.51100000000E-03 0. -1.
        -11    1    3    3    0    0  0.43879988069E-01 -0.89187349437E+01  0.17739518210E+01  0.90935506692E+01  0.51100000000E-03 0.  1.
         12    1    3    3    0    0  0.11981100404E+02  0.21960424253E+01 -0.24027133617E+02  0.26938309506E+02  0.00000000000E+00 0. -1.
</event>
<event>
 7    1  0.2817603E-011  0.5052886E+02  0.7816164E-02  0.1300439E+00
        -11   -1    0    0    0    0  0.00000000000E+00  0.00000000000E+00  0.45593999997E+02  0.45594000000E+02  0.51100000000E-03 0. -1.
         11   -1    0    0    0    0 -0.00000000000E+00 -0.00000000000E+00 -0.45593999997E+02  0.45594000000E+02  0.51100000000E-03 0.  1.
    9900012    2    1    2    0    0 -0.55989585123E+01  0.31077051100E+02  0.25613167163E+02  0.50528858671E+02  0.29999996416E+02 0.  0.
        -12    1    1    2    0    0  0.55989585123E+01 -0.31077051100E+02 -0.25613167163E+02  0.40659141329E+02  0.00000000000E+00 0.  1.
         11    1    3    3    0    0 -0.42340919619E+01  0.13377707944E+02  0.14175543420E+02  0.19945842577E+02  0.51100000000E-03 0. -1.
        -11    1    3    3    0    0  0.69197737045E+01 -0.15843964066E+01  0.48040391708E+01  0.85716026920E+01  0.51100000000E-03 0.  1.
         12    1    3    3    0    0 -0.82846402549E+01  0.19283739563E+02  0.66335845722E+01  0.22011413402E+02  0.00000000000E+00 0. -1.
</event>
<event>
 7    1  0.2817603E-011  0.5052886E+02  0.7816164E-02  0.1300439E+00
        -11   -1    0    0    0    0  0.00000000000E+00  0.00000000000E+00  0.45593999997E+02  0.45594000000E+02  0.51100000000E-03 0.  1.
         11   -1    0    0    0    0 -0.00000000000E+00 -0.00000000000E+00 -0.45593999997E+02  0.45594000000E+02  0.51100000000E-03 0. -1.
    9900012    2    1    2    0    0  0.13905341827E+02  0.18623518776E+02 -0.33361228490E+02  0.50528861429E+02  0.30000004801E+02 0.  0.
        -12    1    1    2    0    0 -0.13905341827E+02 -0.18623518776E+02  0.33361228490E+02  0.40659138571E+02  0.00000000000E+00 0.  1.
         11    1    3    3    0    0 -0.11286550809E+01  0.75934965569E+01 -0.10576306669E+02  0.13068791653E+02  0.51100000000E-03 0. -1.
        -11    1    3    3    0    0  0.23882636612E+00  0.37628094502E+01 -0.20470429195E+02  0.20814760260E+02  0.51100000000E-03 0.  1.
        -12    1    3    3    0    0  0.14795170542E+02  0.72672127691E+01 -0.23144926266E+01  0.16645309517E+02  0.00000000000E+00 0.  1.
</event>
<event>
 7    1  0.2817603E-011  0.5052887E+02  0.7816164E-02  0.1300439E+00
        -11   -1    0    0    0    0  0.00000000000E+00  0.00000000000E+00  0.45593999997E+02  0.45594000000E+02  0.51100000000E-03 0.  1.
         11   -1    0    0    0    0 -0.00000000000E+00 -0.00000000000E+00 -0.45593999997E+02  0.45594000000E+02  0.51100000000E-03 0. -1.
    9900012    2    1    2    0    0  0.79923677653E+01 -0.30696443858E+02 -0.25436490048E+02  0.50528872685E+02  0.30000039014E+02 0.  0.
        -12    1    1    2    0    0 -0.79923677653E+01  0.30696443858E+02  0.25436490048E+02  0.40659127315E+02  0.00000000000E+00 0.  1.
         11    1    3    3    0    0  0.44770047873E+01 -0.24019398606E+02 -0.14913662763E+02  0.28625031328E+02  0.51100000000E-03 0. -1.
        -11    1    3    3    0    0  0.71780649343E+01 -0.11210091063E+02 -0.64340551559E+01  0.14784715887E+02  0.51100000000E-03 0.  1.
         12    1    3    3    0    0 -0.36627019563E+01  0.45330458105E+01 -0.40887721292E+01  0.71191254705E+01  0.00000000000E+00 0. -1.
</event>
<event>
 7    1  0.2817603E-011  0.5052885E+02  0.7816164E-02  0.1300439E+00
        -11   -1    0    0    0    0  0.00000000000E+00  0.00000000000E+00  0.45593999997E+02  0.45594000000E+02  0.51100000000E-03 0. -1.
         11   -1    0    0    0    0 -0.00000000000E+00 -0.00000000000E+00 -0.45593999997E+02  0.45594000000E+02  0.51100000000E-03 0.  1.
    9900012    2    1    2    0    0  0.18597099595E+02  0.30392329451E+02  0.19586235039E+02  0.50528850897E+02  0.29999972786E+02 0.  0.
        -12    1    1    2    0    0 -0.18597099595E+02 -0.30392329451E+02 -0.19586235039E+02  0.40659149103E+02  0.00000000000E+00 0.  1.
         11    1    3    3    0    0  0.25578018123E+01  0.11931026326E+02  0.14735472883E+02  0.19131803382E+02  0.51100000000E-03 0. -1.
        -11    1    3    3    0    0  0.69819545100E+01  0.19071121428E+02  0.79429341067E+01  0.21807007217E+02  0.51100000000E-03 0.  1.
        -12    1    3    3    0    0  0.90573432731E+01 -0.60981830314E+00 -0.30921719512E+01  0.95900402973E+01  0.00000000000E+00 0.  1.
</event>
<event>
 7    1  0.2817603E-011  0.5052885E+02  0.7816164E-02  0.1300439E+00
        -11   -1    0    0    0    0  0.00000000000E+00  0.00000000000E+00  0.45593999997E+02  0.45594000000E+02  0.51100000000E-03 0. -1.
         11   -1    0    0    0    0 -0.00000000000E+00 -0.00000000000E+00 -0.45593999997E+02  0.45594000000E+02  0.51100000000E-03 0.  1.
    9900012    2    1    2    0    0  0.10848912798E+02  0.38596514042E+02 -0.67658180187E+01  0.50528854675E+02  0.29999984270E+02 0.  0.
        -12    1    1    2    0    0 -0.10848912798E+02 -0.38596514042E+02  0.67658180187E+01  0.40659145325E+02  0.00000000000E+00 0.  1.
         11    1    3    3    0    0  0.16471250152E+02  0.21555780941E+02  0.48083406955E+01  0.27551296050E+02  0.51100000000E-03 0. -1.
        -11    1    3    3    0    0  0.20126262231E+01  0.24673499659E+01 -0.32096227428E+01  0.45210793601E+01  0.51100000000E-03 0.  1.
        -12    1    3    3    0    0 -0.76349635770E+01  0.14573383135E+02 -0.83645359715E+01  0.18456479264E+02  0.00000000000E+00 0.  1.
</event>
<event>
 7    1  0.2817603E-011  0.5052886E+02  0.7816164E-02  0.1300439E+00
        -11   -1    0    0    0    0  0.00000000000E+00  0.00000000000E+00  0.45593999997E+02  0.45594000000E+02  0.51100000000E-03 0. -1.
         11   -1    0    0    0    0 -0.00000000000E+00 -0.00000000000E+00 -0.45593999997E+02  0.45594000000E+02  0.51100000000E-03 0.  1.
    9900012    2    1    2    0    0  0.17931555615E+02  0.36363950703E+02 -0.30475745519E+01  0.50528864395E+02  0.30000013816E+02 0.  0.
        -12    1    1    2    0    0 -0.17931555615E+02 -0.36363950703E+02  0.30475745519E+01  0.40659135605E+02  0.00000000000E+00 0.  1.
         11    1    3    3    0    0  0.22490074200E+02  0.30322698316E+02  0.50902582984E+00  0.37756172717E+02  0.51100000000E-03 0. -1.
        -11    1    3    3    0    0  0.17629598787E+01  0.46147006849E+01 -0.38839411928E+01  0.62839867438E+01  0.51100000000E-03 0.  1.
        -12    1    3    3    0    0 -0.63214784633E+01  0.14265517012E+01  0.32734081102E+00  0.64887049344E+01  0.00000000000E+00 0.  1.
</event>
<event>
 7    1  0.2817603E-011  0.5052886E+02  0.7816164E-02  0.1300439E+00
        -11   -1    0    0    0    0  0.00000000000E+00  0.00000000000E+00  0.45593999997E+02  0.45594000000E+02  0.51100000000E-03 0.  1.
         11   -1    0    0    0    0 -0.00000000000E+00 -0.00000000000E+00 -0.45593999997E+02  0.45594000000E+02  0.51100000000E-03 0. -1.
    9900012    2    1    2    0    0 -0.25623164558E+02  0.27964500909E+02 -0.14649435423E+02  0.50528857962E+02  0.29999994263E+02 0.  0.
        -12    1    1    2    0    0  0.25623164558E+02 -0.27964500909E+02  0.14649435423E+02  0.40659142038E+02  0.00000000000E+00 0.  1.
         11    1    3    3    0    0  0.21909917250E+01 -0.30612185951E+01 -0.14516676490E+01  0.40347048530E+01  0.51100000000E-03 0. -1.
        -11    1    3    3    0    0  0.18576631603E+01  0.32089993330E+01 -0.23883810020E+01  0.44105502160E+01  0.51100000000E-03 0.  1.
         12    1    3    3    0    0 -0.29671819443E+02  0.27816720171E+02 -0.10809386772E+02  0.42083602894E+02  0.00000000000E+00 0. -1.
</event>
<event>
 7    1  0.2817603E-011  0.5052886E+02  0.7816164E-02  0.1300439E+00
        -11   -1    0    0    0    0  0.00000000000E+00  0.00000000000E+00  0.45593999997E+02  0.45594000000E+02  0.51100000000E-03 0. -1.
         11   -1    0    0    0    0 -0.00000000000E+00 -0.00000000000E+00 -0.45593999997E+02  0.45594000000E+02  0.51100000000E-03 0.  1.
    9900012    2    1    2    0    0 -0.11091105600E+02 -0.38492659424E+02 -0.69618953605E+01  0.50528862774E+02  0.30000008887E+02 0.  0.
        -12    1    1    2    0    0  0.11091105600E+02  0.38492659424E+02  0.69618953605E+01  0.40659137226E+02  0.00000000000E+00 0.  1.
         11    1    3    3    0    0  0.18738042863E+01 -0.58434472009E+01 -0.92071051758E+00  0.62052176280E+01  0.51100000000E-03 0. -1.
        -11    1    3    3    0    0  0.80349953348E+01 -0.74352264815E+01 -0.31032076654E+01  0.11378648467E+02  0.51100000000E-03 0.  1.
        -12    1    3    3    0    0 -0.20999905221E+02 -0.25213985742E+02 -0.29379771776E+01  0.32944996679E+02  0.00000000000E+00 0.  1.
</event>
<event>
 7    1  0.2817603E-011  0.5052886E+02  0.7816164E-02  0.1300439E+00
        -11   -1    0    0    0    0  0.00000000000E+00  0.00000000000E+00  0.45593999997E+02  0.45594000000E+02  0.51100000000E-03 0.  1.
         11   -1    0    0    0    0 -0.00000000000E+00 -0.00000000000E+00 -0.45593999997E+02  0.45594000000E+02  0.51100000000E-03 0. -1.
    9900012    2    1    2    0    0  0.19269912458E+02  0.34402390086E+02 -0.99152147261E+01  0.50528862616E+02  0.30000008408E+02 0.  0.
        -12    1    1    2    0    0 -0.19269912458E+02 -0.34402390086E+02  0.99152147261E+01  0.40659137384E+02  0.00000000000E+00 0.  1.
         11    1    3    3    0    0 -0.86477924252E+00 -0.14422708248E+01 -0.55373312097E+00  0.17704826745E+01  0.51100000000E-03 0. -1.
        -11    1    3    3    0    0  0.14306028595E+01  0.14293295875E+02 -0.13752404241E+02  0.19886516894E+02  0.51100000000E-03 0.  1.
         12    1    3    3    0    0  0.18704088841E+02  0.21551365035E+02  0.43909226358E+01  0.28871863047E+02  0.00000000000E+00 0. -1.
</event>
<event>
 7    1  0.2817603E-011  0.5052886E+02  0.7816164E-02  0.1300439E+00
        -11   -1    0    0    0    0  0.00000000000E+00  0.00000000000E+00  0.45593999997E+02  0.45594000000E+02  0.51100000000E-03 0.  1.
         11   -1    0    0    0    0 -0.00000000000E+00 -0.00000000000E+00 -0.45593999997E+02  0.45594000000E+02  0.51100000000E-03 0. -1.
    9900012    2    1    2    0    0  0.12498714304E+02  0.15971554496E+02 -0.35239999257E+02  0.50528856380E+02  0.29999989453E+02 0.  0.
        -12    1    1    2    0    0 -0.12498714304E+02 -0.15971554496E+02  0.35239999257E+02  0.40659143620E+02  0.00000000000E+00 0.  1.
         11    1    3    3    0    0  0.31481443487E+01  0.15364299953E+01 -0.20070018852E+02  0.20373440724E+02  0.51100000000E-03 0. -1.
        -11    1    3    3    0    0  0.96187286677E+01  0.16260869292E+02 -0.18440299224E+02  0.26400387252E+02  0.51100000000E-03 0.  1.
        -12    1    3    3    0    0 -0.26815871289E+00 -0.18257447919E+01  0.32703188182E+01  0.37550284038E+01  0.00000000000E+00 0.  1.
</event>
<event>
 7    1  0.2817603E-011  0.5052885E+02  0.7816164E-02  0.1300439E+00
        -11   -1    0    0    0    0  0.00000000000E+00  0.00000000000E+00  0.45593999997E+02  0.45594000000E+02  0.51100000000E-03 0.  1.
         11   -1    0    0    0    0 -0.00000000000E+00 -0.00000000000E+00 -0.45593999997E+02  0.45594000000E+02  0.51100000000E-03 0. -1.
    9900012    2    1    2    0    0 -0.31610023332E+02  0.18096958755E+02 -0.18068573873E+02  0.50528845397E+02  0.29999956069E+02 0.  0.
        -12    1    1    2    0    0  0.31610023332E+02 -0.18096958755E+02  0.18068573873E+02  0.40659154603E+02  0.00000000000E+00 0.  1.
         11    1    3    3    0    0 -0.10956892753E+02 -0.11263874991E+01  0.39754251494E+00  0.11021809648E+02  0.51100000000E-03 0. -1.
        -11    1    3    3    0    0  0.21614477807E+01 -0.17978266894E+01  0.88079867376E+00  0.29461574769E+01  0.51100000000E-03 0.  1.
         12    1    3    3    0    0 -0.22814578360E+02  0.21021172943E+02 -0.19346915061E+02  0.36560878272E+02  0.00000000000E+00 0. -1.
</event>
<event>
 7    1  0.2817603E-011  0.5052883E+02  0.7816164E-02  0.1300439E+00
        -11   -1    0    0    0    0  0.00000000000E+00  0.00000000000E+00  0.45593999997E+02  0.45594000000E+02  0.51100000000E-03 0.  1.
         11   -1    0    0    0    0 -0.00000000000E+00 -0.00000000000E+00 -0.45593999997E+02  0.45594000000E+02  0.51100000000E-03 0. -1.
    9900012    2    1    2    0    0 -0.11768849802E+02  0.31649803427E+02 -0.22648441856E+02  0.50528833738E+02  0.29999920631E+02 0.  0.
        -12    1    1    2    0    0  0.11768849802E+02 -0.31649803427E+02  0.22648441856E+02  0.40659166262E+02  0.00000000000E+00 0.  1.
         11    1    3    3    0    0 -0.61813283169E+01  0.63095263071E+01 -0.37309863615E+00  0.88407095210E+01  0.51100000000E-03 0. -1.
        -11    1    3    3    0    0 -0.57037433956E+01  0.62172860482E+01  0.38806515215E+01  0.92869150432E+01  0.51100000000E-03 0.  1.
         12    1    3    3    0    0  0.11622191026E+00  0.19122991072E+02 -0.26155994741E+02  0.32401209174E+02  0.00000000000E+00 0. -1.
</event>
<event>
 7    1  0.2817603E-011  0.5052886E+02  0.7816164E-02  0.1300439E+00
        -11   -1    0    0    0    0  0.00000000000E+00  0.00000000000E+00  0.45593999997E+02  0.45594000000E+02  0.51100000000E-03 0. -1.
         11   -1    0    0    0    0 -0.00000000000E+00 -0.00000000000E+00 -0.45593999997E+02  0.45594000000E+02  0.51100000000E-03 0.  1.
    9900012    2    1    2    0    0 -0.12895201141E+02  0.33251737933E+02  0.19524377451E+02  0.50528860770E+02  0.30000002797E+02 0.  0.
        -12    1    1    2    0    0  0.12895201141E+02 -0.33251737933E+02 -0.19524377451E+02  0.40659139230E+02  0.00000000000E+00 0.  1.
         11    1    3    3    0    0 -0.42636647520E+01 -0.12908117634E+01  0.12385458589E+02  0.13162242090E+02  0.51100000000E-03 0. -1.
        -11    1    3    3    0    0 -0.15533177283E+01  0.11803631467E+01 -0.11558641793E+01  0.22676144702E+01  0.51100000000E-03 0.  1.
        -12    1    3    3    0    0 -0.70782186610E+01  0.33362186550E+02  0.82947830410E+01  0.35099004210E+02  0.00000000000E+00 0.  1.
</event>
<event>
 7    1  0.2817603E-011  0.5052886E+02  0.7816164E-02  0.1300439E+00
        -11   -1    0    0    0    0  0.00000000000E+00  0.00000000000E+00  0.45593999997E+02  0.45594000000E+02  0.51100000000E-03 0. -1.
         11   -1    0    0    0    0 -0.00000000000E+00 -0.00000000000E+00 -0.45593999997E+02  0.45594000000E+02  0.51100000000E-03 0.  1.
    9900012    2    1    2    0    0  0.15145311179E+02 -0.13105811692E+02  0.35383937461E+02  0.50528858579E+02  0.29999996138E+02 0.  0.
        -12    1    1    2    0    0 -0.15145311179E+02  0.13105811692E+02 -0.35383937461E+02  0.40659141421E+02  0.00000000000E+00 0.  1.
         11    1    3    3    0    0  0.12575016725E+02 -0.60432372235E+01  0.87490182795E+01  0.16468062512E+02  0.51100000000E-03 0. -1.
        -11    1    3    3    0    0 -0.33044013705E+01 -0.16875603104E+01 -0.20859805034E+01  0.42565529646E+01  0.51100000000E-03 0.  1.
        -12    1    3    3    0    0  0.58746958246E+01 -0.53750141582E+01  0.28720899685E+02  0.29804243103E+02  0.00000000000E+00 0.  1.
</event>
<event>
 7    1  0.2817603E-011  0.5052886E+02  0.7816164E-02  0.1300439E+00
        -11   -1    0    0    0    0  0.00000000000E+00  0.00000000000E+00  0.45593999997E+02  0.45594000000E+02  0.51100000000E-03 0. -1.
         11   -1    0    0    0    0 -0.00000000000E+00 -0.00000000000E+00 -0.45593999997E+02  0.45594000000E+02  0.51100000000E-03 0.  1.
    9900012    2    1    2    0    0  0.30663077218E+02  0.15534980466E+02 -0.21716484856E+02  0.50528860351E+02  0.30000001522E+02 0.  0.
        -12    1    1    2    0    0 -0.30663077218E+02 -0.15534980466E+02  0.21716484856E+02  0.40659139649E+02  0.00000000000E+00 0.  1.
         11    1    3    3    0    0  0.26506690314E+00 -0.21100806979E+01 -0.65679365138E+01  0.69036578222E+01  0.51100000000E-03 0. -1.
        -11    1    3    3    0    0 -0.25859723172E+01 -0.12774053376E+01 -0.10781157810E+01  0.30791802676E+01  0.51100000000E-03 0.  1.
         12    1    3    3    0    0  0.32983982632E+02  0.18922466501E+02 -0.14070432561E+02  0.40546022261E+02  0.00000000000E+00 0. -1.
</event>
<event>
 7    1  0.2817603E-011  0.5052886E+02  0.7816164E-02  0.1300439E+00
        -11   -1    0    0    0    0  0.00000000000E+00  0.00000000000E+00  0.45593999997E+02  0.45594000000E+02  0.51100000000E-03 0. -1.
         11   -1    0    0    0    0 -0.00000000000E+00 -0.00000000000E+00 -0.45593999997E+02  0.45594000000E+02  0.51100000000E-03 0.  1.
    9900012    2    1    2    0    0  0.15407641789E+02  0.29932367441E+02  0.22799645955E+02  0.50528857095E+02  0.29999991626E+02 0.  0.
        -12    1    1    2    0    0 -0.15407641789E+02 -0.29932367441E+02 -0.22799645955E+02  0.40659142905E+02  0.00000000000E+00 0.  1.
         11    1    3    3    0    0  0.60861293745E+01  0.19620938400E+01  0.65391394520E+00  0.64279379827E+01  0.51100000000E-03 0. -1.
        -11    1    3    3    0    0  0.80139271311E+01  0.13288636767E+02 -0.21674319619E+01  0.15668715861E+02  0.51100000000E-03 0.  1.
        -12    1    3    3    0    0  0.13075852839E+01  0.14681636834E+02  0.24313163971E+02  0.28432203251E+02  0.00000000000E+00 0.  1.
</event>
<event>
 7    1  0.2817603E-011  0.5052886E+02  0.7816164E-02  0.1300439E+00
        -11   -1    0    0    0    0  0.00000000000E+00  0.00000000000E+00  0.45593999997E+02  0.45594000000E+02  0.51100000000E-03 0. -1.
         11   -1    0    0    0    0 -0.00000000000E+00 -0.00000000000E+00 -0.45593999997E+02  0.45594000000E+02  0.51100000000E-03 0.  1.
    9900012    2    1    2    0    0 -0.29643895081E+02 -0.24580749203E+02  0.13045751758E+02  0.50528863439E+02  0.30000010909E+02 0.  0.
        -12    1    1    2    0    0  0.29643895081E+02  0.24580749203E+02 -0.13045751758E+02  0.40659136561E+02  0.00000000000E+00 0.  1.
         11    1    3    3    0    0  0.33274707230E+00  0.14657342499E+01 -0.11340737953E+01  0.18828757633E+01  0.51100000000E-03 0. -1.
        -11    1    3    3    0    0 -0.20693792548E+01 -0.15259605244E+01  0.11072319853E+02  0.11366932445E+02  0.51100000000E-03 0.  1.
         12    1    3    3    0    0 -0.27907262898E+02 -0.24520522929E+02  0.31075057000E+01  0.37279055230E+02  0.00000000000E+00 0. -1.
</event>
<event>
 7    1  0.2940335E-011  0.5052888E+02  0.7816164E-02  0.1300439E+00
        -11   -1    0    0    0    0  0.00000000000E+00  0.00000000000E+00  0.45593999997E+02  0.45594000000E+02  0.51100000000E-03 0.  1.
         11   -1    0    0    0    0 -0.00000000000E+00 -0.00000000000E+00 -0.45593999997E+02  0.45594000000E+02  0.51100000000E-03 0. -1.
    9900012    2    1    2    0    0 -0.36856919037E+02  0.10669737796E+02 -0.13449469681E+02  0.50528880233E+02  0.30000061955E+02 0.  0.
        -12    1    1    2    0    0  0.36856919037E+02 -0.10669737796E+02  0.13449469681E+02  0.40659119767E+02  0.00000000000E+00 0.  1.
         11    1    3    3    0    0 -0.24146822995E+02  0.91677040855E+01 -0.15204468367E+02  0.29971515102E+02  0.51100000000E-03 0. -1.
        -11    1    3    3    0    0 -0.14688208978E+02  0.43526569439E+01 -0.19944032361E+01  0.15448842998E+02  0.51100000000E-03 0.  1.
        -12    1    3    3    0    0  0.19781129352E+01 -0.28506232334E+01  0.37494019224E+01  0.51085221325E+01  0.00000000000E+00 0.  1.
</event>
<event>
 7    1  0.2817603E-011  0.5052886E+02  0.7816164E-02  0.1300439E+00
        -11   -1    0    0    0    0  0.00000000000E+00  0.00000000000E+00  0.45593999997E+02  0.45594000000E+02  0.51100000000E-03 0.  1.
         11   -1    0    0    0    0 -0.00000000000E+00 -0.00000000000E+00 -0.45593999997E+02  0.45594000000E+02  0.51100000000E-03 0. -1.
    9900012    2    1    2    0    0 -0.33423615959E+02  0.22507556295E+02  0.54256617127E+01  0.50528855897E+02  0.29999987985E+02 0.  0.
        -12    1    1    2    0    0  0.33423615959E+02 -0.22507556295E+02 -0.54256617127E+01  0.40659144103E+02  0.00000000000E+00 0.  1.
         11    1    3    3    0    0 -0.21317869464E+02  0.92887129511E+01  0.41443698237E+01  0.23620066644E+02  0.51100000000E-03 0.  1.
        -11    1    3    3    0    0 -0.11059131639E+02 -0.17156525988E+01  0.36064944392E+01  0.11758174129E+02  0.51100000000E-03 0. -1.
         12    1    3    3    0    0 -0.10466148557E+01  0.14934495943E+02 -0.23252025502E+01  0.15150615124E+02  0.00000000000E+00 0. -1.
</event>
<event>
 7    1  0.2817603E-011  0.5052886E+02  0.7816164E-02  0.1300439E+00
        -11   -1    0    0    0    0  0.00000000000E+00  0.00000000000E+00  0.45593999997E+02  0.45594000000E+02  0.51100000000E-03 0.  1.
         11   -1    0    0    0    0 -0.00000000000E+00 -0.00000000000E+00 -0.45593999997E+02  0.45594000000E+02  0.51100000000E-03 0. -1.
    9900012    2    1    2    0    0 -0.28428447638E+02 -0.76839869785E+01 -0.28034714632E+02  0.50528861845E+02  0.30000006064E+02 0.  0.
        -12    1    1    2    0    0  0.28428447638E+02  0.76839869785E+01  0.28034714632E+02  0.40659138155E+02  0.00000000000E+00 0.  1.
         11    1    3    3    0    0 -0.48874913668E+01  0.33413026563E+01 -0.11781613089E+02  0.13185533077E+02  0.51100000000E-03 0.  1.
        -11    1    3    3    0    0 -0.25542950665E+02 -0.11629311145E+02 -0.85169480893E+01  0.29329534797E+02  0.51100000000E-03 0. -1.
         12    1    3    3    0    0  0.20019943934E+01  0.60402151052E+00 -0.77361534544E+01  0.80137939708E+01  0.00000000000E+00 0. -1.
</event>
<event>
 7    1  0.2817603E-011  0.5052887E+02  0.7816164E-02  0.1300439E+00
        -11   -1    0    0    0    0  0.00000000000E+00  0.00000000000E+00  0.45593999997E+02  0.45594000000E+02  0.51100000000E-03 0.  1.
         11   -1    0    0    0    0 -0.00000000000E+00 -0.00000000000E+00 -0.45593999997E+02  0.45594000000E+02  0.51100000000E-03 0. -1.
    9900012    2    1    2    0    0 -0.30652300017E+02 -0.46285230777E+01 -0.26309279119E+02  0.50528869538E+02  0.30000029446E+02 0.  0.
        -12    1    1    2    0    0  0.30652300017E+02  0.46285230777E+01  0.26309279119E+02  0.40659130462E+02  0.00000000000E+00 0.  1.
         11    1    3    3    0    0  0.53258900583E+00  0.44878493608E+00  0.78601408536E+00  0.10501796853E+01  0.51100000000E-03 0. -1.
        -11    1    3    3    0    0 -0.10879030045E+02 -0.15332994230E+01  0.44023660131E+01  0.11835756360E+02  0.51100000000E-03 0.  1.
         12    1    3    3    0    0 -0.20305858978E+02 -0.35440085908E+01 -0.31497659217E+02  0.37642933492E+02  0.00000000000E+00 0. -1.
</event>
<event>
 7    1  0.2817603E-011  0.5052886E+02  0.7816164E-02  0.1300439E+00
        -11   -1    0    0    0    0  0.00000000000E+00  0.00000000000E+00  0.45593999997E+02  0.45594000000E+02  0.51100000000E-03 0. -1.
         11   -1    0    0    0    0 -0.00000000000E+00 -0.00000000000E+00 -0.45593999997E+02  0.45594000000E+02  0.51100000000E-03 0.  1.
    9900012    2    1    2    0    0 -0.68371094900E+01  0.37287594343E+02 -0.14698814591E+02  0.50528857013E+02  0.29999991376E+02 0.  0.
        -12    1    1    2    0    0  0.68371094900E+01 -0.37287594343E+02  0.14698814591E+02  0.40659142987E+02  0.00000000000E+00 0.  1.
         11    1    3    3    0    0 -0.82888233577E+01  0.13758577687E+02 -0.47082422971E+01  0.16738297357E+02  0.51100000000E-03 0. -1.
        -11    1    3    3    0    0 -0.13636551489E+01  0.24882298357E+02 -0.17537087843E+01  0.24981269416E+02  0.51100000000E-03 0.  1.
        -12    1    3    3    0    0  0.28153690166E+01 -0.13532817003E+01 -0.82368635091E+01  0.88092902397E+01  0.00000000000E+00 0.  1.
</event>
<event>
 7    1  0.2817603E-011  0.5052886E+02  0.7816164E-02  0.1300439E+00
        -11   -1    0    0    0    0  0.00000000000E+00  0.00000000000E+00  0.45593999997E+02  0.45594000000E+02  0.51100000000E-03 0.  1.
         11   -1    0    0    0    0 -0.00000000000E+00 -0.00000000000E+00 -0.45593999997E+02  0.45594000000E+02  0.51100000000E-03 0. -1.
    9900012    2    1    2    0    0 -0.25791871668E+02  0.41536306945E+01 -0.31155937708E+02  0.50528859004E+02  0.29999997429E+02 0.  0.
        -12    1    1    2    0    0  0.25791871668E+02 -0.41536306945E+01  0.31155937708E+02  0.40659140996E+02  0.00000000000E+00 0.  1.
         11    1    3    3    0    0 -0.69971631434E+01 -0.27687346685E+01 -0.10189400262E+01  0.75937094201E+01  0.51100000000E-03 0. -1.
        -11    1    3    3    0    0 -0.11241971139E+02  0.33050868264E+01 -0.63970055992E-01  0.11717918179E+02  0.51100000000E-03 0.  1.
         12    1    3    3    0    0 -0.75527373855E+01  0.36172785365E+01 -0.30073027625E+02  0.31217231405E+02  0.00000000000E+00 0. -1.
</event>
<event>
 7    1  0.2817603E-011  0.5052887E+02  0.7816164E-02  0.1300439E+00
        -11   -1    0    0    0    0  0.00000000000E+00  0.00000000000E+00  0.45593999997E+02  0.45594000000E+02  0.51100000000E-03 0.  1.
         11   -1    0    0    0    0 -0.00000000000E+00 -0.00000000000E+00 -0.45593999997E+02  0.45594000000E+02  0.51100000000E-03 0. -1.
    9900012    2    1    2    0    0  0.11536148962E+02 -0.22322616420E+02 -0.31965337737E+02  0.50528871218E+02  0.30000034554E+02 0.  0.
        -12    1    1    2    0    0 -0.11536148962E+02  0.22322616420E+02  0.31965337737E+02  0.40659128782E+02  0.00000000000E+00 0.  1.
         11    1    3    3    0    0  0.74902916000E+01 -0.21286226490E+02 -0.30116769230E+02  0.37632800793E+02  0.51100000000E-03 0. -1.
        -11    1    3    3    0    0 -0.22756112735E+01  0.38714031510E+01 -0.19419102737E+01  0.48925642355E+01  0.51100000000E-03 0.  1.
        -12    1    3    3    0    0  0.63214686352E+01 -0.49077930813E+01  0.93341767036E-01  0.80035061891E+01  0.00000000000E+00 0.  1.
</event>
<event>
 7    1  0.2817603E-011  0.5052884E+02  0.7816164E-02  0.1300439E+00
        -11   -1    0    0    0    0  0.00000000000E+00  0.00000000000E+00  0.45593999997E+02  0.45594000000E+02  0.51100000000E-03 0.  1.
         11   -1    0    0    0    0 -0.00000000000E+00 -0.00000000000E+00 -0.45593999997E+02  0.45594000000E+02  0.51100000000E-03 0. -1.
    9900012    2    1    2    0    0  0.27225769303E+02 -0.14587549940E+02 -0.26441032704E+02  0.50528839435E+02  0.29999937947E+02 0.  0.
        -12    1    1    2    0    0 -0.27225769303E+02  0.14587549940E+02  0.26441032704E+02  0.40659160565E+02  0.00000000000E+00 0.  1.
         11    1    3    3    0    0  0.18754695900E+02  0.12159086896E+01 -0.22949526516E+01  0.18933670013E+02  0.51100000000E-03 0. -1.
        -11    1    3    3    0    0  0.58167748878E+00 -0.10382906403E+01 -0.88152758198E+01  0.88952506539E+01  0.51100000000E-03 0.  1.
        -12    1    3    3    0    0  0.78893959144E+01 -0.14765167990E+02 -0.15330804232E+02  0.22699918768E+02  0.00000000000E+00 0.  1.
</event>
<event>
 7    1  0.2817603E-011  0.5052885E+02  0.7816164E-02  0.1300439E+00
        -11   -1    0    0    0    0  0.00000000000E+00  0.00000000000E+00  0.45593999997E+02  0.45594000000E+02  0.51100000000E-03 0.  1.
         11   -1    0    0    0    0 -0.00000000000E+00 -0.00000000000E+00 -0.45593999997E+02  0.45594000000E+02  0.51100000000E-03 0. -1.
    9900012    2    1    2    0    0  0.37147286164E+02 -0.16524539209E+02 -0.43073329712E+00  0.50528846091E+02  0.29999958177E+02 0.  0.
        -12    1    1    2    0    0 -0.37147286164E+02  0.16524539209E+02  0.43073329712E+00  0.40659153909E+02  0.00000000000E+00 0.  1.
         11    1    3    3    0    0  0.18255756867E+02 -0.11029566001E+02  0.10413268745E+02  0.23735209103E+02  0.51100000000E-03 0. -1.
        -11    1    3    3    0    0  0.14403146038E+02 -0.57471683311E+00 -0.41629384905E+00  0.14420617742E+02  0.51100000000E-03 0.  1.
         12    1    3    3    0    0  0.44883832596E+01 -0.49202563749E+01 -0.10427708193E+02  0.12373019245E+02  0.00000000000E+00 0. -1.
</event>
<event>
 7    1  0.2817603E-011  0.5052886E+02  0.7816164E-02  0.1300439E+00
        -11   -1    0    0    0    0  0.00000000000E+00  0.00000000000E+00  0.45593999997E+02  0.45594000000E+02  0.51100000000E-03 0.  1.
         11   -1    0    0    0    0 -0.00000000000E+00 -0.00000000000E+00 -0.45593999997E+02  0.45594000000E+02  0.51100000000E-03 0. -1.
    9900012    2    1    2    0    0 -0.37752176258E+02  0.13049035942E+02  0.75935266564E+01  0.50528858367E+02  0.29999995492E+02 0.  0.
        -12    1    1    2    0    0  0.37752176258E+02 -0.13049035942E+02 -0.75935266564E+01  0.40659141633E+02  0.00000000000E+00 0.  1.
         11    1    3    3    0    0 -0.12812416775E+02  0.12077931245E+02 -0.84174756436E+00  0.17627903619E+02  0.51100000000E-03 0. -1.
        -11    1    3    3    0    0 -0.17467941515E+02  0.96422905140E+01  0.28177357211E+01  0.20150493344E+02  0.51100000000E-03 0.  1.
        -12    1    3    3    0    0 -0.74718179682E+01 -0.86711858169E+01  0.56175384997E+01  0.12750461404E+02  0.00000000000E+00 0.  1.
</event>
<event>
 7    1  0.2817603E-011  0.5052887E+02  0.7816164E-02  0.1300439E+00
        -11   -1    0    0    0    0  0.00000000000E+00  0.00000000000E+00  0.45593999997E+02  0.45594000000E+02  0.51100000000E-03 0.  1.
         11   -1    0    0    0    0 -0.00000000000E+00 -0.00000000000E+00 -0.45593999997E+02  0.45594000000E+02  0.51100000000E-03 0. -1.
    9900012    2    1    2    0    0 -0.27853479543E+02  0.11262468362E+01 -0.29598650633E+02  0.50528869735E+02  0.30000030047E+02 0.  0.
        -12    1    1    2    0    0  0.27853479543E+02 -0.11262468362E+01  0.29598650633E+02  0.40659130265E+02  0.00000000000E+00 0.  1.
         11    1    3    3    0    0 -0.14038124245E+02 -0.33414911138E+01 -0.86290693638E+01  0.16813546132E+02  0.51100000000E-03 0. -1.
        -11    1    3    3    0    0 -0.11759152929E+02  0.31314793943E+01 -0.25672989512E+02  0.28411023064E+02  0.51100000000E-03 0.  1.
         12    1    3    3    0    0 -0.20562023695E+01  0.13362585557E+01  0.47034082428E+01  0.53043005392E+01  0.00000000000E+00 0. -1.
</event>
<event>
 7    1  0.2817603E-011  0.5052886E+02  0.7816164E-02  0.1300439E+00
        -11   -1    0    0    0    0  0.00000000000E+00  0.00000000000E+00  0.45593999997E+02  0.45594000000E+02  0.51100000000E-03 0. -1.
         11   -1    0    0    0    0 -0.00000000000E+00 -0.00000000000E+00 -0.45593999997E+02  0.45594000000E+02  0.51100000000E-03 0.  1.
    9900012    2    1    2    0    0  0.25268560231E+01 -0.15759901054E+02  0.37395271886E+02  0.50528857829E+02  0.29999993858E+02 0.  0.
        -12    1    1    2    0    0 -0.25268560231E+01  0.15759901054E+02 -0.37395271886E+02  0.40659142171E+02  0.00000000000E+00 0.  1.
         11    1    3    3    0    0  0.34470732045E+01 -0.77921014362E+01  0.16586446599E+02  0.18646966764E+02  0.51100000000E-03 0. -1.
        -11    1    3    3    0    0  0.85846392387E+01  0.10633898201E+01  0.18742294408E+01  0.88509640732E+01  0.51100000000E-03 0.  1.
         12    1    3    3    0    0 -0.95048564201E+01 -0.90311894383E+01  0.18934595847E+02  0.23030926992E+02  0.00000000000E+00 0. -1.
</event>
<event>
 7    1  0.2817603E-011  0.5052886E+02  0.7816164E-02  0.1300439E+00
        -11   -1    0    0    0    0  0.00000000000E+00  0.00000000000E+00  0.45593999997E+02  0.45594000000E+02  0.51100000000E-03 0.  1.
         11   -1    0    0    0    0 -0.00000000000E+00 -0.00000000000E+00 -0.45593999997E+02  0.45594000000E+02  0.51100000000E-03 0. -1.
    9900012    2    1    2    0    0  0.40381617362E+02  0.25419055265E+01  0.40037092318E+01  0.50528855984E+02  0.29999988249E+02 0.  0.
        -12    1    1    2    0    0 -0.40381617362E+02 -0.25419055265E+01 -0.40037092318E+01  0.40659144016E+02  0.00000000000E+00 0.  1.
         11    1    3    3    0    0  0.19929919039E+02 -0.32075934321E+01  0.31457010711E+01  0.20430021145E+02  0.51100000000E-03 0. -1.
        -11    1    3    3    0    0  0.18778166282E+02 -0.19725006527E+00  0.82104071966E+01  0.20495590333E+02  0.51100000000E-03 0.  1.
         12    1    3    3    0    0  0.16735320416E+01  0.59467490238E+01 -0.73523990358E+01  0.96032445053E+01  0.00000000000E+00 0. -1.
</event>
<event>
 7    1  0.2817603E-011  0.5052888E+02  0.7816164E-02  0.1300439E+00
        -11   -1    0    0    0    0  0.00000000000E+00  0.00000000000E+00  0.45593999997E+02  0.45594000000E+02  0.51100000000E-03 0. -1.
         11   -1    0    0    0    0 -0.00000000000E+00 -0.00000000000E+00 -0.45593999997E+02  0.45594000000E+02  0.51100000000E-03 0.  1.
    9900012    2    1    2    0    0  0.40099788123E+02 -0.56710890294E+01  0.36069581821E+01  0.50528875494E+02  0.30000047551E+02 0.  0.
        -12    1    1    2    0    0 -0.40099788123E+02  0.56710890294E+01 -0.36069581821E+01  0.40659124506E+02  0.00000000000E+00 0.  1.
         11    1    3    3    0    0  0.29049928467E+02 -0.46622561051E+01  0.53054130924E+01  0.29896193475E+02  0.51100000000E-03 0. -1.
        -11    1    3    3    0    0  0.14805824243E+02 -0.17949543198E+00  0.24132730384E+01  0.15002284398E+02  0.51100000000E-03 0.  1.
        -12    1    3    3    0    0 -0.37559645872E+01 -0.82933749233E+00 -0.41117279486E+01  0.56303976218E+01  0.00000000000E+00 0.  1.
</event>
<event>
 7    1  0.2817603E-011  0.5052886E+02  0.7816164E-02  0.1300439E+00
        -11   -1    0    0    0    0  0.00000000000E+00  0.00000000000E+00  0.45593999997E+02  0.45594000000E+02  0.51100000000E-03 0.  1.
         11   -1    0    0    0    0 -0.00000000000E+00 -0.00000000000E+00 -0.45593999997E+02  0.45594000000E+02  0.51100000000E-03 0. -1.
    9900012    2    1    2    0    0 -0.14819776820E+02  0.37852206755E+02 -0.86619187836E+00  0.50528860442E+02  0.30000001800E+02 0.  0.
        -12    1    1    2    0    0  0.14819776820E+02 -0.37852206755E+02  0.86619187836E+00  0.40659139558E+02  0.00000000000E+00 0.  1.
         11    1    3    3    0    0  0.18153036590E+01  0.11307879753E+01  0.61820804656E+01  0.65415692280E+01  0.51100000000E-03 0. -1.
        -11    1    3    3    0    0 -0.18254298059E+01  0.12311438161E+02  0.44359824983E+01  0.13212934744E+02  0.51100000000E-03 0.  1.
         12    1    3    3    0    0 -0.14809650673E+02  0.24409980618E+02 -0.11484254842E+02  0.30774356470E+02  0.00000000000E+00 0. -1.
</event>
<event>
 7    1  0.2817603E-011  0.5052887E+02  0.7816164E-02  0.1300439E+00
        -11   -1    0    0    0    0  0.00000000000E+00  0.00000000000E+00  0.45593999997E+02  0.45594000000E+02  0.51100000000E-03 0.  1.
         11   -1    0    0    0    0 -0.00000000000E+00 -0.00000000000E+00 -0.45593999997E+02  0.45594000000E+02  0.51100000000E-03 0. -1.
    9900012    2    1    2    0    0 -0.16350212245E+02  0.15568819646E+02 -0.33814902360E+02  0.50528865636E+02  0.30000017587E+02 0.  0.
        -12    1    1    2    0    0  0.16350212245E+02 -0.15568819646E+02  0.33814902360E+02  0.40659134364E+02  0.00000000000E+00 0.  1.
         11    1    3    3    0    0 -0.97967948307E+01 -0.62158178869E+00 -0.58708528008E+01  0.11438114606E+02  0.51100000000E-03 0. -1.
        -11    1    3    3    0    0 -0.22320058149E+01 -0.49991175962E+01 -0.78500993887E+01  0.95706367276E+01  0.51100000000E-03 0.  1.
        -12    1    3    3    0    0 -0.43214115998E+01  0.21189519031E+02 -0.20093950170E+02  0.29520114302E+02  0.00000000000E+00 0.  1.
</event>
<event>
 7    1  0.2817603E-011  0.5052886E+02  0.7816164E-02  0.1300439E+00
        -11   -1    0    0    0    0  0.00000000000E+00  0.00000000000E+00  0.45593999997E+02  0.45594000000E+02  0.51100000000E-03 0. -1.
         11   -1    0    0    0    0 -0.00000000000E+00 -0.00000000000E+00 -0.45593999997E+02  0.45594000000E+02  0.51100000000E-03 0.  1.
    9900012    2    1    2    0    0 -0.37793098178E+01  0.34554741954E+02  0.21091525657E+02  0.50528857993E+02  0.29999994357E+02 0.  0.
        -12    1    1    2    0    0  0.37793098178E+01 -0.34554741954E+02 -0.21091525657E+02  0.40659142007E+02  0.00000000000E+00 0.  1.
         11    1    3    3    0    0  0.13180945874E+01  0.11136053188E+02  0.17284153066E+02  0.20603179401E+02  0.51100000000E-03 0. -1.
        -11    1    3    3    0    0 -0.34724622690E+01  0.24952202203E+02  0.68905881434E+01  0.26118012831E+02  0.51100000000E-03 0.  1.
        -12    1    3    3    0    0 -0.16249421362E+01 -0.15335134375E+01 -0.30832155530E+01  0.38076657620E+01  0.00000000000E+00 0.  1.
</event>
<event>
 7    1  0.2817603E-011  0.5052886E+02  0.7816164E-02  0.1300439E+00
        -11   -1    0    0    0    0  0.00000000000E+00  0.00000000000E+00  0.45593999997E+02  0.45594000000E+02  0.51100000000E-03 0.  1.
         11   -1    0    0    0    0 -0.00000000000E+00 -0.00000000000E+00 -0.45593999997E+02  0.45594000000E+02  0.51100000000E-03 0. -1.
    9900012    2    1    2    0    0 -0.22497633069E+02  0.19393084717E+02 -0.27765630860E+02  0.50528862212E+02  0.30000007180E+02 0.  0.
        -12    1    1    2    0    0  0.22497633069E+02 -0.19393084717E+02  0.27765630860E+02  0.40659137788E+02  0.00000000000E+00 0.  1.
         11    1    3    3    0    0  0.28481324270E+00  0.21539430429E+01 -0.21130146308E+01  0.30307458334E+01  0.51100000000E-03 0. -1.
        -11    1    3    3    0    0 -0.14369059605E+02 -0.87454927078E+00 -0.23299146939E+02  0.27387678959E+02  0.51100000000E-03 0.  1.
        -12    1    3    3    0    0 -0.84133867066E+01  0.18113690945E+02 -0.23534692900E+01  0.20110437420E+02  0.00000000000E+00 0.  1.
</event>
<event>
 7    1  0.2817603E-011  0.5052887E+02  0.7816164E-02  0.1300439E+00
        -11   -1    0    0    0    0  0.00000000000E+00  0.00000000000E+00  0.45593999997E+02  0.45594000000E+02  0.51100000000E-03 0. -1.
         11   -1    0    0    0    0 -0.00000000000E+00 -0.00000000000E+00 -0.45593999997E+02  0.45594000000E+02  0.51100000000E-03 0.  1.
    9900012    2    1    2    0    0 -0.34167986809E+02  0.20613758986E+02  0.77965730480E+01  0.50528869004E+02  0.30000027823E+02 0.  0.
        -12    1    1    2    0    0  0.34167986809E+02 -0.20613758986E+02 -0.77965730480E+01  0.40659130996E+02  0.00000000000E+00 0.  1.
         11    1    3    3    0    0 -0.12504450802E+02  0.30478768602E+01  0.10103476462E+02  0.16362490033E+02  0.51100000000E-03 0. -1.
        -11    1    3    3    0    0 -0.51087309035E+01  0.62128868245E+00  0.70224024701E+01  0.87062774930E+01  0.51100000000E-03 0.  1.
        -12    1    3    3    0    0 -0.16554805103E+02  0.16944593443E+02 -0.93293058837E+01  0.25460101477E+02  0.00000000000E+00 0.  1.
</event>
<event>
 7    1  0.2817603E-011  0.5052886E+02  0.7816164E-02  0.1300439E+00
        -11   -1    0    0    0    0  0.00000000000E+00  0.00000000000E+00  0.45593999997E+02  0.45594000000E+02  0.51100000000E-03 0.  1.
         11   -1    0    0    0    0 -0.00000000000E+00 -0.00000000000E+00 -0.45593999997E+02  0.45594000000E+02  0.51100000000E-03 0. -1.
    9900012    2    1    2    0    0  0.22558068782E+02  0.61674875563E+01 -0.33260509514E+02  0.50528857570E+02  0.29999993071E+02 0.  0.
        -12    1    1    2    0    0 -0.22558068782E+02 -0.61674875563E+01  0.33260509514E+02  0.40659142430E+02  0.00000000000E+00 0.  1.
         11    1    3    3    0    0 -0.74402367967E+00  0.30052143742E+00 -0.11423651972E+02  0.11451799379E+02  0.51100000000E-03 0.  1.
        -11    1    3    3    0    0  0.23502416150E+01  0.10295488898E+02 -0.10303236331E+02  0.14753894620E+02  0.51100000000E-03 0. -1.
        -12    1    3    3    0    0  0.20951850847E+02 -0.44285227787E+01 -0.11533621211E+02  0.24323163572E+02  0.00000000000E+00 0.  1.
</event>
<event>
 7    1  0.2817603E-011  0.5052885E+02  0.7816164E-02  0.1300439E+00
        -11   -1    0    0    0    0  0.00000000000E+00  0.00000000000E+00  0.45593999997E+02  0.45594000000E+02  0.51100000000E-03 0. -1.
         11   -1    0    0    0    0 -0.00000000000E+00 -0.00000000000E+00 -0.45593999997E+02  0.45594000000E+02  0.51100000000E-03 0.  1.
    9900012    2    1    2    0    0 -0.86983300680E+01 -0.98927226757E+01  0.38466079016E+02  0.50528854131E+02  0.29999982617E+02 0.  0.
        -12    1    1    2    0    0  0.86983300680E+01  0.98927226757E+01 -0.38466079016E+02  0.40659145869E+02  0.00000000000E+00 0.  1.
         11    1    3    3    0    0  0.10121728977E+01  0.23292748684E+01  0.37485413331E+00  0.25672030052E+01  0.51100000000E-03 0. -1.
        -11    1    3    3    0    0  0.79659196778E+01 -0.64869573615E+00  0.11331423007E+02  0.13866428166E+02  0.51100000000E-03 0.  1.
        -12    1    3    3    0    0 -0.17676422644E+02 -0.11573301808E+02  0.26759801876E+02  0.34095222959E+02  0.00000000000E+00 0.  1.
</event>
<event>
 7    1  0.2817603E-011  0.5052887E+02  0.7816164E-02  0.1300439E+00
        -11   -1    0    0    0    0  0.00000000000E+00  0.00000000000E+00  0.45593999997E+02  0.45594000000E+02  0.51100000000E-03 0. -1.
         11   -1    0    0    0    0 -0.00000000000E+00 -0.00000000000E+00 -0.45593999997E+02  0.45594000000E+02  0.51100000000E-03 0.  1.
    9900012    2    1    2    0    0 -0.22928200024E+02  0.30608915508E+02  0.13804234241E+02  0.50528868825E+02  0.30000027281E+02 0.  0.
        -12    1    1    2    0    0  0.22928200024E+02 -0.30608915508E+02 -0.13804234241E+02  0.40659131175E+02  0.00000000000E+00 0.  1.
         11    1    3    3    0    0  0.22211097702E+01  0.74158133379E+01  0.88745887611E+01  0.11776499565E+02  0.51100000000E-03 0. -1.
        -11    1    3    3    0    0 -0.54551741049E+01  0.15490317909E+02 -0.18942922414E+01  0.16531703385E+02  0.51100000000E-03 0.  1.
        -12    1    3    3    0    0 -0.19694135689E+02  0.77027842608E+01  0.68239377209E+01  0.22220665875E+02  0.00000000000E+00 0.  1.
</event>
<event>
 7    1  0.2817603E-011  0.5052887E+02  0.7816164E-02  0.1300439E+00
        -11   -1    0    0    0    0  0.00000000000E+00  0.00000000000E+00  0.45593999997E+02  0.45594000000E+02  0.51100000000E-03 0. -1.
         11   -1    0    0    0    0 -0.00000000000E+00 -0.00000000000E+00 -0.45593999997E+02  0.45594000000E+02  0.51100000000E-03 0.  1.
    9900012    2    1    2    0    0 -0.32661582956E+02  0.88938616708E+01  0.22522995472E+02  0.50528866934E+02  0.30000021534E+02 0.  0.
        -12    1    1    2    0    0  0.32661582956E+02 -0.88938616708E+01 -0.22522995472E+02  0.40659133066E+02  0.00000000000E+00 0.  1.
         11    1    3    3    0    0 -0.11219608914E+02  0.40766479990E+01  0.88374346317E+01  0.14852573320E+02  0.51100000000E-03 0. -1.
        -11    1    3    3    0    0 -0.11429570569E+02  0.13200180118E+02  0.14350063004E+02  0.22600976683E+02  0.51100000000E-03 0.  1.
         12    1    3    3    0    0 -0.10012403473E+02 -0.83829664458E+01 -0.66450216431E+00  0.13075316932E+02  0.00000000000E+00 0. -1.
</event>
<event>
 7    1  0.2817603E-011  0.5052887E+02  0.7816164E-02  0.1300439E+00
        -11   -1    0    0    0    0  0.00000000000E+00  0.00000000000E+00  0.45593999997E+02  0.45594000000E+02  0.51100000000E-03 0.  1.
         11   -1    0    0    0    0 -0.00000000000E+00 -0.00000000000E+00 -0.45593999997E+02  0.45594000000E+02  0.51100000000E-03 0. -1.
    9900012    2    1    2    0    0  0.10562930355E+02 -0.32723968204E+02 -0.21696334706E+02  0.50528873935E+02  0.30000042812E+02 0.  0.
        -12    1    1    2    0    0 -0.10562930355E+02  0.32723968204E+02  0.21696334706E+02  0.40659126065E+02  0.00000000000E+00 0.  1.
         11    1    3    3    0    0  0.14555125041E+02 -0.14099536750E+02 -0.16953554199E+02  0.26421044676E+02  0.51100000000E-03 0. -1.
        -11    1    3    3    0    0  0.19110467213E+01 -0.16787361865E+02 -0.10990633763E+01  0.16931496051E+02  0.51100000000E-03 0.  1.
        -12    1    3    3    0    0 -0.59032414072E+01 -0.18370695888E+01 -0.36437171313E+01  0.71763332085E+01  0.00000000000E+00 0.  1.
</event>
<event>
 7    1  0.2817603E-011  0.5052886E+02  0.7816164E-02  0.1300439E+00
        -11   -1    0    0    0    0  0.00000000000E+00  0.00000000000E+00  0.45593999997E+02  0.45594000000E+02  0.51100000000E-03 0.  1.
         11   -1    0    0    0    0 -0.00000000000E+00 -0.00000000000E+00 -0.45593999997E+02  0.45594000000E+02  0.51100000000E-03 0. -1.
    9900012    2    1    2    0    0  0.30896558810E+01  0.17942772118E+01 -0.40501851423E+02  0.50528863599E+02  0.30000011395E+02 0.  0.
        -12    1    1    2    0    0 -0.30896558810E+01 -0.17942772118E+01  0.40501851423E+02  0.40659136401E+02  0.00000000000E+00 0.  1.
         11    1    3    3    0    0 -0.32486070295E+01  0.83534853326E+01 -0.28442968032E+02  0.29821747024E+02  0.51100000000E-03 0. -1.
        -11    1    3    3    0    0 -0.35908977972E+01  0.55129548156E+00 -0.61435554216E+01  0.71373487498E+01  0.51100000000E-03 0.  1.
        -12    1    3    3    0    0  0.99291607078E+01 -0.71105036024E+01 -0.59153279698E+01  0.13569767825E+02  0.00000000000E+00 0.  1.
</event>
<event>
 7    1  0.2817603E-011  0.5052886E+02  0.7816164E-02  0.1300439E+00
        -11   -1    0    0    0    0  0.00000000000E+00  0.00000000000E+00  0.45593999997E+02  0.45594000000E+02  0.51100000000E-03 0. -1.
         11   -1    0    0    0    0 -0.00000000000E+00 -0.00000000000E+00 -0.45593999997E+02  0.45594000000E+02  0.51100000000E-03 0.  1.
    9900012    2    1    2    0    0 -0.35743174133E+02  0.85595758341E+01 -0.17387485942E+02  0.50528861999E+02  0.30000006532E+02 0.  0.
        -12    1    1    2    0    0  0.35743174133E+02 -0.85595758341E+01  0.17387485942E+02  0.40659138001E+02  0.00000000000E+00 0.  1.
         11    1    3    3    0    0 -0.17886267149E+02 -0.17434000696E+01 -0.30394966411E+01  0.18226259530E+02  0.51100000000E-03 0. -1.
        -11    1    3    3    0    0 -0.70182878445E+01 -0.30563882202E+01 -0.12949310831E+02  0.15042690068E+02  0.51100000000E-03 0.  1.
         12    1    3    3    0    0 -0.10838619139E+02  0.13359364124E+02 -0.13986784704E+01  0.17259912401E+02  0.00000000000E+00 0. -1.
</event>
<event>
 7    1  0.2817603E-011  0.5052886E+02  0.7816164E-02  0.1300439E+00
        -11   -1    0    0    0    0  0.00000000000E+00  0.00000000000E+00  0.45593999997E+02  0.45594000000E+02  0.51100000000E-03 0.  1.
         11   -1    0    0    0    0 -0.00000000000E+00 -0.00000000000E+00 -0.45593999997E+02  0.45594000000E+02  0.51100000000E-03 0. -1.
    9900012    2    1    2    0    0 -0.57981534578E+01 -0.39322075325E+02  0.85627876665E+01  0.50528861741E+02  0.30000005747E+02 0.  0.
        -12    1    1    2    0    0  0.57981534578E+01  0.39322075325E+02 -0.85627876665E+01  0.40659138259E+02  0.00000000000E+00 0.  1.
         11    1    3    3    0    0  0.96734587401E+00 -0.37415902773E+02  0.10288968693E+02  0.38816857361E+02  0.51100000000E-03 0. -1.
        -11    1    3    3    0    0 -0.28941212576E+01 -0.53637869710E+01  0.38850703076E+00  0.61071340658E+01  0.51100000000E-03 0.  1.
        -12    1    3    3    0    0 -0.38713780743E+01  0.34576144188E+01 -0.21146880570E+01  0.56048703144E+01  0.00000000000E+00 0.  1.
</event>
<event>
 7    1  0.2817603E-011  0.5052885E+02  0.7816164E-02  0.1300439E+00
        -11   -1    0    0    0    0  0.00000000000E+00  0.00000000000E+00  0.45593999997E+02  0.45594000000E+02  0.51100000000E-03 0.  1.
         11   -1    0    0    0    0 -0.00000000000E+00 -0.00000000000E+00 -0.45593999997E+02  0.45594000000E+02  0.51100000000E-03 0. -1.
    9900012    2    1    2    0    0 -0.23017354825E+02 -0.15901930148E+02 -0.29504171542E+02  0.50528854117E+02  0.29999982573E+02 0.  0.
        -12    1    1    2    0    0  0.23017354825E+02  0.15901930148E+02  0.29504171542E+02  0.40659145883E+02  0.00000000000E+00 0.  1.
         11    1    3    3    0    0 -0.21557257986E+02 -0.31070965898E+01 -0.21533376340E+02  0.30627695277E+02  0.51100000000E-03 0. -1.
        -11    1    3    3    0    0 -0.34517629903E+01 -0.10579917908E+01 -0.70994489693E+01  0.79646839422E+01  0.51100000000E-03 0.  1.
        -12    1    3    3    0    0  0.19916661513E+01 -0.11736841767E+02 -0.87134623311E+00  0.11936474898E+02  0.00000000000E+00 0.  1.
</event>
<event>
 7    1  0.2817603E-011  0.5052887E+02  0.7816164E-02  0.1300439E+00
        -11   -1    0    0    0    0  0.00000000000E+00  0.00000000000E+00  0.45593999997E+02  0.45594000000E+02  0.51100000000E-03 0. -1.
         11   -1    0    0    0    0 -0.00000000000E+00 -0.00000000000E+00 -0.45593999997E+02  0.45594000000E+02  0.51100000000E-03 0.  1.
    9900012    2    1    2    0    0 -0.10295329743E+02  0.37337811112E+02  0.12371705609E+02  0.50528867535E+02  0.30000023360E+02 0.  0.
        -12    1    1    2    0    0  0.10295329743E+02 -0.37337811112E+02 -0.12371705609E+02  0.40659132465E+02  0.00000000000E+00 0.  1.
         11    1    3    3    0    0 -0.29918932353E+01 -0.82930472816E-01  0.23829874303E+00  0.30025138046E+01  0.51100000000E-03 0.  1.
        -11    1    3    3    0    0 -0.15406530286E+02  0.17836217152E+02  0.11733164400E+02  0.26327912277E+02  0.51100000000E-03 0. -1.
         12    1    3    3    0    0  0.81030937788E+01  0.19584524432E+02  0.40024246572E+00  0.21198441453E+02  0.00000000000E+00 0. -1.
</event>
<event>
 7    1  0.2817603E-011  0.5052885E+02  0.7816164E-02  0.1300439E+00
        -11   -1    0    0    0    0  0.00000000000E+00  0.00000000000E+00  0.45593999997E+02  0.45594000000E+02  0.51100000000E-03 0.  1.
         11   -1    0    0    0    0 -0.00000000000E+00 -0.00000000000E+00 -0.45593999997E+02  0.45594000000E+02  0.51100000000E-03 0. -1.
    9900012    2    1    2    0    0 -0.31450277814E+01 -0.38166835591E+02 -0.13658990311E+02  0.50528849061E+02  0.29999967206E+02 0.  0.
        -12    1    1    2    0    0  0.31450277814E+01  0.38166835591E+02  0.13658990311E+02  0.40659150939E+02  0.00000000000E+00 0.  1.
         11    1    3    3    0    0  0.52643433147E+01 -0.15160632644E+02 -0.80867658941E-01  0.16048820285E+02  0.51100000000E-03 0. -1.
        -11    1    3    3    0    0  0.50986129442E+01 -0.56764167216E+01  0.15726909849E+01  0.77904375966E+01  0.51100000000E-03 0.  1.
        -12    1    3    3    0    0 -0.13507984040E+02 -0.17329786225E+02 -0.15150813637E+02  0.26689591179E+02  0.00000000000E+00 0.  1.
</event>
<event>
 7    1  0.2817603E-011  0.5052886E+02  0.7816164E-02  0.1300439E+00
        -11   -1    0    0    0    0  0.00000000000E+00  0.00000000000E+00  0.45593999997E+02  0.45594000000E+02  0.51100000000E-03 0. -1.
         11   -1    0    0    0    0 -0.00000000000E+00 -0.00000000000E+00 -0.45593999997E+02  0.45594000000E+02  0.51100000000E-03 0.  1.
    9900012    2    1    2    0    0  0.50313538669E+01 -0.27098361926E+02 -0.29891971106E+02  0.50528859854E+02  0.30000000013E+02 0.  0.
        -12    1    1    2    0    0 -0.50313538669E+01  0.27098361926E+02  0.29891971106E+02  0.40659140146E+02  0.00000000000E+00 0.  1.
         11    1    3    3    0    0  0.49324828982E+01 -0.22530013533E+00 -0.50809204879E+01  0.70849065596E+01  0.51100000000E-03 0. -1.
        -11    1    3    3    0    0 -0.14271559495E+01 -0.26326600957E+01 -0.17959816266E+02  0.18207764109E+02  0.51100000000E-03 0.  1.
         12    1    3    3    0    0  0.15260269182E+01 -0.24240401695E+02 -0.68512343519E+01  0.25236189186E+02  0.00000000000E+00 0. -1.
</event>
<event>
 7    1  0.2817603E-011  0.5052887E+02  0.7816164E-02  0.1300439E+00
        -11   -1    0    0    0    0  0.00000000000E+00  0.00000000000E+00  0.45593999997E+02  0.45594000000E+02  0.51100000000E-03 0.  1.
         11   -1    0    0    0    0 -0.00000000000E+00 -0.00000000000E+00 -0.45593999997E+02  0.45594000000E+02  0.51100000000E-03 0. -1.
    9900012    2    1    2    0    0  0.37255616068E+02 -0.23225191333E+01 -0.16118001084E+02  0.50528868397E+02  0.30000025980E+02 0.  0.
        -12    1    1    2    0    0 -0.37255616068E+02  0.23225191333E+01  0.16118001084E+02  0.40659131603E+02  0.00000000000E+00 0.  1.
         11    1    3    3    0    0  0.12961599836E+02  0.76050566677E+01 -0.65350850469E+01  0.16387412671E+02  0.51100000000E-03 0. -1.
        -11    1    3    3    0    0  0.15128722530E+01  0.51248641719E+01 -0.26781248867E+01  0.59770702191E+01  0.51100000000E-03 0.  1.
        -12    1    3    3    0    0  0.22781143979E+02 -0.15052439973E+02 -0.69047911500E+01  0.28164385507E+02  0.00000000000E+00 0.  1.
</event>
<event>
 7    1  0.2817603E-011  0.5052886E+02  0.7816164E-02  0.1300439E+00
        -11   -1    0    0    0    0  0.00000000000E+00  0.00000000000E+00  0.45593999997E+02  0.45594000000E+02  0.51100000000E-03 0. -1.
         11   -1    0    0    0    0 -0.00000000000E+00 -0.00000000000E+00 -0.45593999997E+02  0.45594000000E+02  0.51100000000E-03 0.  1.
    9900012    2    1    2    0    0 -0.30100507539E+02  0.20539181491E+02  0.18035167639E+02  0.50528858319E+02  0.29999995347E+02 0.  0.
        -12    1    1    2    0    0  0.30100507539E+02 -0.20539181491E+02 -0.18035167639E+02  0.40659141681E+02  0.00000000000E+00 0.  1.
         11    1    3    3    0    0  0.56494896124E+00 -0.24808557094E+01  0.17724574622E+01  0.31008737633E+01  0.51100000000E-03 0. -1.
        -11    1    3    3    0    0 -0.98906288527E+01  0.43191991928E+01  0.16212088642E+02  0.19475929738E+02  0.51100000000E-03 0.  1.
         12    1    3    3    0    0 -0.20774827648E+02  0.18700838007E+02  0.50621535023E-01  0.27952054817E+02  0.00000000000E+00 0. -1.
</event>
<event>
 7    1  0.2817603E-011  0.5052886E+02  0.7816164E-02  0.1300439E+00
        -11   -1    0    0    0    0  0.00000000000E+00  0.00000000000E+00  0.45593999997E+02  0.45594000000E+02  0.51100000000E-03 0.  1.
         11   -1    0    0    0    0 -0.00000000000E+00 -0.00000000000E+00 -0.45593999997E+02  0.45594000000E+02  0.51100000000E-03 0. -1.
    9900012    2    1    2    0    0 -0.26126827521E+02  0.59853391421E+00 -0.31147968222E+02  0.50528864698E+02  0.30000014735E+02 0.  0.
        -12    1    1    2    0    0  0.26126827521E+02 -0.59853391421E+00  0.31147968222E+02  0.40659135302E+02  0.00000000000E+00 0.  1.
         11    1    3    3    0    0 -0.98169802503E+01 -0.66175245303E+01 -0.55407377448E+01  0.13071515106E+02  0.51100000000E-03 0. -1.
        -11    1    3    3    0    0 -0.90473233963E+01 -0.54885089146E+01 -0.18206930496E+02  0.21058729997E+02  0.51100000000E-03 0.  1.
        -12    1    3    3    0    0 -0.72625238747E+01  0.12704567359E+02 -0.74002999814E+01  0.16398619595E+02  0.00000000000E+00 0.  1.
</event>
<event>
 7    1  0.2817603E-011  0.5052886E+02  0.7816164E-02  0.1300439E+00
        -11   -1    0    0    0    0  0.00000000000E+00  0.00000000000E+00  0.45593999997E+02  0.45594000000E+02  0.51100000000E-03 0.  1.
         11   -1    0    0    0    0 -0.00000000000E+00 -0.00000000000E+00 -0.45593999997E+02  0.45594000000E+02  0.51100000000E-03 0. -1.
    9900012    2    1    2    0    0  0.38230541110E+02  0.22327573323E+01 -0.13660391137E+02  0.50528858779E+02  0.29999996744E+02 0.  0.
        -12    1    1    2    0    0 -0.38230541110E+02 -0.22327573323E+01  0.13660391137E+02  0.40659141221E+02  0.00000000000E+00 0.  1.
         11    1    3    3    0    0  0.39840394595E+01 -0.89105916404E+01 -0.29939197225E+01  0.10209543054E+02  0.51100000000E-03 0. -1.
        -11    1    3    3    0    0  0.31735810428E+01  0.61741242827E+01  0.42260367576E+00  0.69548559598E+01  0.51100000000E-03 0.  1.
         12    1    3    3    0    0  0.31072920607E+02  0.49692246899E+01 -0.11089075090E+02  0.33364459765E+02  0.00000000000E+00 0. -1.
</event>
<event>
 7    1  0.2817603E-011  0.5052886E+02  0.7816164E-02  0.1300439E+00
        -11   -1    0    0    0    0  0.00000000000E+00  0.00000000000E+00  0.45593999997E+02  0.45594000000E+02  0.51100000000E-03 0.  1.
         11   -1    0    0    0    0 -0.00000000000E+00 -0.00000000000E+00 -0.45593999997E+02  0.45594000000E+02  0.51100000000E-03 0. -1.
    9900012    2    1    2    0    0  0.20620256781E+02 -0.18988446693E+02 -0.29451820252E+02  0.50528858178E+02  0.29999994918E+02 0.  0.
        -12    1    1    2    0    0 -0.20620256781E+02  0.18988446693E+02  0.29451820252E+02  0.40659141822E+02  0.00000000000E+00 0.  1.
         11    1    3    3    0    0  0.20054280138E+02 -0.70496171841E+01 -0.14182383677E+02  0.25554085022E+02  0.51100000000E-03 0. -1.
        -11    1    3    3    0    0  0.39507384709E+01 -0.11382081354E+02 -0.17229386954E+02  0.21024078707E+02  0.51100000000E-03 0.  1.
         12    1    3    3    0    0 -0.33847618283E+01 -0.55674815439E+00  0.19599503780E+01  0.39506944486E+01  0.00000000000E+00 0. -1.
</event>
<event>
 7    1  0.2817603E-011  0.5052886E+02  0.7816164E-02  0.1300439E+00
        -11   -1    0    0    0    0  0.00000000000E+00  0.00000000000E+00  0.45593999997E+02  0.45594000000E+02  0.51100000000E-03 0.  1.
         11   -1    0    0    0    0 -0.00000000000E+00 -0.00000000000E+00 -0.45593999997E+02  0.45594000000E+02  0.51100000000E-03 0. -1.
    9900012    2    1    2    0    0 -0.28612087727E+02  0.17002394752E+02 -0.23354493657E+02  0.50528863691E+02  0.30000011676E+02 0.  0.
        -12    1    1    2    0    0  0.28612087727E+02 -0.17002394752E+02  0.23354493657E+02  0.40659136309E+02  0.00000000000E+00 0.  1.
         11    1    3    3    0    0  0.23529492035E+00 -0.62762080628E-01 -0.23984254728E+00  0.34180036120E+00  0.51100000000E-03 0. -1.
        -11    1    3    3    0    0 -0.84830573761E+01 -0.83277626495E+01 -0.77683562442E+01  0.14200748297E+02  0.51100000000E-03 0.  1.
         12    1    3    3    0    0 -0.20364325271E+02  0.25392919482E+02 -0.15346294865E+02  0.35986315033E+02  0.00000000000E+00 0. -1.
</event>
<event>
 7    1  0.2817603E-011  0.5052886E+02  0.7816164E-02  0.1300439E+00
        -11   -1    0    0    0    0  0.00000000000E+00  0.00000000000E+00  0.45593999997E+02  0.45594000000E+02  0.51100000000E-03 0. -1.
         11   -1    0    0    0    0 -0.00000000000E+00 -0.00000000000E+00 -0.45593999997E+02  0.45594000000E+02  0.51100000000E-03 0.  1.
    9900012    2    1    2    0    0 -0.17080812762E+02 -0.11866073828E+02  0.34937202892E+02  0.50528855658E+02  0.29999987259E+02 0.  0.
        -12    1    1    2    0    0  0.17080812762E+02  0.11866073828E+02 -0.34937202892E+02  0.40659144342E+02  0.00000000000E+00 0.  1.
         11    1    3    3    0    0  0.21475421586E+01 -0.18900357370E+01  0.15856576618E+02  0.16112578773E+02  0.51100000000E-03 0. -1.
        -11    1    3    3    0    0 -0.30975366782E+01  0.31565126843E+01  0.11425776279E+02  0.12251802710E+02  0.51100000000E-03 0.  1.
         12    1    3    3    0    0 -0.16130818242E+02 -0.13132550775E+02  0.76548499945E+01  0.22164474175E+02  0.00000000000E+00 0. -1.
</event>
<event>
 7    1  0.2817603E-011  0.5052887E+02  0.7816164E-02  0.1300439E+00
        -11   -1    0    0    0    0  0.00000000000E+00  0.00000000000E+00  0.45593999997E+02  0.45594000000E+02  0.51100000000E-03 0.  1.
         11   -1    0    0    0    0 -0.00000000000E+00 -0.00000000000E+00 -0.45593999997E+02  0.45594000000E+02  0.51100000000E-03 0. -1.
    9900012    2    1    2    0    0  0.18660763504E+02 -0.31617836497E+02 -0.17471505362E+02  0.50528865984E+02  0.30000018646E+02 0.  0.
        -12    1    1    2    0    0 -0.18660763504E+02  0.31617836497E+02  0.17471505362E+02  0.40659134016E+02  0.00000000000E+00 0.  1.
         11    1    3    3    0    0 -0.14856665713E+01 -0.17446729291E+01 -0.30723466955E+01  0.38328061873E+01  0.51100000000E-03 0. -1.
        -11    1    3    3    0    0 -0.33606618817E+01 -0.44363651893E+01  0.45743643032E+01  0.72041788856E+01  0.51100000000E-03 0.  1.
         12    1    3    3    0    0  0.23507091957E+02 -0.25436798378E+02 -0.18973522970E+02  0.39491880911E+02  0.00000000000E+00 0. -1.
</event>
<event>
 7    1  0.2817603E-011  0.5052886E+02  0.7816164E-02  0.1300439E+00
        -11   -1    0    0    0    0  0.00000000000E+00  0.00000000000E+00  0.45593999997E+02  0.45594000000E+02  0.51100000000E-03 0.  1.
         11   -1    0    0    0    0 -0.00000000000E+00 -0.00000000000E+00 -0.45593999997E+02  0.45594000000E+02  0.51100000000E-03 0. -1.
    9900012    2    1    2    0    0  0.32791888980E+02 -0.15344236958E+02 -0.18504368967E+02  0.50528864968E+02  0.30000015556E+02 0.  0.
        -12    1    1    2    0    0 -0.32791888980E+02  0.15344236958E+02  0.18504368967E+02  0.40659135032E+02  0.00000000000E+00 0.  1.
         11    1    3    3    0    0  0.96575001045E+01 -0.22919371788E+01 -0.68592618263E+01  0.12065229271E+02  0.51100000000E-03 0. -1.
        -11    1    3    3    0    0  0.22384006959E+02  0.52356949393E+00 -0.36358611047E+01  0.22683416383E+02  0.51100000000E-03 0.  1.
        -12    1    3    3    0    0  0.75038191679E+00 -0.13575869273E+02 -0.80092460357E+01  0.15780219314E+02  0.00000000000E+00 0.  1.
</event>
<event>
 7    1  0.2817603E-011  0.5052885E+02  0.7816164E-02  0.1300439E+00
        -11   -1    0    0    0    0  0.00000000000E+00  0.00000000000E+00  0.45593999997E+02  0.45594000000E+02  0.51100000000E-03 0.  1.
         11   -1    0    0    0    0 -0.00000000000E+00 -0.00000000000E+00 -0.45593999997E+02  0.45594000000E+02  0.51100000000E-03 0. -1.
    9900012    2    1    2    0    0 -0.16432719307E+02  0.10634406500E+02 -0.35637641124E+02  0.50528851825E+02  0.29999975606E+02 0.  0.
        -12    1    1    2    0    0  0.16432719307E+02 -0.10634406500E+02  0.35637641124E+02  0.40659148175E+02  0.00000000000E+00 0.  1.
         11    1    3    3    0    0 -0.17126679021E+02  0.38028941430E+01 -0.65859013018E+01  0.18739243164E+02  0.51100000000E-03 0. -1.
        -11    1    3    3    0    0 -0.26276793096E+01 -0.16472336892E+01 -0.35662727362E+01  0.47261378388E+01  0.51100000000E-03 0.  1.
         12    1    3    3    0    0  0.33216390229E+01  0.84787460466E+01 -0.25485467086E+02  0.27063470822E+02  0.00000000000E+00 0. -1.
</event>
<event>
 7    1  0.2817603E-011  0.5052886E+02  0.7816164E-02  0.1300439E+00
        -11   -1    0    0    0    0  0.00000000000E+00  0.00000000000E+00  0.45593999997E+02  0.45594000000E+02  0.51100000000E-03 0.  1.
         11   -1    0    0    0    0 -0.00000000000E+00 -0.00000000000E+00 -0.45593999997E+02  0.45594000000E+02  0.51100000000E-03 0. -1.
    9900012    2    1    2    0    0  0.50343143715E+01 -0.39600942093E+02 -0.77192429391E+01  0.50528860223E+02  0.30000001133E+02 0.  0.
        -12    1    1    2    0    0 -0.50343143715E+01  0.39600942093E+02  0.77192429391E+01  0.40659139777E+02  0.00000000000E+00 0.  1.
         11    1    3    3    0    0 -0.42897143404E+00 -0.96869307371E+01 -0.44411751068E+01  0.10665115104E+02  0.51100000000E-03 0. -1.
        -11    1    3    3    0    0 -0.46831851422E+01 -0.27403586307E+02  0.25131068491E+01  0.27914234216E+02  0.51100000000E-03 0.  1.
        -12    1    3    3    0    0  0.10146470948E+02 -0.25104250491E+01 -0.57911746814E+01  0.11949510903E+02  0.00000000000E+00 0.  1.
</event>
<event>
 7    1  0.2817603E-011  0.5052888E+02  0.7816164E-02  0.1300439E+00
        -11   -1    0    0    0    0  0.00000000000E+00  0.00000000000E+00  0.45593999997E+02  0.45594000000E+02  0.51100000000E-03 0.  1.
         11   -1    0    0    0    0 -0.00000000000E+00 -0.00000000000E+00 -0.45593999997E+02  0.45594000000E+02  0.51100000000E-03 0. -1.
    9900012    2    1    2    0    0 -0.16066178757E+02  0.14385915625E+01 -0.37322547904E+02  0.50528877683E+02  0.30000054205E+02 0.  0.
        -12    1    1    2    0    0  0.16066178757E+02 -0.14385915625E+01  0.37322547904E+02  0.40659122317E+02  0.00000000000E+00 0.  1.
         11    1    3    3    0    0 -0.10708237720E+02 -0.86970692976E+01 -0.12740653644E+02  0.18778435104E+02  0.51100000000E-03 0. -1.
        -11    1    3    3    0    0 -0.82866075844E+01 -0.63686801054E+00 -0.67245866963E+01  0.10690815339E+02  0.51100000000E-03 0.  1.
        -12    1    3    3    0    0  0.29286665475E+01  0.10772528871E+02 -0.17857307564E+02  0.21059627239E+02  0.00000000000E+00 0.  1.
</event>
<event>
 7    1  0.2817603E-011  0.5052885E+02  0.7816164E-02  0.1300439E+00
        -11   -1    0    0    0    0  0.00000000000E+00  0.00000000000E+00  0.45593999997E+02  0.45594000000E+02  0.51100000000E-03 0. -1.
         11   -1    0    0    0    0 -0.00000000000E+00 -0.00000000000E+00 -0.45593999997E+02  0.45594000000E+02  0.51100000000E-03 0.  1.
    9900012    2    1    2    0    0 -0.29621176275E+01  0.38251080388E+02  0.13462796263E+02  0.50528853736E+02  0.29999981416E+02 0.  0.
        -12    1    1    2    0    0  0.29621176275E+01 -0.38251080388E+02 -0.13462796263E+02  0.40659146264E+02  0.00000000000E+00 0.  1.
         11    1    3    3    0    0 -0.92804155895E+00 -0.91196982918E-01  0.33298942751E+00  0.99018192510E+00  0.51100000000E-03 0. -1.
        -11    1    3    3    0    0  0.52097637776E+01  0.16046411555E-01 -0.43587098616E+01  0.67926613359E+01  0.51100000000E-03 0.  1.
         12    1    3    3    0    0 -0.72438398461E+01  0.38326230959E+02  0.17488516698E+02  0.42746010475E+02  0.00000000000E+00 0. -1.
</event>
<event>
 7    1  0.2817603E-011  0.5052886E+02  0.7816164E-02  0.1300439E+00
        -11   -1    0    0    0    0  0.00000000000E+00  0.00000000000E+00  0.45593999997E+02  0.45594000000E+02  0.51100000000E-03 0.  1.
         11   -1    0    0    0    0 -0.00000000000E+00 -0.00000000000E+00 -0.45593999997E+02  0.45594000000E+02  0.51100000000E-03 0. -1.
    9900012    2    1    2    0    0  0.60888189795E+01  0.33734604940E+02  0.21864780834E+02  0.50528856773E+02  0.29999990648E+02 0.  0.
        -12    1    1    2    0    0 -0.60888189795E+01 -0.33734604940E+02 -0.21864780834E+02  0.40659143227E+02  0.00000000000E+00 0.  1.
         11    1    3    3    0    0 -0.44178730461E+01  0.19421328607E+02  0.90337324793E+01  0.21870389340E+02  0.51100000000E-03 0. -1.
        -11    1    3    3    0    0 -0.52096198867E+01  0.37561427669E+01  0.51276365205E+01  0.82183577676E+01  0.51100000000E-03 0.  1.
         12    1    3    3    0    0  0.15716311912E+02  0.10557133566E+02  0.77034118341E+01  0.20440109665E+02  0.00000000000E+00 0. -1.
</event>
<event>
 7    1  0.2817603E-011  0.5052887E+02  0.7816164E-02  0.1300439E+00
        -11   -1    0    0    0    0  0.00000000000E+00  0.00000000000E+00  0.45593999997E+02  0.45594000000E+02  0.51100000000E-03 0. -1.
         11   -1    0    0    0    0 -0.00000000000E+00 -0.00000000000E+00 -0.45593999997E+02  0.45594000000E+02  0.51100000000E-03 0.  1.
    9900012    2    1    2    0    0  0.25140482367E+02  0.92366093531E-01  0.31954852597E+02  0.50528868311E+02  0.30000025720E+02 0.  0.
        -12    1    1    2    0    0 -0.25140482367E+02 -0.92366093531E-01 -0.31954852597E+02  0.40659131689E+02  0.00000000000E+00 0.  1.
         11    1    3    3    0    0  0.19373321784E+01  0.14110560172E+01  0.13561335588E+01  0.27538034686E+01  0.51100000000E-03 0. -1.
        -11    1    3    3    0    0  0.47227836885E+01  0.10838344582E+02  0.20031340688E+02  0.23260030290E+02  0.51100000000E-03 0.  1.
         12    1    3    3    0    0  0.18480366500E+02 -0.12157034506E+02  0.10567378350E+02  0.24515034553E+02  0.00000000000E+00 0. -1.
</event>
<event>
 7    1  0.2817603E-011  0.5052886E+02  0.7816164E-02  0.1300439E+00
        -11   -1    0    0    0    0  0.00000000000E+00  0.00000000000E+00  0.45593999997E+02  0.45594000000E+02  0.51100000000E-03 0. -1.
         11   -1    0    0    0    0 -0.00000000000E+00 -0.00000000000E+00 -0.45593999997E+02  0.45594000000E+02  0.51100000000E-03 0.  1.
    9900012    2    1    2    0    0  0.30206269732E+01  0.93992206996E+01  0.39442318877E+02  0.50528855205E+02  0.29999985881E+02 0.  0.
        -12    1    1    2    0    0 -0.30206269732E+01 -0.93992206996E+01 -0.39442318877E+02  0.40659144795E+02  0.00000000000E+00 0.  1.
         11    1    3    3    0    0 -0.55084183394E+01  0.77819142115E+01  0.12669176586E+02  0.15855878942E+02  0.51100000000E-03 0. -1.
        -11    1    3    3    0    0  0.42666272536E+01  0.50401289787E+01  0.28249057146E+02  0.29010622850E+02  0.51100000000E-03 0.  1.
        -12    1    3    3    0    0  0.42624180590E+01 -0.34228224906E+01 -0.14759148549E+01  0.56623534127E+01  0.00000000000E+00 0.  1.
</event>
<event>
 7    1  0.2817603E-011  0.5052886E+02  0.7816164E-02  0.1300439E+00
        -11   -1    0    0    0    0  0.00000000000E+00  0.00000000000E+00  0.45593999997E+02  0.45594000000E+02  0.51100000000E-03 0.  1.
         11   -1    0    0    0    0 -0.00000000000E+00 -0.00000000000E+00 -0.45593999997E+02  0.45594000000E+02  0.51100000000E-03 0. -1.
    9900012    2    1    2    0    0  0.25452402484E+02 -0.31494770731E+02  0.36633659678E+01  0.50528860488E+02  0.30000001940E+02 0.  0.
        -12    1    1    2    0    0 -0.25452402484E+02  0.31494770731E+02 -0.36633659678E+01  0.40659139512E+02  0.00000000000E+00 0.  1.
         11    1    3    3    0    0  0.11931697688E+02 -0.20700889041E+02 -0.60787682709E+01  0.24654485206E+02  0.51100000000E-03 0. -1.
        -11    1    3    3    0    0  0.29917270145E+01  0.36604389625E+01 -0.12417898734E+01  0.48878713443E+01  0.51100000000E-03 0.  1.
         12    1    3    3    0    0  0.10528977782E+02 -0.14454320653E+02  0.10983924112E+02  0.20986503938E+02  0.00000000000E+00 0. -1.
</event>
<event>
 7    1  0.2817603E-011  0.5052886E+02  0.7816164E-02  0.1300439E+00
        -11   -1    0    0    0    0  0.00000000000E+00  0.00000000000E+00  0.45593999997E+02  0.45594000000E+02  0.51100000000E-03 0.  1.
         11   -1    0    0    0    0 -0.00000000000E+00 -0.00000000000E+00 -0.45593999997E+02  0.45594000000E+02  0.51100000000E-03 0. -1.
    9900012    2    1    2    0    0  0.27990350582E+02  0.67379877186E+01 -0.28710719672E+02  0.50528860458E+02  0.30000001848E+02 0.  0.
        -12    1    1    2    0    0 -0.27990350582E+02 -0.67379877186E+01  0.28710719672E+02  0.40659139542E+02  0.00000000000E+00 0.  1.
         11    1    3    3    0    0  0.77940439236E+01  0.66356367675E+01 -0.83073805014E+01  0.13182995375E+02  0.51100000000E-03 0. -1.
        -11    1    3    3    0    0 -0.17528659859E+01 -0.36332943299E+01 -0.13417559471E+02  0.14010862545E+02  0.51100000000E-03 0.  1.
         12    1    3    3    0    0  0.21949172644E+02  0.37356452810E+01 -0.69857796998E+01  0.23335002538E+02  0.00000000000E+00 0. -1.
</event>
<event>
 7    1  0.2817603E-011  0.5052886E+02  0.7816164E-02  0.1300439E+00
        -11   -1    0    0    0    0  0.00000000000E+00  0.00000000000E+00  0.45593999997E+02  0.45594000000E+02  0.51100000000E-03 0. -1.
         11   -1    0    0    0    0 -0.00000000000E+00 -0.00000000000E+00 -0.45593999997E+02  0.45594000000E+02  0.51100000000E-03 0.  1.
    9900012    2    1    2    0    0  0.37938894644E+02 -0.73276755856E+01 -0.12653493860E+02  0.50528862489E+02  0.30000008021E+02 0.  0.
        -12    1    1    2    0    0 -0.37938894644E+02  0.73276755856E+01  0.12653493860E+02  0.40659137511E+02  0.00000000000E+00 0.  1.
         11    1    3    3    0    0  0.15053520513E+02 -0.72760118697E+01 -0.76279566646E+00  0.16737105068E+02  0.51100000000E-03 0. -1.
        -11    1    3    3    0    0  0.58430723497E+01 -0.10227599482E+02 -0.42275073395E+01  0.12514675554E+02  0.51100000000E-03 0.  1.
         12    1    3    3    0    0  0.17042301781E+02  0.10175935766E+02 -0.76631908541E+01  0.21277081867E+02  0.00000000000E+00 0. -1.
</event>
<event>
 7    1  0.2817603E-011  0.5052892E+02  0.7816164E-02  0.1300439E+00
        -11   -1    0    0    0    0  0.00000000000E+00  0.00000000000E+00  0.45593999997E+02  0.45594000000E+02  0.51100000000E-03 0. -1.
         11   -1    0    0    0    0 -0.00000000000E+00 -0.00000000000E+00 -0.45593999997E+02  0.45594000000E+02  0.51100000000E-03 0.  1.
    9900012    2    1    2    0    0  0.24936678444E+02 -0.29825604431E+02  0.11906131182E+02  0.50528922647E+02  0.30000190876E+02 0.  0.
        -12    1    1    2    0    0 -0.24936678444E+02  0.29825604431E+02 -0.11906131182E+02  0.40659077353E+02  0.00000000000E+00 0.  1.
         11    1    3    3    0    0 -0.40791338072E+01 -0.20657947355E+01  0.50207384910E+01  0.67907772576E+01  0.51100000000E-03 0. -1.
        -11    1    3    3    0    0  0.47579720209E+01 -0.57661803277E+01 -0.48992859111E+01  0.89381282169E+01  0.51100000000E-03 0.  1.
         12    1    3    3    0    0  0.24257840231E+02 -0.21993629368E+02  0.11784678602E+02  0.34800017172E+02  0.00000000000E+00 0. -1.
</event>
<event>
 7    1  0.2817603E-011  0.5052885E+02  0.7816164E-02  0.1300439E+00
        -11   -1    0    0    0    0  0.00000000000E+00  0.00000000000E+00  0.45593999997E+02  0.45594000000E+02  0.51100000000E-03 0.  1.
         11   -1    0    0    0    0 -0.00000000000E+00 -0.00000000000E+00 -0.45593999997E+02  0.45594000000E+02  0.51100000000E-03 0. -1.
    9900012    2    1    2    0    0  0.28124849362E+02  0.29115682077E+02  0.37994793846E+01  0.50528854189E+02  0.29999982794E+02 0.  0.
        -12    1    1    2    0    0 -0.28124849362E+02 -0.29115682077E+02 -0.37994793846E+01  0.40659145811E+02  0.00000000000E+00 0.  1.
         11    1    3    3    0    0  0.22736615963E+02  0.16064494607E+02  0.38827888999E+00  0.27841918992E+02  0.51100000000E-03 0. -1.
        -11    1    3    3    0    0  0.65100576878E+01 -0.12863980160E+01 -0.25634284229E+01  0.71138482198E+01  0.51100000000E-03 0.  1.
         12    1    3    3    0    0 -0.11218242884E+01  0.14337585486E+02  0.59746289175E+01  0.15573086977E+02  0.00000000000E+00 0. -1.
</event>
<event>
 7    1  0.2817603E-011  0.5052885E+02  0.7816164E-02  0.1300439E+00
        -11   -1    0    0    0    0  0.00000000000E+00  0.00000000000E+00  0.45593999997E+02  0.45594000000E+02  0.51100000000E-03 0. -1.
         11   -1    0    0    0    0 -0.00000000000E+00 -0.00000000000E+00 -0.45593999997E+02  0.45594000000E+02  0.51100000000E-03 0.  1.
    9900012    2    1    2    0    0 -0.11812679534E+02  0.24425798591E+02  0.30282125836E+02  0.50528853677E+02  0.29999981237E+02 0.  0.
        -12    1    1    2    0    0  0.11812679534E+02 -0.24425798591E+02 -0.30282125836E+02  0.40659146323E+02  0.00000000000E+00 0.  1.
         11    1    3    3    0    0 -0.15267875927E+02  0.43201577466E+01  0.21434532986E+02  0.26668539572E+02  0.51100000000E-03 0. -1.
        -11    1    3    3    0    0 -0.34257864123E+00  0.30458065561E+01 -0.16415382635E+01  0.34769161386E+01  0.51100000000E-03 0.  1.
        -12    1    3    3    0    0  0.37977750350E+01  0.17059834288E+02  0.10489131113E+02  0.20383397967E+02  0.00000000000E+00 0.  1.
</event>
<event>
 7    1  0.2817603E-011  0.5052885E+02  0.7816164E-02  0.1300439E+00
        -11   -1    0    0    0    0  0.00000000000E+00  0.00000000000E+00  0.45593999997E+02  0.45594000000E+02  0.51100000000E-03 0.  1.
         11   -1    0    0    0    0 -0.00000000000E+00 -0.00000000000E+00 -0.45593999997E+02  0.45594000000E+02  0.51100000000E-03 0. -1.
    9900012    2    1    2    0    0 -0.21633100139E+02 -0.33504975502E+02 -0.79115181292E+01  0.50528849442E+02  0.29999968363E+02 0.  0.
        -12    1    1    2    0    0  0.21633100139E+02  0.33504975502E+02  0.79115181292E+01  0.40659150558E+02  0.00000000000E+00 0.  1.
         11    1    3    3    0    0 -0.22816496062E+02 -0.16390866397E+02 -0.11553809461E+02  0.30376693486E+02  0.51100000000E-03 0. -1.
        -11    1    3    3    0    0 -0.41635796052E+01 -0.85208790887E+01  0.32446235296E+01  0.10023390528E+02  0.51100000000E-03 0.  1.
        -12    1    3    3    0    0  0.53469755280E+01 -0.85932300159E+01  0.39766780255E+00  0.10128765427E+02  0.00000000000E+00 0.  1.
</event>
<event>
 7    1  0.2817603E-011  0.5052893E+02  0.7816164E-02  0.1300439E+00
        -11   -1    0    0    0    0  0.00000000000E+00  0.00000000000E+00  0.45593999997E+02  0.45594000000E+02  0.51100000000E-03 0.  1.
         11   -1    0    0    0    0 -0.00000000000E+00 -0.00000000000E+00 -0.45593999997E+02  0.45594000000E+02  0.51100000000E-03 0. -1.
    9900012    2    1    2    0    0  0.20233306763E+02  0.60898520376E+01 -0.34737400507E+02  0.50528929740E+02  0.30000212436E+02 0.  0.
        -12    1    1    2    0    0 -0.20233306763E+02 -0.60898520376E+01  0.34737400507E+02  0.40659070260E+02  0.00000000000E+00 0.  1.
         11    1    3    3    0    0  0.72266983707E+01  0.55909826089E+01 -0.20895074652E+02  0.22805446736E+02  0.51100000000E-03 0. -1.
        -11    1    3    3    0    0  0.14512943448E+02  0.57502059821E+01 -0.15515826086E+02  0.22009799085E+02  0.51100000000E-03 0.  1.
        -12    1    3    3    0    0 -0.15063350551E+01 -0.52513365535E+01  0.16735002310E+01  0.57136839184E+01  0.00000000000E+00 0.  1.
</event>
<event>
 7    1  0.2817603E-011  0.5052885E+02  0.7816164E-02  0.1300439E+00
        -11   -1    0    0    0    0  0.00000000000E+00  0.00000000000E+00  0.45593999997E+02  0.45594000000E+02  0.51100000000E-03 0.  1.
         11   -1    0    0    0    0 -0.00000000000E+00 -0.00000000000E+00 -0.45593999997E+02  0.45594000000E+02  0.51100000000E-03 0. -1.
    9900012    2    1    2    0    0 -0.14965924378E+02  0.28997788645E+02 -0.24255217407E+02  0.50528853302E+02  0.29999980097E+02 0.  0.
        -12    1    1    2    0    0  0.14965924378E+02 -0.28997788645E+02  0.24255217407E+02  0.40659146698E+02  0.00000000000E+00 0.  1.
         11    1    3    3    0    0 -0.37790176599E+01  0.44929799301E+01 -0.16416781818E+02  0.17434981177E+02  0.51100000000E-03 0. -1.
        -11    1    3    3    0    0 -0.13666006211E+02  0.19368781028E+02 -0.11468880012E+02  0.26333336539E+02  0.51100000000E-03 0.  1.
        -12    1    3    3    0    0  0.24790994935E+01  0.51360276868E+01  0.36304444235E+01  0.67605355860E+01  0.00000000000E+00 0.  1.
</event>
<event>
 7    1  0.2817603E-011  0.5052885E+02  0.7816164E-02  0.1300439E+00
        -11   -1    0    0    0    0  0.00000000000E+00  0.00000000000E+00  0.45593999997E+02  0.45594000000E+02  0.51100000000E-03 0. -1.
         11   -1    0    0    0    0 -0.00000000000E+00 -0.00000000000E+00 -0.45593999997E+02  0.45594000000E+02  0.51100000000E-03 0.  1.
    9900012    2    1    2    0    0 -0.26923341786E+02 -0.10282277508E+02  0.28680569964E+02  0.50528847806E+02  0.29999963391E+02 0.  0.
        -12    1    1    2    0    0  0.26923341786E+02  0.10282277508E+02 -0.28680569964E+02  0.40659152194E+02  0.00000000000E+00 0.  1.
         11    1    3    3    0    0  0.15322692798E+01 -0.43293990013E+01  0.14657965201E+02  0.15360582312E+02  0.51100000000E-03 0. -1.
        -11    1    3    3    0    0 -0.56204368078E+00  0.29225134098E+01  0.14579485772E+01  0.33139994032E+01  0.51100000000E-03 0.  1.
         12    1    3    3    0    0 -0.27893567385E+02 -0.88753919168E+01  0.12564656185E+02  0.31854266091E+02  0.00000000000E+00 0. -1.
</event>
<event>
 7    1  0.2817603E-011  0.5052884E+02  0.7816164E-02  0.1300439E+00
        -11   -1    0    0    0    0  0.00000000000E+00  0.00000000000E+00  0.45593999997E+02  0.45594000000E+02  0.51100000000E-03 0.  1.
         11   -1    0    0    0    0 -0.00000000000E+00 -0.00000000000E+00 -0.45593999997E+02  0.45594000000E+02  0.51100000000E-03 0. -1.
    9900012    2    1    2    0    0 -0.46563451335E+01  0.26246644126E+02 -0.30701780112E+02  0.50528841377E+02  0.29999943850E+02 0.  0.
        -12    1    1    2    0    0  0.46563451335E+01 -0.26246644126E+02  0.30701780112E+02  0.40659158623E+02  0.00000000000E+00 0.  1.
         11    1    3    3    0    0 -0.47994190917E+01  0.88116252579E+01 -0.33678162911E+01  0.10584013895E+02  0.51100000000E-03 0. -1.
        -11    1    3    3    0    0  0.49489945563E+01  0.79231701938E+01  0.12628810286E+01  0.94267726074E+01  0.51100000000E-03 0.  1.
         12    1    3    3    0    0 -0.48059205981E+01  0.95118486747E+01 -0.28596844849E+02  0.30518054875E+02  0.00000000000E+00 0. -1.
</event>
<event>
 7    1  0.2817603E-011  0.5052885E+02  0.7816164E-02  0.1300439E+00
        -11   -1    0    0    0    0  0.00000000000E+00  0.00000000000E+00  0.45593999997E+02  0.45594000000E+02  0.51100000000E-03 0.  1.
         11   -1    0    0    0    0 -0.00000000000E+00 -0.00000000000E+00 -0.45593999997E+02  0.45594000000E+02  0.51100000000E-03 0. -1.
    9900012    2    1    2    0    0  0.17380386783E+02  0.35492163243E+02  0.95600552899E+01  0.50528853999E+02  0.29999982216E+02 0.  0.
        -12    1    1    2    0    0 -0.17380386783E+02 -0.35492163243E+02 -0.95600552899E+01  0.40659146001E+02  0.00000000000E+00 0.  1.
         11    1    3    3    0    0  0.96128934691E+01  0.10497637973E+01 -0.42439562883E+01  0.10560345170E+02  0.51100000000E-03 0. -1.
        -11    1    3    3    0    0  0.47432996825E-01  0.12216707810E+01 -0.20272515986E+01  0.23673780204E+01  0.51100000000E-03 0.  1.
        -12    1    3    3    0    0  0.77200603167E+01  0.33220728665E+02  0.15831263177E+02  0.37601130808E+02  0.00000000000E+00 0.  1.
</event>
<event>
 7    1  0.2817603E-011  0.5052886E+02  0.7816164E-02  0.1300439E+00
        -11   -1    0    0    0    0  0.00000000000E+00  0.00000000000E+00  0.45593999997E+02  0.45594000000E+02  0.51100000000E-03 0.  1.
         11   -1    0    0    0    0 -0.00000000000E+00 -0.00000000000E+00 -0.45593999997E+02  0.45594000000E+02  0.51100000000E-03 0. -1.
    9900012    2    1    2    0    0 -0.12982376594E+02 -0.27915180304E+02 -0.26558725112E+02  0.50528864827E+02  0.30000015130E+02 0.  0.
        -12    1    1    2    0    0  0.12982376594E+02  0.27915180304E+02  0.26558725112E+02  0.40659135173E+02  0.00000000000E+00 0.  1.
         11    1    3    3    0    0 -0.41219757987E+01 -0.47718114477E+00 -0.93671026133E+01  0.10245047485E+02  0.51100000000E-03 0. -1.
        -11    1    3    3    0    0 -0.11360589068E+02 -0.29437996698E+01 -0.43618090572E+01  0.12520156508E+02  0.51100000000E-03 0.  1.
         12    1    3    3    0    0  0.25001882730E+01 -0.24494199489E+02 -0.12829813441E+02  0.27763660835E+02  0.00000000000E+00 0. -1.
</event>
<event>
 7    1  0.2817603E-011  0.5052885E+02  0.7816164E-02  0.1300439E+00
        -11   -1    0    0    0    0  0.00000000000E+00  0.00000000000E+00  0.45593999997E+02  0.45594000000E+02  0.51100000000E-03 0. -1.
         11   -1    0    0    0    0 -0.00000000000E+00 -0.00000000000E+00 -0.45593999997E+02  0.45594000000E+02  0.51100000000E-03 0.  1.
    9900012    2    1    2    0    0 -0.72364505207E+01  0.28856655234E+02 -0.27714503605E+02  0.50528850016E+02  0.29999970107E+02 0.  0.
        -12    1    1    2    0    0  0.72364505207E+01 -0.28856655234E+02  0.27714503605E+02  0.40659149984E+02  0.00000000000E+00 0.  1.
         11    1    3    3    0    0 -0.48923585091E+01 -0.42968707658E+00  0.24204082559E+01  0.54752332509E+01  0.51100000000E-03 0.  1.
        -11    1    3    3    0    0  0.28833139093E+01  0.12985630727E+02 -0.41451573012E+01  0.13932782701E+02  0.51100000000E-03 0. -1.
        -12    1    3    3    0    0 -0.52274059210E+01  0.16300711584E+02 -0.25989754559E+02  0.31120834064E+02  0.00000000000E+00 0.  1.
</event>
<event>
 7    1  0.2817603E-011  0.5052886E+02  0.7816164E-02  0.1300439E+00
        -11   -1    0    0    0    0  0.00000000000E+00  0.00000000000E+00  0.45593999997E+02  0.45594000000E+02  0.51100000000E-03 0. -1.
         11   -1    0    0    0    0 -0.00000000000E+00 -0.00000000000E+00 -0.45593999997E+02  0.45594000000E+02  0.51100000000E-03 0.  1.
    9900012    2    1    2    0    0  0.31850056731E+02 -0.22952966653E+02 -0.10578319610E+02  0.50528860342E+02  0.30000001495E+02 0.  0.
        -12    1    1    2    0    0 -0.31850056731E+02  0.22952966653E+02  0.10578319610E+02  0.40659139658E+02  0.00000000000E+00 0.  1.
         11    1    3    3    0    0  0.19628183468E+02 -0.49302349593E+01 -0.73435597450E+00  0.20251224209E+02  0.51100000000E-03 0. -1.
        -11    1    3    3    0    0  0.14301950639E+02 -0.20622744605E+02 -0.98154057006E+01  0.26947830645E+02  0.51100000000E-03 0.  1.
         12    1    3    3    0    0 -0.20800773763E+01  0.26000129111E+01 -0.28557935025E-01  0.33298054875E+01  0.00000000000E+00 0. -1.
</event>
<event>
 7    1  0.2817603E-011  0.5052885E+02  0.7816164E-02  0.1300439E+00
        -11   -1    0    0    0    0  0.00000000000E+00  0.00000000000E+00  0.45593999997E+02  0.45594000000E+02  0.51100000000E-03 0.  1.
         11   -1    0    0    0    0 -0.00000000000E+00 -0.00000000000E+00 -0.45593999997E+02  0.45594000000E+02  0.51100000000E-03 0. -1.
    9900012    2    1    2    0    0 -0.12608429906E+02 -0.21695638889E+02 -0.31992074362E+02  0.50528854984E+02  0.29999985208E+02 0.  0.
        -12    1    1    2    0    0  0.12608429906E+02  0.21695638889E+02  0.31992074362E+02  0.40659145016E+02  0.00000000000E+00 0.  1.
         11    1    3    3    0    0 -0.21539331627E+01  0.49441880864E+00 -0.16854195298E+01  0.27793015814E+01  0.51100000000E-03 0. -1.
        -11    1    3    3    0    0  0.17227768801E+01 -0.86275500655E+01  0.33986203532E+01  0.94315004574E+01  0.51100000000E-03 0.  1.
         12    1    3    3    0    0 -0.12177273623E+02 -0.13562507632E+02 -0.33705275185E+02  0.38318052945E+02  0.00000000000E+00 0. -1.
</event>
<event>
 7    1  0.2817603E-011  0.5052886E+02  0.7816164E-02  0.1300439E+00
        -11   -1    0    0    0    0  0.00000000000E+00  0.00000000000E+00  0.45593999997E+02  0.45594000000E+02  0.51100000000E-03 0.  1.
         11   -1    0    0    0    0 -0.00000000000E+00 -0.00000000000E+00 -0.45593999997E+02  0.45594000000E+02  0.51100000000E-03 0. -1.
    9900012    2    1    2    0    0 -0.21928456952E+02 -0.13781249592E+02 -0.31343033163E+02  0.50528858439E+02  0.29999995711E+02 0.  0.
        -12    1    1    2    0    0  0.21928456952E+02  0.13781249592E+02  0.31343033163E+02  0.40659141561E+02  0.00000000000E+00 0.  1.
         11    1    3    3    0    0 -0.13510809529E+02  0.23611918033E+01 -0.25209738530E+02  0.28699270337E+02  0.51100000000E-03 0. -1.
        -11    1    3    3    0    0  0.97746416494E+00 -0.53584689549E+01  0.14561524732E+01  0.56381739970E+01  0.51100000000E-03 0.  1.
        -12    1    3    3    0    0 -0.93951115876E+01 -0.10783972441E+02 -0.75894471066E+01  0.16191414105E+02  0.00000000000E+00 0.  1.
</event>
<event>
 7    1  0.2817603E-011  0.5052885E+02  0.7816164E-02  0.1300439E+00
        -11   -1    0    0    0    0  0.00000000000E+00  0.00000000000E+00  0.45593999997E+02  0.45594000000E+02  0.51100000000E-03 0. -1.
         11   -1    0    0    0    0 -0.00000000000E+00 -0.00000000000E+00 -0.45593999997E+02  0.45594000000E+02  0.51100000000E-03 0.  1.
    9900012    2    1    2    0    0 -0.87647213301E+01 -0.38286896301E+02  0.10509988088E+02  0.50528848287E+02  0.29999964854E+02 0.  0.
        -12    1    1    2    0    0  0.87647213301E+01  0.38286896301E+02 -0.10509988088E+02  0.40659151713E+02  0.00000000000E+00 0.  1.
         11    1    3    3    0    0 -0.32225537796E+01 -0.22871179240E+01  0.45947903913E+01  0.60603514965E+01  0.51100000000E-03 0. -1.
        -11    1    3    3    0    0 -0.14087502464E+02 -0.16223367427E+02  0.77634298649E+01  0.22845704626E+02  0.51100000000E-03 0.  1.
        -12    1    3    3    0    0  0.85453349131E+01 -0.19776410950E+02 -0.18482321680E+01  0.21622792165E+02  0.00000000000E+00 0.  1.
</event>
<event>
 7    1  0.2817603E-011  0.5052885E+02  0.7816164E-02  0.1300439E+00
        -11   -1    0    0    0    0  0.00000000000E+00  0.00000000000E+00  0.45593999997E+02  0.45594000000E+02  0.51100000000E-03 0.  1.
         11   -1    0    0    0    0 -0.00000000000E+00 -0.00000000000E+00 -0.45593999997E+02  0.45594000000E+02  0.51100000000E-03 0. -1.
    9900012    2    1    2    0    0 -0.51781265717E+00  0.13072005269E+02 -0.38497024075E+02  0.50528852022E+02  0.29999976206E+02 0.  0.
        -12    1    1    2    0    0  0.51781265717E+00 -0.13072005269E+02  0.38497024075E+02  0.40659147978E+02  0.00000000000E+00 0.  1.
         11    1    3    3    0    0  0.30587448720E+01  0.17164779073E+00 -0.21803922329E+02  0.22018092841E+02  0.51100000000E-03 0. -1.
        -11    1    3    3    0    0 -0.94054497671E+00  0.86021380344E+01 -0.20461440324E+02  0.22216028988E+02  0.51100000000E-03 0.  1.
        -12    1    3    3    0    0 -0.26360125524E+01  0.42982194434E+01  0.37683385783E+01  0.62947301928E+01  0.00000000000E+00 0.  1.
</event>
<event>
 7    1  0.2817603E-011  0.5052886E+02  0.7816164E-02  0.1300439E+00
        -11   -1    0    0    0    0  0.00000000000E+00  0.00000000000E+00  0.45593999997E+02  0.45594000000E+02  0.51100000000E-03 0.  1.
         11   -1    0    0    0    0 -0.00000000000E+00 -0.00000000000E+00 -0.45593999997E+02  0.45594000000E+02  0.51100000000E-03 0. -1.
    9900012    2    1    2    0    0 -0.29208719042E+02  0.21339847493E+02 -0.18564133988E+02  0.50528862899E+02  0.30000009266E+02 0.  0.
        -12    1    1    2    0    0  0.29208719042E+02 -0.21339847493E+02  0.18564133988E+02  0.40659137101E+02  0.00000000000E+00 0.  1.
         11    1    3    3    0    0 -0.97516283180E+01  0.70517307560E+01 -0.52291118235E+00  0.12045521901E+02  0.51100000000E-03 0. -1.
        -11    1    3    3    0    0 -0.24768562472E+02  0.10343846294E+02 -0.11570927996E+02  0.29229492264E+02  0.51100000000E-03 0.  1.
        -12    1    3    3    0    0  0.53114717475E+01  0.39442704430E+01 -0.64702948095E+01  0.92538487330E+01  0.00000000000E+00 0.  1.
</event>
<event>
 7    1  0.2817603E-011  0.5052886E+02  0.7816164E-02  0.1300439E+00
        -11   -1    0    0    0    0  0.00000000000E+00  0.00000000000E+00  0.45593999997E+02  0.45594000000E+02  0.51100000000E-03 0.  1.
         11   -1    0    0    0    0 -0.00000000000E+00 -0.00000000000E+00 -0.45593999997E+02  0.45594000000E+02  0.51100000000E-03 0. -1.
    9900012    2    1    2    0    0  0.39892893977E+02 -0.33581111784E+01 -0.71024914545E+01  0.50528864674E+02  0.30000014664E+02 0.  0.
        -12    1    1    2    0    0 -0.39892893977E+02  0.33581111784E+01  0.71024914545E+01  0.40659135326E+02  0.00000000000E+00 0.  1.
         11    1    3    3    0    0  0.12742352393E+02  0.82892059390E+01 -0.25733900354E+01  0.15417548967E+02  0.51100000000E-03 0. -1.
        -11    1    3    3    0    0  0.11254668512E+02 -0.35410662629E+01  0.71401353681E+01  0.13790875495E+02  0.51100000000E-03 0.  1.
         12    1    3    3    0    0  0.15895873072E+02 -0.81062508545E+01 -0.11669236787E+02  0.21320440212E+02  0.00000000000E+00 0. -1.
</event>
<event>
 7    1  0.2817603E-011  0.5052885E+02  0.7816164E-02  0.1300439E+00
        -11   -1    0    0    0    0  0.00000000000E+00  0.00000000000E+00  0.45593999997E+02  0.45594000000E+02  0.51100000000E-03 0.  1.
         11   -1    0    0    0    0 -0.00000000000E+00 -0.00000000000E+00 -0.45593999997E+02  0.45594000000E+02  0.51100000000E-03 0. -1.
    9900012    2    1    2    0    0  0.25635631111E+02 -0.69419812802E+01 -0.30786196714E+02  0.50528848574E+02  0.29999965726E+02 0.  0.
        -12    1    1    2    0    0 -0.25635631111E+02  0.69419812802E+01  0.30786196714E+02  0.40659151426E+02  0.00000000000E+00 0.  1.
         11    1    3    3    0    0  0.12401304189E+02 -0.71300431707E+01 -0.13038638004E+02  0.19355514524E+02  0.51100000000E-03 0. -1.
        -11    1    3    3    0    0  0.28779350405E+01  0.17915992530E+01 -0.20140495419E+02  0.20423807039E+02  0.51100000000E-03 0.  1.
        -12    1    3    3    0    0  0.10356391882E+02 -0.16035373624E+01  0.23929367093E+01  0.10749527012E+02  0.00000000000E+00 0.  1.
</event>
<event>
 7    1  0.2817603E-011  0.5052886E+02  0.7816164E-02  0.1300439E+00
        -11   -1    0    0    0    0  0.00000000000E+00  0.00000000000E+00  0.45593999997E+02  0.45594000000E+02  0.51100000000E-03 0.  1.
         11   -1    0    0    0    0 -0.00000000000E+00 -0.00000000000E+00 -0.45593999997E+02  0.45594000000E+02  0.51100000000E-03 0. -1.
    9900012    2    1    2    0    0  0.34936733767E+02  0.20280436115E+02 -0.46145701297E+01  0.50528859419E+02  0.29999998689E+02 0.  0.
        -12    1    1    2    0    0 -0.34936733767E+02 -0.20280436115E+02  0.46145701297E+01  0.40659140581E+02  0.00000000000E+00 0.  1.
         11    1    3    3    0    0  0.17163198138E+02  0.69242206198E+01  0.24799528856E+01  0.18672717213E+02  0.51100000000E-03 0. -1.
        -11    1    3    3    0    0  0.24714374209E+01  0.13406065801E+02  0.24087165375E+01  0.13843139774E+02  0.51100000000E-03 0.  1.
         12    1    3    3    0    0  0.15302098208E+02 -0.49850305811E-01 -0.95032395528E+01  0.18013002432E+02  0.00000000000E+00 0. -1.
</event>
<event>
 7    1  0.2817603E-011  0.5052885E+02  0.7816164E-02  0.1300439E+00
        -11   -1    0    0    0    0  0.00000000000E+00  0.00000000000E+00  0.45593999997E+02  0.45594000000E+02  0.51100000000E-03 0. -1.
         11   -1    0    0    0    0 -0.00000000000E+00 -0.00000000000E+00 -0.45593999997E+02  0.45594000000E+02  0.51100000000E-03 0.  1.
    9900012    2    1    2    0    0  0.28529060696E+02  0.21568835854E+02  0.19340226345E+02  0.50528851714E+02  0.29999975268E+02 0.  0.
        -12    1    1    2    0    0 -0.28529060696E+02 -0.21568835854E+02 -0.19340226345E+02  0.40659148286E+02  0.00000000000E+00 0.  1.
         11    1    3    3    0    0  0.67461199641E+00 -0.53180249978E+01  0.33133812996E+01  0.63019827928E+01  0.51100000000E-03 0. -1.
        -11    1    3    3    0    0  0.10222142814E+01 -0.54852012829E+00 -0.16167181570E+01  0.19898678922E+01  0.51100000000E-03 0.  1.
         12    1    3    3    0    0  0.26832234419E+02  0.27435380980E+02  0.17643563203E+02  0.42237001028E+02  0.00000000000E+00 0. -1.
</event>
<event>
 7    1  0.2817603E-011  0.5052886E+02  0.7816164E-02  0.1300439E+00
        -11   -1    0    0    0    0  0.00000000000E+00  0.00000000000E+00  0.45593999997E+02  0.45594000000E+02  0.51100000000E-03 0.  1.
         11   -1    0    0    0    0 -0.00000000000E+00 -0.00000000000E+00 -0.45593999997E+02  0.45594000000E+02  0.51100000000E-03 0. -1.
    9900012    2    1    2    0    0 -0.67982741598E+01  0.86079227160E+01 -0.39151668509E+02  0.50528855739E+02  0.29999987503E+02 0.  0.
        -12    1    1    2    0    0  0.67982741598E+01 -0.86079227160E+01  0.39151668509E+02  0.40659144261E+02  0.00000000000E+00 0.  1.
         11    1    3    3    0    0  0.49176533366E+01  0.29760897142E+01 -0.19517737870E+02  0.20346560302E+02  0.51100000000E-03 0. -1.
        -11    1    3    3    0    0  0.32852993353E+01 -0.11653646045E+01  0.11440859506E+01  0.36688144280E+01  0.51100000000E-03 0.  1.
         12    1    3    3    0    0 -0.15001226832E+02  0.67971976063E+01 -0.20778016590E+02  0.26513481008E+02  0.00000000000E+00 0. -1.
</event>
<event>
 7    1  0.2817603E-011  0.5052886E+02  0.7816164E-02  0.1300439E+00
        -11   -1    0    0    0    0  0.00000000000E+00  0.00000000000E+00  0.45593999997E+02  0.45594000000E+02  0.51100000000E-03 0.  1.
         11   -1    0    0    0    0 -0.00000000000E+00 -0.00000000000E+00 -0.45593999997E+02  0.45594000000E+02  0.51100000000E-03 0. -1.
    9900012    2    1    2    0    0 -0.48514973247E+01  0.15218824641E+02 -0.37390055997E+02  0.50528856660E+02  0.29999990302E+02 0.  0.
        -12    1    1    2    0    0  0.48514973247E+01 -0.15218824641E+02  0.37390055997E+02  0.40659143340E+02  0.00000000000E+00 0.  1.
         11    1    3    3    0    0  0.13160600888E+00  0.18506741247E+01 -0.99270460497E+01  0.10098938478E+02  0.51100000000E-03 0. -1.
        -11    1    3    3    0    0 -0.20484760373E+01  0.17837303552E+02 -0.29642621845E+02  0.34656178124E+02  0.51100000000E-03 0.  1.
        -12    1    3    3    0    0 -0.29346272963E+01 -0.44691530354E+01  0.21796118978E+01  0.57737400571E+01  0.00000000000E+00 0.  1.
</event>
<event>
 7    1  0.2817603E-011  0.5052886E+02  0.7816164E-02  0.1300439E+00
        -11   -1    0    0    0    0  0.00000000000E+00  0.00000000000E+00  0.45593999997E+02  0.45594000000E+02  0.51100000000E-03 0.  1.
         11   -1    0    0    0    0 -0.00000000000E+00 -0.00000000000E+00 -0.45593999997E+02  0.45594000000E+02  0.51100000000E-03 0. -1.
    9900012    2    1    2    0    0  0.39311351089E+02  0.27814228690E+01 -0.10002338738E+02  0.50528863046E+02  0.30000009715E+02 0.  0.
        -12    1    1    2    0    0 -0.39311351089E+02 -0.27814228690E+01  0.10002338738E+02  0.40659136954E+02  0.00000000000E+00 0.  1.
         11    1    3    3    0    0 -0.42441502624E-01  0.59884108074E+00 -0.22430049605E+01  0.23219568116E+01  0.51100000000E-03 0. -1.
        -11    1    3    3    0    0  0.15493487791E+02 -0.12197926791E+02 -0.30998557231E+01  0.19961129419E+02  0.51100000000E-03 0.  1.
        -12    1    3    3    0    0  0.23860304800E+02  0.14380508579E+02 -0.46594780549E+01  0.28245776815E+02  0.00000000000E+00 0.  1.
</event>
<event>
 7    1  0.2817603E-011  0.5052886E+02  0.7816164E-02  0.1300439E+00
        -11   -1    0    0    0    0  0.00000000000E+00  0.00000000000E+00  0.45593999997E+02  0.45594000000E+02  0.51100000000E-03 0. -1.
         11   -1    0    0    0    0 -0.00000000000E+00 -0.00000000000E+00 -0.45593999997E+02  0.45594000000E+02  0.51100000000E-03 0.  1.
    9900012    2    1    2    0    0 -0.21863719378E+02 -0.11718435499E+02  0.32215245952E+02  0.50528855551E+02  0.29999986932E+02 0.  0.
        -12    1    1    2    0    0  0.21863719378E+02  0.11718435499E+02 -0.32215245952E+02  0.40659144449E+02  0.00000000000E+00 0.  1.
         11    1    3    3    0    0 -0.27838656372E+01 -0.20519196622E+01 -0.17773531610E+01  0.38883501265E+01  0.51100000000E-03 0. -1.
        -11    1    3    3    0    0 -0.18103690655E+02 -0.31064163646E+01  0.83916214266E+01  0.20194374177E+02  0.51100000000E-03 0.  1.
         12    1    3    3    0    0 -0.97616308600E+00 -0.65600994722E+01  0.25600977686E+02  0.26446131247E+02  0.00000000000E+00 0. -1.
</event>
<event>
 7    1  0.2817603E-011  0.5052885E+02  0.7816164E-02  0.1300439E+00
        -11   -1    0    0    0    0  0.00000000000E+00  0.00000000000E+00  0.45593999997E+02  0.45594000000E+02  0.51100000000E-03 0. -1.
         11   -1    0    0    0    0 -0.00000000000E+00 -0.00000000000E+00 -0.45593999997E+02  0.45594000000E+02  0.51100000000E-03 0.  1.
    9900012    2    1    2    0    0  0.24674743632E+01 -0.28331169290E+02  0.29058951401E+02  0.50528852940E+02  0.29999978997E+02 0.  0.
        -12    1    1    2    0    0 -0.24674743632E+01  0.28331169290E+02 -0.29058951401E+02  0.40659147060E+02  0.00000000000E+00 0.  1.
         11    1    3    3    0    0 -0.61305159040E+01  0.32176175829E+00  0.16441948504E+01  0.63553231897E+01  0.51100000000E-03 0. -1.
        -11    1    3    3    0    0 -0.42615871856E+01 -0.11352845767E+02  0.51229494236E+01  0.13164073967E+02  0.51100000000E-03 0.  1.
         12    1    3    3    0    0  0.12859577453E+02 -0.17300085282E+02  0.22291807127E+02  0.31009455784E+02  0.00000000000E+00 0. -1.
</event>
<event>
 7    1  0.2817603E-011  0.5052886E+02  0.7816164E-02  0.1300439E+00
        -11   -1    0    0    0    0  0.00000000000E+00  0.00000000000E+00  0.45593999997E+02  0.45594000000E+02  0.51100000000E-03 0.  1.
         11   -1    0    0    0    0 -0.00000000000E+00 -0.00000000000E+00 -0.45593999997E+02  0.45594000000E+02  0.51100000000E-03 0. -1.
    9900012    2    1    2    0    0  0.10312099468E+02  0.15499483880E+02 -0.36146812226E+02  0.50528862896E+02  0.30000009259E+02 0.  0.
        -12    1    1    2    0    0 -0.10312099468E+02 -0.15499483880E+02  0.36146812226E+02  0.40659137104E+02  0.00000000000E+00 0.  1.
         11    1    3    3    0    0  0.22704449705E+01  0.40181932194E+01 -0.14660349142E+02  0.15369666045E+02  0.51100000000E-03 0. -1.
        -11    1    3    3    0    0  0.27557187212E+00  0.13918543306E+02 -0.22995329107E+02  0.26880977449E+02  0.51100000000E-03 0.  1.
        -12    1    3    3    0    0  0.77660826249E+01 -0.24372526458E+01  0.15088660228E+01  0.82782194022E+01  0.00000000000E+00 0.  1.
</event>
<event>
 7    1  0.2817603E-011  0.5052882E+02  0.7816164E-02  0.1300439E+00
        -11   -1    0    0    0    0  0.00000000000E+00  0.00000000000E+00  0.45593999997E+02  0.45594000000E+02  0.51100000000E-03 0.  1.
         11   -1    0    0    0    0 -0.00000000000E+00 -0.00000000000E+00 -0.45593999997E+02  0.45594000000E+02  0.51100000000E-03 0. -1.
    9900012    2    1    2    0    0  0.84833042589E+01 -0.69458001336E+01 -0.39153008145E+02  0.50528823453E+02  0.29999889369E+02 0.  0.
        -12    1    1    2    0    0 -0.84833042589E+01  0.69458001336E+01  0.39153008145E+02  0.40659176547E+02  0.00000000000E+00 0.  1.
         11    1    3    3    0    0  0.42964340678E+01 -0.14163336976E+01  0.18334980575E+01  0.48812971872E+01  0.51100000000E-03 0. -1.
        -11    1    3    3    0    0  0.55371071755E+01  0.50348182744E+01 -0.78686265408E+01  0.10859292557E+02  0.51100000000E-03 0.  1.
         12    1    3    3    0    0 -0.13502369844E+01 -0.10564284710E+02 -0.33117879662E+02  0.34788233710E+02  0.00000000000E+00 0. -1.
</event>
<event>
 7    1  0.2817603E-011  0.5052886E+02  0.7816164E-02  0.1300439E+00
        -11   -1    0    0    0    0  0.00000000000E+00  0.00000000000E+00  0.45593999997E+02  0.45594000000E+02  0.51100000000E-03 0.  1.
         11   -1    0    0    0    0 -0.00000000000E+00 -0.00000000000E+00 -0.45593999997E+02  0.45594000000E+02  0.51100000000E-03 0. -1.
    9900012    2    1    2    0    0 -0.11392904247E+02 -0.34325694410E+02 -0.18577247557E+02  0.50528859691E+02  0.29999999516E+02 0.  0.
        -12    1    1    2    0    0  0.11392904247E+02  0.34325694410E+02  0.18577247557E+02  0.40659140309E+02  0.00000000000E+00 0.  1.
         11    1    3    3    0    0 -0.12475034249E+02 -0.15590750246E+02 -0.14657984534E+02  0.24770031966E+02  0.51100000000E-03 0. -1.
        -11    1    3    3    0    0 -0.47932551783E+01 -0.16874427886E+02 -0.69775905734E+01  0.18878781268E+02  0.51100000000E-03 0.  1.
         12    1    3    3    0    0  0.58753851808E+01 -0.18605162775E+01  0.30583275502E+01  0.68800464566E+01  0.00000000000E+00 0. -1.
</event>
<event>
 7    1  0.2817603E-011  0.5052886E+02  0.7816164E-02  0.1300439E+00
        -11   -1    0    0    0    0  0.00000000000E+00  0.00000000000E+00  0.45593999997E+02  0.45594000000E+02  0.51100000000E-03 0.  1.
         11   -1    0    0    0    0 -0.00000000000E+00 -0.00000000000E+00 -0.45593999997E+02  0.45594000000E+02  0.51100000000E-03 0. -1.
    9900012    2    1    2    0    0  0.18869965118E+02  0.32217847866E+02 -0.16096597412E+02  0.50528858925E+02  0.29999997189E+02 0.  0.
        -12    1    1    2    0    0 -0.18869965118E+02 -0.32217847866E+02  0.16096597412E+02  0.40659141075E+02  0.00000000000E+00 0.  1.
         11    1    3    3    0    0  0.17032990435E+02  0.25239050381E+02 -0.16199276411E+02  0.34489838848E+02  0.51100000000E-03 0. -1.
        -11    1    3    3    0    0  0.48733707944E+01  0.99638198911E+01 -0.20313217616E+01  0.11276245744E+02  0.51100000000E-03 0.  1.
        -12    1    3    3    0    0 -0.30363961109E+01 -0.29850224055E+01  0.21340007603E+01  0.47627743332E+01  0.00000000000E+00 0.  1.
</event>
<event>
 7    1  0.2817603E-011  0.5052886E+02  0.7816164E-02  0.1300439E+00
        -11   -1    0    0    0    0  0.00000000000E+00  0.00000000000E+00  0.45593999997E+02  0.45594000000E+02  0.51100000000E-03 0.  1.
         11   -1    0    0    0    0 -0.00000000000E+00 -0.00000000000E+00 -0.45593999997E+02  0.45594000000E+02  0.51100000000E-03 0. -1.
    9900012    2    1    2    0    0 -0.27276453793E+02 -0.55378341714E+01 -0.29639389220E+02  0.50528856721E+02  0.29999990490E+02 0.  0.
        -12    1    1    2    0    0  0.27276453793E+02  0.55378341714E+01  0.29639389220E+02  0.40659143279E+02  0.00000000000E+00 0.  1.
         11    1    3    3    0    0 -0.31056891541E+01  0.40875708250E+01 -0.40374416039E+01  0.65310393765E+01  0.51100000000E-03 0. -1.
        -11    1    3    3    0    0 -0.12902466875E+02  0.16498072385E+01  0.93508896627E+00  0.13041085347E+02  0.51100000000E-03 0.  1.
         12    1    3    3    0    0 -0.11268297764E+02 -0.11275212235E+02 -0.26537036582E+02  0.30956731998E+02  0.00000000000E+00 0. -1.
</event>
<event>
 7    1  0.2817603E-011  0.5052886E+02  0.7816164E-02  0.1300439E+00
        -11   -1    0    0    0    0  0.00000000000E+00  0.00000000000E+00  0.45593999997E+02  0.45594000000E+02  0.51100000000E-03 0. -1.
         11   -1    0    0    0    0 -0.00000000000E+00 -0.00000000000E+00 -0.45593999997E+02  0.45594000000E+02  0.51100000000E-03 0.  1.
    9900012    2    1    2    0    0  0.11462186379E+02 -0.85396126139E+01  0.38063882597E+02  0.50528857627E+02  0.29999993242E+02 0.  0.
        -12    1    1    2    0    0 -0.11462186379E+02  0.85396126139E+01 -0.38063882597E+02  0.40659142373E+02  0.00000000000E+00 0.  1.
         11    1    3    3    0    0  0.55942079636E+01  0.49064791207E+01  0.77868181892E+01  0.10770479928E+02  0.51100000000E-03 0. -1.
        -11    1    3    3    0    0 -0.29424403003E+01  0.43045927616E+01  0.29143646905E+01  0.59733571444E+01  0.51100000000E-03 0.  1.
         12    1    3    3    0    0  0.88104187158E+01 -0.17750684496E+02  0.27362699717E+02  0.33785020554E+02  0.00000000000E+00 0. -1.
</event>
<event>
 7    1  0.2817603E-011  0.5052893E+02  0.7816164E-02  0.1300439E+00
        -11   -1    0    0    0    0  0.00000000000E+00  0.00000000000E+00  0.45593999997E+02  0.45594000000E+02  0.51100000000E-03 0. -1.
         11   -1    0    0    0    0 -0.00000000000E+00 -0.00000000000E+00 -0.45593999997E+02  0.45594000000E+02  0.51100000000E-03 0.  1.
    9900012    2    1    2    0    0  0.16809353666E+02 -0.92680403947E+01  0.35842841979E+02  0.50528926418E+02  0.30000202340E+02 0.  0.
        -12    1    1    2    0    0 -0.16809353666E+02  0.92680403947E+01 -0.35842841979E+02  0.40659073582E+02  0.00000000000E+00 0.  1.
         11    1    3    3    0    0  0.74071370091E+01 -0.54145411458E+00 -0.96903382277E+00  0.74898516701E+01  0.51100000000E-03 0. -1.
        -11    1    3    3    0    0  0.18207367874E+01  0.48636530540E+01  0.34744784264E+01  0.62483761151E+01  0.51100000000E-03 0.  1.
         12    1    3    3    0    0  0.75814798692E+01 -0.13590239334E+02  0.33337397375E+02  0.36790698633E+02  0.00000000000E+00 0. -1.
</event>
<event>
 7    1  0.2817603E-011  0.5052886E+02  0.7816164E-02  0.1300439E+00
        -11   -1    0    0    0    0  0.00000000000E+00  0.00000000000E+00  0.45593999997E+02  0.45594000000E+02  0.51100000000E-03 0.  1.
         11   -1    0    0    0    0 -0.00000000000E+00 -0.00000000000E+00 -0.45593999997E+02  0.45594000000E+02  0.51100000000E-03 0. -1.
    9900012    2    1    2    0    0  0.40030593328E+02 -0.24621315725E+01 -0.66824289846E+01  0.50528863865E+02  0.30000012205E+02 0.  0.
        -12    1    1    2    0    0 -0.40030593328E+02  0.24621315725E+01  0.66824289846E+01  0.40659136135E+02  0.00000000000E+00 0.  1.
         11    1    3    3    0    0  0.84557652368E+01 -0.24037757176E+01 -0.52157724761E+01  0.10221662596E+02  0.51100000000E-03 0. -1.
        -11    1    3    3    0    0  0.15470204227E+02  0.53851675013E+01 -0.12002508672E+02  0.20307325342E+02  0.51100000000E-03 0.  1.
        -12    1    3    3    0    0  0.16104623864E+02 -0.54435233562E+01  0.10535852163E+02  0.19999875928E+02  0.00000000000E+00 0.  1.
</event>
<event>
 7    1  0.2817603E-011  0.5052886E+02  0.7816164E-02  0.1300439E+00
        -11   -1    0    0    0    0  0.00000000000E+00  0.00000000000E+00  0.45593999997E+02  0.45594000000E+02  0.51100000000E-03 0.  1.
         11   -1    0    0    0    0 -0.00000000000E+00 -0.00000000000E+00 -0.45593999997E+02  0.45594000000E+02  0.51100000000E-03 0. -1.
    9900012    2    1    2    0    0 -0.35931824081E+02  0.18790491140E+02 -0.29978398744E+01  0.50528861015E+02  0.30000003541E+02 0.  0.
        -12    1    1    2    0    0  0.35931824081E+02 -0.18790491140E+02  0.29978398744E+01  0.40659138985E+02  0.00000000000E+00 0.  1.
         11    1    3    3    0    0 -0.30541284818E+01 -0.10737852317E+01  0.19589003712E+01  0.37839141682E+01  0.51100000000E-03 0.  1.
        -11    1    3    3    0    0 -0.25865539586E+02  0.96242090752E+01  0.80688646465E+01  0.28753401804E+02  0.51100000000E-03 0. -1.
         12    1    3    3    0    0 -0.70121560138E+01  0.10240067297E+02 -0.13025604892E+02  0.17991545042E+02  0.00000000000E+00 0. -1.
</event>
<event>
 7    1  0.2817603E-011  0.5052886E+02  0.7816164E-02  0.1300439E+00
        -11   -1    0    0    0    0  0.00000000000E+00  0.00000000000E+00  0.45593999997E+02  0.45594000000E+02  0.51100000000E-03 0. -1.
         11   -1    0    0    0    0 -0.00000000000E+00 -0.00000000000E+00 -0.45593999997E+02  0.45594000000E+02  0.51100000000E-03 0.  1.
    9900012    2    1    2    0    0  0.22685160344E+02 -0.21648987332E+02  0.25881858446E+02  0.50528858975E+02  0.29999997339E+02 0.  0.
        -12    1    1    2    0    0 -0.22685160344E+02  0.21648987332E+02 -0.25881858446E+02  0.40659141025E+02  0.00000000000E+00 0.  1.
         11    1    3    3    0    0  0.43608768501E+01 -0.78486854934E+01  0.11696737765E+02  0.14745602242E+02  0.51100000000E-03 0. -1.
        -11    1    3    3    0    0  0.12885033722E+02  0.43327391683E+01  0.84336735904E+01  0.15997611485E+02  0.51100000000E-03 0.  1.
         12    1    3    3    0    0  0.54392497711E+01 -0.18133041007E+02  0.57514470902E+01  0.19785645247E+02  0.00000000000E+00 0. -1.
</event>
<event>
 7    1  0.2817603E-011  0.5052886E+02  0.7816164E-02  0.1300439E+00
        -11   -1    0    0    0    0  0.00000000000E+00  0.00000000000E+00  0.45593999997E+02  0.45594000000E+02  0.51100000000E-03 0.  1.
         11   -1    0    0    0    0 -0.00000000000E+00 -0.00000000000E+00 -0.45593999997E+02  0.45594000000E+02  0.51100000000E-03 0. -1.
    9900012    2    1    2    0    0 -0.20893550143E+02 -0.19915589481E+02 -0.28635543501E+02  0.50528862115E+02  0.30000006885E+02 0.  0.
        -12    1    1    2    0    0  0.20893550143E+02  0.19915589481E+02  0.28635543501E+02  0.40659137885E+02  0.00000000000E+00 0.  1.
         11    1    3    3    0    0  0.24882169972E+01  0.15141029811E+01 -0.65438049869E+00  0.29852882207E+01  0.51100000000E-03 0. -1.
        -11    1    3    3    0    0  0.82794400861E+00 -0.37429391208E+01  0.26661890959E+01  0.46694377712E+01  0.51100000000E-03 0.  1.
         12    1    3    3    0    0 -0.24209711149E+02 -0.17686753341E+02 -0.30647352098E+02  0.42874136123E+02  0.00000000000E+00 0. -1.
</event>
<event>
 7    1  0.2817603E-011  0.5052887E+02  0.7816164E-02  0.1300439E+00
        -11   -1    0    0    0    0  0.00000000000E+00  0.00000000000E+00  0.45593999997E+02  0.45594000000E+02  0.51100000000E-03 0.  1.
         11   -1    0    0    0    0 -0.00000000000E+00 -0.00000000000E+00 -0.45593999997E+02  0.45594000000E+02  0.51100000000E-03 0. -1.
    9900012    2    1    2    0    0 -0.47467660609E+01  0.61118951932E+01 -0.39915884197E+02  0.50528869880E+02  0.30000030486E+02 0.  0.
        -12    1    1    2    0    0  0.47467660609E+01 -0.61118951932E+01  0.39915884197E+02  0.40659130120E+02  0.00000000000E+00 0.  1.
         11    1    3    3    0    0 -0.35866927909E+01 -0.67521576147E+01 -0.92309781525E+01  0.11986115115E+02  0.51100000000E-03 0.  1.
        -11    1    3    3    0    0  0.38341712392E+01  0.82409654564E+01 -0.30401683362E+02  0.31731320998E+02  0.51100000000E-03 0. -1.
         12    1    3    3    0    0 -0.49942445092E+01  0.46230873514E+01 -0.28322268279E+00  0.68114337672E+01  0.00000000000E+00 0. -1.
</event>
<event>
 7    1  0.2817603E-011  0.5052886E+02  0.7816164E-02  0.1300439E+00
        -11   -1    0    0    0    0  0.00000000000E+00  0.00000000000E+00  0.45593999997E+02  0.45594000000E+02  0.51100000000E-03 0. -1.
         11   -1    0    0    0    0 -0.00000000000E+00 -0.00000000000E+00 -0.45593999997E+02  0.45594000000E+02  0.51100000000E-03 0.  1.
    9900012    2    1    2    0    0  0.78736117581E+01  0.21342153317E+02  0.33699916734E+02  0.50528860090E+02  0.30000000730E+02 0.  0.
        -12    1    1    2    0    0 -0.78736117581E+01 -0.21342153317E+02 -0.33699916734E+02  0.40659139910E+02  0.00000000000E+00 0.  1.
         11    1    3    3    0    0  0.48001544690E+01 -0.19723241207E+01  0.64890673369E+01  0.83090035821E+01  0.51100000000E-03 0. -1.
        -11    1    3    3    0    0  0.30626149295E+01 -0.19919564358E+01 -0.14988641522E+01  0.39489358892E+01  0.51100000000E-03 0.  1.
        -12    1    3    3    0    0  0.10842359560E-01  0.25306433873E+02  0.28709713550E+02  0.38270920619E+02  0.00000000000E+00 0.  1.
</event>
<event>
 7    1  0.2817603E-011  0.5052888E+02  0.7816164E-02  0.1300439E+00
        -11   -1    0    0    0    0  0.00000000000E+00  0.00000000000E+00  0.45593999997E+02  0.45594000000E+02  0.51100000000E-03 0. -1.
         11   -1    0    0    0    0 -0.00000000000E+00 -0.00000000000E+00 -0.45593999997E+02  0.45594000000E+02  0.51100000000E-03 0.  1.
    9900012    2    1    2    0    0  0.36260056473E+02 -0.17452582315E+02 -0.58120182558E+01  0.50528881944E+02  0.30000067156E+02 0.  0.
        -12    1    1    2    0    0 -0.36260056473E+02  0.17452582315E+02  0.58120182558E+01  0.40659118056E+02  0.00000000000E+00 0.  1.
         11    1    3    3    0    0  0.99449970669E+01 -0.72277513812E+00 -0.81709635164E+01  0.12891470653E+02  0.51100000000E-03 0. -1.
        -11    1    3    3    0    0  0.21727720596E+01  0.37884800143E+00 -0.64073830996E+01  0.67763576261E+01  0.51100000000E-03 0.  1.
         12    1    3    3    0    0  0.24142287347E+02 -0.17108655179E+02  0.87663283602E+01  0.30861053664E+02  0.00000000000E+00 0. -1.
</event>
<event>
 7    1  0.2817603E-011  0.5052889E+02  0.7816164E-02  0.1300439E+00
        -11   -1    0    0    0    0  0.00000000000E+00  0.00000000000E+00  0.45593999997E+02  0.45594000000E+02  0.51100000000E-03 0.  1.
         11   -1    0    0    0    0 -0.00000000000E+00 -0.00000000000E+00 -0.45593999997E+02  0.45594000000E+02  0.51100000000E-03 0. -1.
    9900012    2    1    2    0    0 -0.12143038216E+02  0.36670118352E+02 -0.12689052263E+02  0.50528892725E+02  0.30000099928E+02 0.  0.
        -12    1    1    2    0    0  0.12143038216E+02 -0.36670118352E+02  0.12689052263E+02  0.40659107275E+02  0.00000000000E+00 0.  1.
         11    1    3    3    0    0 -0.95047020261E+01  0.17026474591E+02 -0.79718443551E+01  0.21066335711E+02  0.51100000000E-03 0. -1.
        -11    1    3    3    0    0  0.55011657141E+01  0.15583287564E+02 -0.96276347033E+01  0.19125716346E+02  0.51100000000E-03 0.  1.
        -12    1    3    3    0    0 -0.81395019039E+01  0.40603561973E+01  0.49104267958E+01  0.10336840669E+02  0.00000000000E+00 0.  1.
</event>
<event>
 7    1  0.2817603E-011  0.5052886E+02  0.7816164E-02  0.1300439E+00
        -11   -1    0    0    0    0  0.00000000000E+00  0.00000000000E+00  0.45593999997E+02  0.45594000000E+02  0.51100000000E-03 0.  1.
         11   -1    0    0    0    0 -0.00000000000E+00 -0.00000000000E+00 -0.45593999997E+02  0.45594000000E+02  0.51100000000E-03 0. -1.
    9900012    2    1    2    0    0 -0.19090350428E+02 -0.70809454857E+01 -0.35193528778E+02  0.50528859130E+02  0.29999997812E+02 0.  0.
        -12    1    1    2    0    0  0.19090350428E+02  0.70809454857E+01  0.35193528778E+02  0.40659140870E+02  0.00000000000E+00 0.  1.
         11    1    3    3    0    0 -0.33239953977E+01 -0.48710138408E+01  0.38937599916E+01  0.70666178879E+01  0.51100000000E-03 0.  1.
        -11    1    3    3    0    0  0.13072233749E+01 -0.13888425613E+01 -0.41749065651E+01  0.45899413613E+01  0.51100000000E-03 0. -1.
         12    1    3    3    0    0 -0.17073578405E+02 -0.82108908364E+00 -0.34912382205E+02  0.38872299881E+02  0.00000000000E+00 0. -1.
</event>
<event>
 7    1  0.2817603E-011  0.5052883E+02  0.7816164E-02  0.1300439E+00
        -11   -1    0    0    0    0  0.00000000000E+00  0.00000000000E+00  0.45593999997E+02  0.45594000000E+02  0.51100000000E-03 0.  1.
         11   -1    0    0    0    0 -0.00000000000E+00 -0.00000000000E+00 -0.45593999997E+02  0.45594000000E+02  0.51100000000E-03 0. -1.
    9900012    2    1    2    0    0  0.37425540602E+02 -0.15847752660E+02 -0.11601446139E+01  0.50528827735E+02  0.29999902383E+02 0.  0.
        -12    1    1    2    0    0 -0.37425540602E+02  0.15847752660E+02  0.11601446139E+01  0.40659172265E+02  0.00000000000E+00 0.  1.
         11    1    3    3    0    0  0.19401929480E+02 -0.65979933657E+01 -0.44549482979E+01  0.20971765510E+02  0.51100000000E-03 0. -1.
        -11    1    3    3    0    0  0.15736058687E+02 -0.14665326236E+02  0.69849047125E+01  0.22616017128E+02  0.51100000000E-03 0.  1.
         12    1    3    3    0    0  0.22875524351E+01  0.54155669417E+01 -0.36901010285E+01  0.69410450973E+01  0.00000000000E+00 0. -1.
</event>
<event>
 7    1  0.2817603E-011  0.5052886E+02  0.7816164E-02  0.1300439E+00
        -11   -1    0    0    0    0  0.00000000000E+00  0.00000000000E+00  0.45593999997E+02  0.45594000000E+02  0.51100000000E-03 0. -1.
         11   -1    0    0    0    0 -0.00000000000E+00 -0.00000000000E+00 -0.45593999997E+02  0.45594000000E+02  0.51100000000E-03 0.  1.
    9900012    2    1    2    0    0  0.21063772103E+01 -0.33750467316E+02  0.22575089899E+02  0.50528861384E+02  0.30000004663E+02 0.  0.
        -12    1    1    2    0    0 -0.21063772103E+01  0.33750467316E+02 -0.22575089899E+02  0.40659138616E+02  0.00000000000E+00 0.  1.
         11    1    3    3    0    0  0.58284994956E+01 -0.10989735881E+02  0.16329543289E+02  0.20528021955E+02  0.51100000000E-03 0. -1.
        -11    1    3    3    0    0 -0.19782218472E+01 -0.53555669517E+01  0.10541907412E+02  0.11988630914E+02  0.51100000000E-03 0.  1.
        -12    1    3    3    0    0 -0.17439004380E+01 -0.17405164484E+02 -0.42963608017E+01  0.18012208515E+02  0.00000000000E+00 0.  1.
</event>
<event>
 7    1  0.2817603E-011  0.5052886E+02  0.7816164E-02  0.1300439E+00
        -11   -1    0    0    0    0  0.00000000000E+00  0.00000000000E+00  0.45593999997E+02  0.45594000000E+02  0.51100000000E-03 0. -1.
         11   -1    0    0    0    0 -0.00000000000E+00 -0.00000000000E+00 -0.45593999997E+02  0.45594000000E+02  0.51100000000E-03 0.  1.
    9900012    2    1    2    0    0  0.13716125788E+02  0.34978637024E+02  0.15541190939E+02  0.50528858710E+02  0.29999996534E+02 0.  0.
        -12    1    1    2    0    0 -0.13716125788E+02 -0.34978637024E+02 -0.15541190939E+02  0.40659141290E+02  0.00000000000E+00 0.  1.
         11    1    3    3    0    0  0.11637229932E+02  0.24975584004E+02  0.21327891155E+01  0.27636094270E+02  0.51100000000E-03 0. -1.
        -11    1    3    3    0    0  0.57244227634E+01  0.40615889182E+01 -0.80212705808E+00  0.70646251559E+01  0.51100000000E-03 0.  1.
        -12    1    3    3    0    0 -0.36455269067E+01  0.59414641014E+01  0.14210528881E+02  0.15828139284E+02  0.00000000000E+00 0.  1.
</event>
<event>
 7    1  0.2817603E-011  0.5052886E+02  0.7816164E-02  0.1300439E+00
        -11   -1    0    0    0    0  0.00000000000E+00  0.00000000000E+00  0.45593999997E+02  0.45594000000E+02  0.51100000000E-03 0.  1.
         11   -1    0    0    0    0 -0.00000000000E+00 -0.00000000000E+00 -0.45593999997E+02  0.45594000000E+02  0.51100000000E-03 0. -1.
    9900012    2    1    2    0    0 -0.39335609336E+02 -0.10287528102E+02 -0.20513691397E+00  0.50528862314E+02  0.30000007488E+02 0.  0.
        -12    1    1    2    0    0  0.39335609336E+02  0.10287528102E+02  0.20513691397E+00  0.40659137686E+02  0.00000000000E+00 0.  1.
         11    1    3    3    0    0 -0.12810400358E+02  0.50557248465E+01 -0.20485867277E+01  0.13923484438E+02  0.51100000000E-03 0.  1.
        -11    1    3    3    0    0 -0.13824515746E+02  0.66432752955E-01 -0.61047831270E+01  0.15112578410E+02  0.51100000000E-03 0. -1.
        -12    1    3    3    0    0 -0.12700693232E+02 -0.15409685701E+02  0.79482329407E+01  0.21492799465E+02  0.00000000000E+00 0.  1.
</event>
<event>
 7    1  0.2817603E-011  0.5052885E+02  0.7816164E-02  0.1300439E+00
        -11   -1    0    0    0    0  0.00000000000E+00  0.00000000000E+00  0.45593999997E+02  0.45594000000E+02  0.51100000000E-03 0.  1.
         11   -1    0    0    0    0 -0.00000000000E+00 -0.00000000000E+00 -0.45593999997E+02  0.45594000000E+02  0.51100000000E-03 0. -1.
    9900012    2    1    2    0    0 -0.83513986014E+00  0.62946977253E+01 -0.40160248164E+02  0.50528853297E+02  0.29999980081E+02 0.  0.
        -12    1    1    2    0    0  0.83513986014E+00 -0.62946977253E+01  0.40160248164E+02  0.40659146703E+02  0.00000000000E+00 0.  1.
         11    1    3    3    0    0  0.56532277966E+01 -0.35533133749E+01 -0.69060496020E+01  0.96061720694E+01  0.51100000000E-03 0. -1.
        -11    1    3    3    0    0 -0.28540101466E+01 -0.40397771374E+01 -0.27421188348E+00  0.49538233371E+01  0.51100000000E-03 0.  1.
         12    1    3    3    0    0 -0.36343575102E+01  0.13887788238E+02 -0.32979986678E+02  0.35968857890E+02  0.00000000000E+00 0. -1.
</event>
<event>
 7    1  0.2817603E-011  0.5052881E+02  0.7816164E-02  0.1300439E+00
        -11   -1    0    0    0    0  0.00000000000E+00  0.00000000000E+00  0.45593999997E+02  0.45594000000E+02  0.51100000000E-03 0.  1.
         11   -1    0    0    0    0 -0.00000000000E+00 -0.00000000000E+00 -0.45593999997E+02  0.45594000000E+02  0.51100000000E-03 0. -1.
    9900012    2    1    2    0    0 -0.24518783620E+01 -0.79916191292E+01 -0.39790597978E+02  0.50528814429E+02  0.29999861939E+02 0.  0.
        -12    1    1    2    0    0  0.24518783620E+01  0.79916191292E+01  0.39790597978E+02  0.40659185571E+02  0.00000000000E+00 0.  1.
         11    1    3    3    0    0 -0.53612066382E-02  0.67451016890E+01 -0.21781223221E+02  0.22801712892E+02  0.51100000000E-03 0. -1.
        -11    1    3    3    0    0  0.39236229689E+01 -0.94758521756E+01 -0.31559454680E+01  0.10730637619E+02  0.51100000000E-03 0.  1.
        -12    1    3    3    0    0 -0.63701401243E+01 -0.52608686427E+01 -0.14853429289E+02  0.16996463918E+02  0.00000000000E+00 0.  1.
</event>
<event>
 7    1  0.2817603E-011  0.5052887E+02  0.7816164E-02  0.1300439E+00
        -11   -1    0    0    0    0  0.00000000000E+00  0.00000000000E+00  0.45593999997E+02  0.45594000000E+02  0.51100000000E-03 0. -1.
         11   -1    0    0    0    0 -0.00000000000E+00 -0.00000000000E+00 -0.45593999997E+02  0.45594000000E+02  0.51100000000E-03 0.  1.
    9900012    2    1    2    0    0  0.39358672248E+02 -0.44900405979E+01  0.91596674954E+01  0.50528867517E+02  0.30000023303E+02 0.  0.
        -12    1    1    2    0    0 -0.39358672248E+02  0.44900405979E+01 -0.91596674954E+01  0.40659132483E+02  0.00000000000E+00 0.  1.
         11    1    3    3    0    0  0.72943699438E+01  0.80993547075E-01 -0.28774507699E+00  0.73004924712E+01  0.51100000000E-03 0. -1.
        -11    1    3    3    0    0  0.18844393642E+02  0.91806190135E+01 -0.18754365874E+01  0.21045479321E+02  0.51100000000E-03 0.  1.
         12    1    3    3    0    0  0.13219908663E+02 -0.13751653158E+02  0.11322849160E+02  0.22182895725E+02  0.00000000000E+00 0. -1.
</event>
<event>
 7    1  0.2817603E-011  0.5052886E+02  0.7816164E-02  0.1300439E+00
        -11   -1    0    0    0    0  0.00000000000E+00  0.00000000000E+00  0.45593999997E+02  0.45594000000E+02  0.51100000000E-03 0.  1.
         11   -1    0    0    0    0 -0.00000000000E+00 -0.00000000000E+00 -0.45593999997E+02  0.45594000000E+02  0.51100000000E-03 0. -1.
    9900012    2    1    2    0    0  0.10309085096E+01  0.60712908825E+01 -0.40190077163E+02  0.50528860219E+02  0.30000001123E+02 0.  0.
        -12    1    1    2    0    0 -0.10309085096E+01 -0.60712908825E+01  0.40190077163E+02  0.40659139781E+02  0.00000000000E+00 0.  1.
         11    1    3    3    0    0  0.64335161458E+00  0.48873914774E+01 -0.54519737756E+01  0.73501370779E+01  0.51100000000E-03 0. -1.
        -11    1    3    3    0    0 -0.24142232877E+00  0.91413936739E+01 -0.33947226555E+02  0.35157325753E+02  0.51100000000E-03 0.  1.
        -12    1    3    3    0    0  0.62897922375E+00 -0.79574942687E+01 -0.79087683182E+00  0.80213973885E+01  0.00000000000E+00 0.  1.
</event>
<event>
 7    1  0.2817603E-011  0.5052888E+02  0.7816164E-02  0.1300439E+00
        -11   -1    0    0    0    0  0.00000000000E+00  0.00000000000E+00  0.45593999997E+02  0.45594000000E+02  0.51100000000E-03 0.  1.
         11   -1    0    0    0    0 -0.00000000000E+00 -0.00000000000E+00 -0.45593999997E+02  0.45594000000E+02  0.51100000000E-03 0. -1.
    9900012    2    1    2    0    0 -0.10021487869E+02 -0.23945069446E+02 -0.31294850033E+02  0.50528877918E+02  0.30000054919E+02 0.  0.
        -12    1    1    2    0    0  0.10021487869E+02  0.23945069446E+02  0.31294850033E+02  0.40659122082E+02  0.00000000000E+00 0.  1.
         11    1    3    3    0    0 -0.89066911664E-01  0.28781457550E+00  0.91962780281E+00  0.96772191328E+00  0.51100000000E-03 0.  1.
        -11    1    3    3    0    0 -0.82041303727E+01 -0.14945702998E+01  0.18752579219E+01  0.85474024175E+01  0.51100000000E-03 0. -1.
         12    1    3    3    0    0 -0.17282905851E+01 -0.22738313722E+02 -0.34089735758E+02  0.41013753587E+02  0.00000000000E+00 0. -1.
</event>
<event>
 7    1  0.2817603E-011  0.5052885E+02  0.7816164E-02  0.1300439E+00
        -11   -1    0    0    0    0  0.00000000000E+00  0.00000000000E+00  0.45593999997E+02  0.45594000000E+02  0.51100000000E-03 0. -1.
         11   -1    0    0    0    0 -0.00000000000E+00 -0.00000000000E+00 -0.45593999997E+02  0.45594000000E+02  0.51100000000E-03 0.  1.
    9900012    2    1    2    0    0 -0.60349302415E+01  0.29649159418E+02  0.27160139968E+02  0.50528852932E+02  0.29999978972E+02 0.  0.
        -12    1    1    2    0    0  0.60349302415E+01 -0.29649159418E+02 -0.27160139968E+02  0.40659147068E+02  0.00000000000E+00 0.  1.
         11    1    3    3    0    0 -0.92046981944E+00  0.18984567003E+02  0.33719569319E+01  0.19303656203E+02  0.51100000000E-03 0. -1.
        -11    1    3    3    0    0 -0.29435370244E-01  0.11554035856E+02  0.66602642728E+01  0.13336256275E+02  0.51100000000E-03 0.  1.
        -12    1    3    3    0    0 -0.50850250518E+01 -0.88944344063E+00  0.17127918763E+02  0.17888940454E+02  0.00000000000E+00 0.  1.
</event>
<event>
 7    1  0.2817603E-011  0.5052886E+02  0.7816164E-02  0.1300439E+00
        -11   -1    0    0    0    0  0.00000000000E+00  0.00000000000E+00  0.45593999997E+02  0.45594000000E+02  0.51100000000E-03 0. -1.
         11   -1    0    0    0    0 -0.00000000000E+00 -0.00000000000E+00 -0.45593999997E+02  0.45594000000E+02  0.51100000000E-03 0.  1.
    9900012    2    1    2    0    0  0.66311289164E+01 -0.39789620203E+02 -0.50970332645E+01  0.50528862100E+02  0.30000006840E+02 0.  0.
        -12    1    1    2    0    0 -0.66311289164E+01  0.39789620203E+02  0.50970332645E+01  0.40659137900E+02  0.00000000000E+00 0.  1.
         11    1    3    3    0    0  0.27348619398E+01 -0.24247710258E+02  0.37249553541E+00  0.24404296256E+02  0.51100000000E-03 0. -1.
        -11    1    3    3    0    0  0.53989514885E+01 -0.15894627405E+02  0.33952106741E+01  0.17126450692E+02  0.51100000000E-03 0.  1.
        -12    1    3    3    0    0 -0.15026845118E+01  0.35271745958E+00 -0.88647394740E+01  0.89981151521E+01  0.00000000000E+00 0.  1.
</event>
<event>
 7    1  0.2817603E-011  0.5052886E+02  0.7816164E-02  0.1300439E+00
        -11   -1    0    0    0    0  0.00000000000E+00  0.00000000000E+00  0.45593999997E+02  0.45594000000E+02  0.51100000000E-03 0.  1.
         11   -1    0    0    0    0 -0.00000000000E+00 -0.00000000000E+00 -0.45593999997E+02  0.45594000000E+02  0.51100000000E-03 0. -1.
    9900012    2    1    2    0    0 -0.39255242540E+02 -0.31124369861E+01 -0.10124458282E+02  0.50528856055E+02  0.29999988464E+02 0.  0.
        -12    1    1    2    0    0  0.39255242540E+02  0.31124369861E+01  0.10124458282E+02  0.40659143945E+02  0.00000000000E+00 0.  1.
         11    1    3    3    0    0 -0.31025192319E+02 -0.13636235087E+02 -0.33262031578E+00  0.33891298328E+02  0.51100000000E-03 0. -1.
        -11    1    3    3    0    0 -0.10126440890E+01  0.12969823004E+01 -0.61476901365E+00  0.17565740349E+01  0.51100000000E-03 0.  1.
         12    1    3    3    0    0 -0.72174061313E+01  0.92268158007E+01 -0.91770689527E+01  0.14880983692E+02  0.00000000000E+00 0. -1.
</event>
<event>
 7    1  0.2817603E-011  0.5052885E+02  0.7816164E-02  0.1300439E+00
        -11   -1    0    0    0    0  0.00000000000E+00  0.00000000000E+00  0.45593999997E+02  0.45594000000E+02  0.51100000000E-03 0.  1.
         11   -1    0    0    0    0 -0.00000000000E+00 -0.00000000000E+00 -0.45593999997E+02  0.45594000000E+02  0.51100000000E-03 0. -1.
    9900012    2    1    2    0    0 -0.25548238280E+02  0.30882823250E+01 -0.31478819948E+02  0.50528854999E+02  0.29999985253E+02 0.  0.
        -12    1    1    2    0    0  0.25548238280E+02 -0.30882823250E+01  0.31478819948E+02  0.40659145001E+02  0.00000000000E+00 0.  1.
         11    1    3    3    0    0 -0.39121150079E+01 -0.37700951621E+01 -0.16929540222E+02  0.17779977327E+02  0.51100000000E-03 0. -1.
        -11    1    3    3    0    0 -0.29040940213E+01  0.59786102039E+00 -0.12552217889E+02  0.12897649944E+02  0.51100000000E-03 0.  1.
        -12    1    3    3    0    0 -0.18732029251E+02  0.62605164667E+01 -0.19970618366E+01  0.19851227727E+02  0.00000000000E+00 0.  1.
</event>
<event>
 7    1  0.2817603E-011  0.5052884E+02  0.7816164E-02  0.1300439E+00
        -11   -1    0    0    0    0  0.00000000000E+00  0.00000000000E+00  0.45593999997E+02  0.45594000000E+02  0.51100000000E-03 0. -1.
         11   -1    0    0    0    0 -0.00000000000E+00 -0.00000000000E+00 -0.45593999997E+02  0.45594000000E+02  0.51100000000E-03 0.  1.
    9900012    2    1    2    0    0 -0.74321189296E+01 -0.35070015303E+02  0.19183984930E+02  0.50528835683E+02  0.29999926542E+02 0.  0.
        -12    1    1    2    0    0  0.74321189296E+01  0.35070015303E+02 -0.19183984930E+02  0.40659164317E+02  0.00000000000E+00 0.  1.
         11    1    3    3    0    0  0.33794470196E+01 -0.92842235227E+01  0.79325164932E+01  0.12670528274E+02  0.51100000000E-03 0.  1.
        -11    1    3    3    0    0 -0.10880018459E+02 -0.83018240124E+00  0.56250737288E+01  0.12276215182E+02  0.51100000000E-03 0. -1.
         12    1    3    3    0    0  0.68452509832E-01 -0.24955609380E+02  0.56263947081E+01  0.25582092226E+02  0.00000000000E+00 0. -1.
</event>
<event>
 7    1  0.2817603E-011  0.5052886E+02  0.7816164E-02  0.1300439E+00
        -11   -1    0    0    0    0  0.00000000000E+00  0.00000000000E+00  0.45593999997E+02  0.45594000000E+02  0.51100000000E-03 0. -1.
         11   -1    0    0    0    0 -0.00000000000E+00 -0.00000000000E+00 -0.45593999997E+02  0.45594000000E+02  0.51100000000E-03 0.  1.
    9900012    2    1    2    0    0  0.13447083057E+02 -0.14787690473E+02  0.35407139415E+02  0.50528863834E+02  0.30000012109E+02 0.  0.
        -12    1    1    2    0    0 -0.13447083057E+02  0.14787690473E+02 -0.35407139415E+02  0.40659136166E+02  0.00000000000E+00 0.  1.
         11    1    3    3    0    0  0.85795539175E+01 -0.11081788188E+02  0.15349408209E+02  0.20785069340E+02  0.51100000000E-03 0. -1.
        -11    1    3    3    0    0 -0.26235912699E+01 -0.82990809645E+01  0.18992964617E+02  0.20892359398E+02  0.51100000000E-03 0.  1.
        -12    1    3    3    0    0  0.74911204090E+01  0.45931786788E+01  0.10647665889E+01  0.88514350953E+01  0.00000000000E+00 0.  1.
</event>
<event>
 7    1  0.2817603E-011  0.5052886E+02  0.7816164E-02  0.1300439E+00
        -11   -1    0    0    0    0  0.00000000000E+00  0.00000000000E+00  0.45593999997E+02  0.45594000000E+02  0.51100000000E-03 0.  1.
         11   -1    0    0    0    0 -0.00000000000E+00 -0.00000000000E+00 -0.45593999997E+02  0.45594000000E+02  0.51100000000E-03 0. -1.
    9900012    2    1    2    0    0  0.39496847275E+02 -0.90025652071E+01 -0.34811343887E+01  0.50528863000E+02  0.30000009573E+02 0.  0.
        -12    1    1    2    0    0 -0.39496847275E+02  0.90025652071E+01  0.34811343887E+01  0.40659137000E+02  0.00000000000E+00 0.  1.
         11    1    3    3    0    0  0.17337141285E+02 -0.15702694145E+02 -0.19625033818E+01  0.23473442251E+02  0.51100000000E-03 0. -1.
        -11    1    3    3    0    0  0.11289467539E+02 -0.10751205939E+01 -0.61626134397E+01  0.12906810849E+02  0.51100000000E-03 0.  1.
         12    1    3    3    0    0  0.10870238451E+02  0.77752495315E+01  0.46439824329E+01  0.14148609900E+02  0.00000000000E+00 0. -1.
</event>
<event>
 7    1  0.2817603E-011  0.5052885E+02  0.7816164E-02  0.1300439E+00
        -11   -1    0    0    0    0  0.00000000000E+00  0.00000000000E+00  0.45593999997E+02  0.45594000000E+02  0.51100000000E-03 0. -1.
         11   -1    0    0    0    0 -0.00000000000E+00 -0.00000000000E+00 -0.45593999997E+02  0.45594000000E+02  0.51100000000E-03 0.  1.
    9900012    2    1    2    0    0 -0.27805440504E+02 -0.20278763784E+02  0.21651695341E+02  0.50528847361E+02  0.29999962038E+02 0.  0.
        -12    1    1    2    0    0  0.27805440504E+02  0.20278763784E+02 -0.21651695341E+02  0.40659152639E+02  0.00000000000E+00 0.  1.
         11    1    3    3    0    0 -0.79927236429E+01 -0.12587753781E+02  0.69019192349E+01  0.16430814523E+02  0.51100000000E-03 0. -1.
        -11    1    3    3    0    0 -0.95119835318E+01 -0.13614267405E+01 -0.50831566782E+01  0.10870593156E+02  0.51100000000E-03 0.  1.
        -12    1    3    3    0    0 -0.10300733329E+02 -0.63295832616E+01  0.19832932784E+02  0.23227439682E+02  0.00000000000E+00 0.  1.
</event>
<event>
 7    1  0.2817603E-011  0.5052886E+02  0.7816164E-02  0.1300439E+00
        -11   -1    0    0    0    0  0.00000000000E+00  0.00000000000E+00  0.45593999997E+02  0.45594000000E+02  0.51100000000E-03 0.  1.
         11   -1    0    0    0    0 -0.00000000000E+00 -0.00000000000E+00 -0.45593999997E+02  0.45594000000E+02  0.51100000000E-03 0. -1.
    9900012    2    1    2    0    0 -0.11160878394E+02  0.37323846517E+02 -0.11641777721E+02  0.50528859406E+02  0.29999998649E+02 0.  0.
        -12    1    1    2    0    0  0.11160878394E+02 -0.37323846517E+02  0.11641777721E+02  0.40659140594E+02  0.00000000000E+00 0.  1.
         11    1    3    3    0    0  0.25721819962E+01  0.11160681042E+01  0.50980469652E+01  0.58182309472E+01  0.51100000000E-03 0. -1.
        -11    1    3    3    0    0 -0.10370485590E+01 -0.37678253469E+00 -0.36815134265E+01  0.38433027675E+01  0.51100000000E-03 0.  1.
         12    1    3    3    0    0 -0.12696011831E+02  0.36584560948E+02 -0.13058311260E+02  0.40867325691E+02  0.00000000000E+00 0. -1.
</event>
<event>
 7    1  0.2817603E-011  0.5052890E+02  0.7816164E-02  0.1300439E+00
        -11   -1    0    0    0    0  0.00000000000E+00  0.00000000000E+00  0.45593999997E+02  0.45594000000E+02  0.51100000000E-03 0. -1.
         11   -1    0    0    0    0 -0.00000000000E+00 -0.00000000000E+00 -0.45593999997E+02  0.45594000000E+02  0.51100000000E-03 0.  1.
    9900012    2    1    2    0    0  0.15342370385E+02  0.37644376113E+02 -0.82148794979E+00  0.50528902317E+02  0.30000129082E+02 0.  0.
        -12    1    1    2    0    0 -0.15342370385E+02 -0.37644376113E+02  0.82148794979E+00  0.40659097683E+02  0.00000000000E+00 0.  1.
         11    1    3    3    0    0  0.91850764801E+01  0.26679304067E+02 -0.69807390793E+00  0.28224779944E+02  0.51100000000E-03 0. -1.
        -11    1    3    3    0    0  0.68007349605E+01  0.15393950638E+02  0.26535935888E+01  0.17037173223E+02  0.51100000000E-03 0.  1.
        -12    1    3    3    0    0 -0.64344105529E+00 -0.44288785913E+01 -0.27770076306E+01  0.52669491500E+01  0.00000000000E+00 0.  1.
</event>
<event>
 7    1  0.2817603E-011  0.5052884E+02  0.7816164E-02  0.1300439E+00
        -11   -1    0    0    0    0  0.00000000000E+00  0.00000000000E+00  0.45593999997E+02  0.45594000000E+02  0.51100000000E-03 0. -1.
         11   -1    0    0    0    0 -0.00000000000E+00 -0.00000000000E+00 -0.45593999997E+02  0.45594000000E+02  0.51100000000E-03 0.  1.
    9900012    2    1    2    0    0 -0.54342896893E+01 -0.41627091859E+01  0.40078763833E+02  0.50528844050E+02  0.29999951975E+02 0.  0.
        -12    1    1    2    0    0  0.54342896893E+01  0.41627091859E+01 -0.40078763833E+02  0.40659155950E+02  0.00000000000E+00 0.  1.
         11    1    3    3    0    0 -0.93078882925E+01  0.58295996406E+01  0.21185001654E+02  0.23862634217E+02  0.51100000000E-03 0. -1.
        -11    1    3    3    0    0 -0.35060731083E+01 -0.36641897302E+01 -0.37378433421E+00  0.50851302844E+01  0.51100000000E-03 0.  1.
         12    1    3    3    0    0  0.73796717115E+01 -0.63281190963E+01  0.19267546513E+02  0.21581079549E+02  0.00000000000E+00 0. -1.
</event>
<event>
 7    1  0.2817603E-011  0.5052887E+02  0.7816164E-02  0.1300439E+00
        -11   -1    0    0    0    0  0.00000000000E+00  0.00000000000E+00  0.45593999997E+02  0.45594000000E+02  0.51100000000E-03 0. -1.
         11   -1    0    0    0    0 -0.00000000000E+00 -0.00000000000E+00 -0.45593999997E+02  0.45594000000E+02  0.51100000000E-03 0.  1.
    9900012    2    1    2    0    0 -0.42805016673E+01  0.12169253690E+02  0.38558417388E+02  0.50528868414E+02  0.30000026030E+02 0.  0.
        -12    1    1    2    0    0  0.42805016673E+01 -0.12169253690E+02 -0.38558417388E+02  0.40659131586E+02  0.00000000000E+00 0.  1.
         11    1    3    3    0    0 -0.55023428490E+00 -0.59162539854E+01  0.13010478380E+01  0.60825607047E+01  0.51100000000E-03 0. -1.
        -11    1    3    3    0    0 -0.47197773832E+01 -0.10988342272E+01  0.98455866096E+01  0.10973573308E+02  0.51100000000E-03 0.  1.
        -12    1    3    3    0    0  0.98951000078E+00  0.19184341902E+02  0.27411782941E+02  0.33472734400E+02  0.00000000000E+00 0.  1.
</event>
<event>
 7    1  0.2817603E-011  0.5052886E+02  0.7816164E-02  0.1300439E+00
        -11   -1    0    0    0    0  0.00000000000E+00  0.00000000000E+00  0.45593999997E+02  0.45594000000E+02  0.51100000000E-03 0.  1.
         11   -1    0    0    0    0 -0.00000000000E+00 -0.00000000000E+00 -0.45593999997E+02  0.45594000000E+02  0.51100000000E-03 0. -1.
    9900012    2    1    2    0    0 -0.30612814326E+02 -0.26256232982E+02  0.51605885366E+01  0.50528857788E+02  0.29999993733E+02 0.  0.
        -12    1    1    2    0    0  0.30612814326E+02  0.26256232982E+02 -0.51605885366E+01  0.40659142212E+02  0.00000000000E+00 0.  1.
         11    1    3    3    0    0 -0.90741544867E+01 -0.41108975338E+01 -0.15802322826E+01  0.10086470766E+02  0.51100000000E-03 0. -1.
        -11    1    3    3    0    0 -0.12579652649E+02 -0.13310429020E+01 -0.64738698505E+01  0.14210219107E+02  0.51100000000E-03 0.  1.
        -12    1    3    3    0    0 -0.89590071901E+01 -0.20814292547E+02  0.13214690670E+02  0.26232167915E+02  0.00000000000E+00 0.  1.
</event>
<event>
 7    1  0.2817603E-011  0.5052885E+02  0.7816164E-02  0.1300439E+00
        -11   -1    0    0    0    0  0.00000000000E+00  0.00000000000E+00  0.45593999997E+02  0.45594000000E+02  0.51100000000E-03 0.  1.
         11   -1    0    0    0    0 -0.00000000000E+00 -0.00000000000E+00 -0.45593999997E+02  0.45594000000E+02  0.51100000000E-03 0. -1.
    9900012    2    1    2    0    0  0.29297293267E+02  0.19500855285E+02 -0.20360534223E+02  0.50528854615E+02  0.29999984086E+02 0.  0.
        -12    1    1    2    0    0 -0.29297293267E+02 -0.19500855285E+02  0.20360534223E+02  0.40659145385E+02  0.00000000000E+00 0.  1.
         11    1    3    3    0    0  0.67758270762E+01 -0.67583729042E-01 -0.10511854166E+02  0.12506617384E+02  0.51100000000E-03 0. -1.
        -11    1    3    3    0    0  0.10053686136E+02  0.45998094474E+00 -0.11334388408E+02  0.15157722396E+02  0.51100000000E-03 0.  1.
        -12    1    3    3    0    0  0.12467780054E+02  0.19108458070E+02  0.14857083510E+01  0.22864514834E+02  0.00000000000E+00 0.  1.
</event>
<event>
 7    1  0.2817603E-011  0.5052886E+02  0.7816164E-02  0.1300439E+00
        -11   -1    0    0    0    0  0.00000000000E+00  0.00000000000E+00  0.45593999997E+02  0.45594000000E+02  0.51100000000E-03 0.  1.
         11   -1    0    0    0    0 -0.00000000000E+00 -0.00000000000E+00 -0.45593999997E+02  0.45594000000E+02  0.51100000000E-03 0. -1.
    9900012    2    1    2    0    0  0.91491261967E+01  0.35136476144E+02 -0.18299929776E+02  0.50528857168E+02  0.29999991849E+02 0.  0.
        -12    1    1    2    0    0 -0.91491261967E+01 -0.35136476144E+02  0.18299929776E+02  0.40659142832E+02  0.00000000000E+00 0.  1.
         11    1    3    3    0    0  0.11443077158E+02  0.94966081716E+01 -0.75825548182E+01  0.16692055578E+02  0.51100000000E-03 0. -1.
        -11    1    3    3    0    0  0.10511517666E+01  0.20542794658E+02  0.10365612669E+01  0.20595771214E+02  0.51100000000E-03 0.  1.
         12    1    3    3    0    0 -0.33451027277E+01  0.50970733150E+01 -0.11753936225E+02  0.13241030376E+02  0.00000000000E+00 0. -1.
</event>
<event>
 7    1  0.2817603E-011  0.5052886E+02  0.7816164E-02  0.1300439E+00
        -11   -1    0    0    0    0  0.00000000000E+00  0.00000000000E+00  0.45593999997E+02  0.45594000000E+02  0.51100000000E-03 0.  1.
         11   -1    0    0    0    0 -0.00000000000E+00 -0.00000000000E+00 -0.45593999997E+02  0.45594000000E+02  0.51100000000E-03 0. -1.
    9900012    2    1    2    0    0 -0.15614494163E+02  0.30934136826E+02 -0.21270452974E+02  0.50528863034E+02  0.30000009678E+02 0.  0.
        -12    1    1    2    0    0  0.15614494163E+02 -0.30934136826E+02  0.21270452974E+02  0.40659136966E+02  0.00000000000E+00 0.  1.
         11    1    3    3    0    0  0.25890984424E+01  0.82524034633E+01 -0.59787568133E+01  0.10514329601E+02  0.51100000000E-03 0. -1.
        -11    1    3    3    0    0  0.24018500650E+01  0.97106832807E+01 -0.11715476600E+02  0.15405149974E+02  0.51100000000E-03 0.  1.
         12    1    3    3    0    0 -0.20605442670E+02  0.12971050082E+02 -0.35762195606E+01  0.24609383459E+02  0.00000000000E+00 0. -1.
</event>
<event>
 7    1  0.2817603E-011  0.5052886E+02  0.7816164E-02  0.1300439E+00
        -11   -1    0    0    0    0  0.00000000000E+00  0.00000000000E+00  0.45593999997E+02  0.45594000000E+02  0.51100000000E-03 0.  1.
         11   -1    0    0    0    0 -0.00000000000E+00 -0.00000000000E+00 -0.45593999997E+02  0.45594000000E+02  0.51100000000E-03 0. -1.
    9900012    2    1    2    0    0  0.98412225136E+01 -0.20937155548E+02 -0.33435781932E+02  0.50528860112E+02  0.30000000797E+02 0.  0.
        -12    1    1    2    0    0 -0.98412225136E+01  0.20937155548E+02  0.33435781932E+02  0.40659139888E+02  0.00000000000E+00 0.  1.
         11    1    3    3    0    0 -0.34662274434E+01 -0.77764342904E+01 -0.27746133235E+01  0.89546715361E+01  0.51100000000E-03 0. -1.
        -11    1    3    3    0    0  0.11016075591E+02 -0.18911276163E+02 -0.24020689813E+02  0.32495904771E+02  0.51100000000E-03 0.  1.
        -12    1    3    3    0    0  0.22913743665E+01  0.57505549057E+01 -0.66404787959E+01  0.90782838053E+01  0.00000000000E+00 0.  1.
</event>
<event>
 7    1  0.2817603E-011  0.5052886E+02  0.7816164E-02  0.1300439E+00
        -11   -1    0    0    0    0  0.00000000000E+00  0.00000000000E+00  0.45593999997E+02  0.45594000000E+02  0.51100000000E-03 0. -1.
         11   -1    0    0    0    0 -0.00000000000E+00 -0.00000000000E+00 -0.45593999997E+02  0.45594000000E+02  0.51100000000E-03 0.  1.
    9900012    2    1    2    0    0 -0.29921165823E+02  0.27491149843E+02  0.14582208840E+01  0.50528857214E+02  0.29999991988E+02 0.  0.
        -12    1    1    2    0    0  0.29921165823E+02 -0.27491149843E+02 -0.14582208840E+01  0.40659142786E+02  0.00000000000E+00 0.  1.
         11    1    3    3    0    0 -0.11465209517E+02 -0.11740731174E+00  0.43199257192E+01  0.12252614914E+02  0.51100000000E-03 0. -1.
        -11    1    3    3    0    0 -0.48689760753E+01  0.25672268816E+01  0.62845281670E+01  0.83542130944E+01  0.51100000000E-03 0.  1.
        -12    1    3    3    0    0 -0.13586980231E+02  0.25041330274E+02 -0.91462330023E+01  0.29922029206E+02  0.00000000000E+00 0.  1.
</event>
<event>
 7    1  0.2817603E-011  0.5052885E+02  0.7816164E-02  0.1300439E+00
        -11   -1    0    0    0    0  0.00000000000E+00  0.00000000000E+00  0.45593999997E+02  0.45594000000E+02  0.51100000000E-03 0.  1.
         11   -1    0    0    0    0 -0.00000000000E+00 -0.00000000000E+00 -0.45593999997E+02  0.45594000000E+02  0.51100000000E-03 0. -1.
    9900012    2    1    2    0    0  0.39311633784E+02  0.93555921096E+01  0.44982718287E+01  0.50528854608E+02  0.29999984068E+02 0.  0.
        -12    1    1    2    0    0 -0.39311633784E+02 -0.93555921096E+01 -0.44982718287E+01  0.40659145392E+02  0.00000000000E+00 0.  1.
         11    1    3    3    0    0  0.14198574137E+02 -0.94470708646E+00 -0.81181274226E+01  0.16382795003E+02  0.51100000000E-03 0. -1.
        -11    1    3    3    0    0  0.28642194695E+01  0.28940731190E+00 -0.37796806362E+01  0.47511573048E+01  0.51100000000E-03 0.  1.
        -12    1    3    3    0    0  0.22248840178E+02  0.10010891884E+02  0.16396079887E+02  0.29394902300E+02  0.00000000000E+00 0.  1.
</event>
<event>
 7    1  0.2817603E-011  0.5052886E+02  0.7816164E-02  0.1300439E+00
        -11   -1    0    0    0    0  0.00000000000E+00  0.00000000000E+00  0.45593999997E+02  0.45594000000E+02  0.51100000000E-03 0. -1.
         11   -1    0    0    0    0 -0.00000000000E+00 -0.00000000000E+00 -0.45593999997E+02  0.45594000000E+02  0.51100000000E-03 0.  1.
    9900012    2    1    2    0    0 -0.29836654355E+02 -0.27333382111E+02 -0.39782231319E+01  0.50528856133E+02  0.29999988701E+02 0.  0.
        -12    1    1    2    0    0  0.29836654355E+02  0.27333382111E+02  0.39782231319E+01  0.40659143867E+02  0.00000000000E+00 0.  1.
         11    1    3    3    0    0 -0.83248200996E+00  0.51186465595E+00 -0.27007391720E+01  0.28721114288E+01  0.51100000000E-03 0. -1.
        -11    1    3    3    0    0 -0.15895614419E+02  0.59174272704E+00 -0.34218626991E+01  0.16270521252E+02  0.51100000000E-03 0.  1.
         12    1    3    3    0    0 -0.13108557926E+02 -0.28436989494E+02  0.21443787392E+01  0.31386223452E+02  0.00000000000E+00 0. -1.
</event>
<event>
 7    1  0.2817603E-011  0.5052886E+02  0.7816164E-02  0.1300439E+00
        -11   -1    0    0    0    0  0.00000000000E+00  0.00000000000E+00  0.45593999997E+02  0.45594000000E+02  0.51100000000E-03 0.  1.
         11   -1    0    0    0    0 -0.00000000000E+00 -0.00000000000E+00 -0.45593999997E+02  0.45594000000E+02  0.51100000000E-03 0. -1.
    9900012    2    1    2    0    0 -0.21609729692E+02 -0.28355992065E+02 -0.19547971540E+02  0.50528857182E+02  0.29999991891E+02 0.  0.
        -12    1    1    2    0    0  0.21609729692E+02  0.28355992065E+02  0.19547971540E+02  0.40659142818E+02  0.00000000000E+00 0.  1.
         11    1    3    3    0    0 -0.85682386274E+01 -0.88342607071E+01 -0.12979467156E+02  0.17886459776E+02  0.51100000000E-03 0. -1.
        -11    1    3    3    0    0 -0.15002550179E+02 -0.77788121506E+01 -0.10744450568E+02  0.20025724671E+02  0.51100000000E-03 0.  1.
         12    1    3    3    0    0  0.19610591143E+01 -0.11742919207E+02  0.41759461836E+01  0.12616672735E+02  0.00000000000E+00 0. -1.
</event>
<event>
 7    1  0.2817603E-011  0.5052887E+02  0.7816164E-02  0.1300439E+00
        -11   -1    0    0    0    0  0.00000000000E+00  0.00000000000E+00  0.45593999997E+02  0.45594000000E+02  0.51100000000E-03 0.  1.
         11   -1    0    0    0    0 -0.00000000000E+00 -0.00000000000E+00 -0.45593999997E+02  0.45594000000E+02  0.51100000000E-03 0. -1.
    9900012    2    1    2    0    0 -0.93810524350E+01  0.31671493580E+02  0.23708172020E+02  0.50528867312E+02  0.30000022682E+02 0.  0.
        -12    1    1    2    0    0  0.93810524350E+01 -0.31671493580E+02 -0.23708172020E+02  0.40659132688E+02  0.00000000000E+00 0.  1.
         11    1    3    3    0    0 -0.21826363089E+01  0.23638029784E+01 -0.49198120910E+00  0.32547675107E+01  0.51100000000E-03 0. -1.
        -11    1    3    3    0    0 -0.62411389946E+01  0.25802423702E+02  0.41157652500E+01  0.26863663352E+02  0.51100000000E-03 0.  1.
        -12    1    3    3    0    0 -0.95727713151E+00  0.35052669000E+01  0.20084387980E+02  0.20410436450E+02  0.00000000000E+00 0.  1.
</event>
<event>
 7    1  0.2817603E-011  0.5052885E+02  0.7816164E-02  0.1300439E+00
        -11   -1    0    0    0    0  0.00000000000E+00  0.00000000000E+00  0.45593999997E+02  0.45594000000E+02  0.51100000000E-03 0.  1.
         11   -1    0    0    0    0 -0.00000000000E+00 -0.00000000000E+00 -0.45593999997E+02  0.45594000000E+02  0.51100000000E-03 0. -1.
    9900012    2    1    2    0    0 -0.18130381144E+02  0.22826491443E+02 -0.28344432926E+02  0.50528852076E+02  0.29999976370E+02 0.  0.
        -12    1    1    2    0    0  0.18130381144E+02 -0.22826491443E+02  0.28344432926E+02  0.40659147924E+02  0.00000000000E+00 0.  1.
         11    1    3    3    0    0 -0.36278336977E+01  0.23848177908E+01 -0.17326430737E+02  0.17862075343E+02  0.51100000000E-03 0. -1.
        -11    1    3    3    0    0  0.25026373518E+01  0.10530527004E+02 -0.59095645666E+01  0.12331996850E+02  0.51100000000E-03 0.  1.
         12    1    3    3    0    0 -0.17005184798E+02  0.99111466490E+01 -0.51084376224E+01  0.20334779882E+02  0.00000000000E+00 0. -1.
</event>
<event>
 7    1  0.2817603E-011  0.5052887E+02  0.7816164E-02  0.1300439E+00
        -11   -1    0    0    0    0  0.00000000000E+00  0.00000000000E+00  0.45593999997E+02  0.45594000000E+02  0.51100000000E-03 0.  1.
         11   -1    0    0    0    0 -0.00000000000E+00 -0.00000000000E+00 -0.45593999997E+02  0.45594000000E+02  0.51100000000E-03 0. -1.
    9900012    2    1    2    0    0 -0.24096332127E+02 -0.32057538797E+02 -0.66967030849E+01  0.50528870055E+02  0.30000031018E+02 0.  0.
        -12    1    1    2    0    0  0.24096332127E+02  0.32057538797E+02  0.66967030849E+01  0.40659129945E+02  0.00000000000E+00 0.  1.
         11    1    3    3    0    0 -0.73420809076E+01 -0.19428177207E+02 -0.11555635983E+02  0.23767476619E+02  0.51100000000E-03 0. -1.
        -11    1    3    3    0    0 -0.23670466702E+01 -0.97688351562E+01  0.65471310102E+01  0.11995748204E+02  0.51100000000E-03 0.  1.
        -12    1    3    3    0    0 -0.14387204550E+02 -0.28605264341E+01 -0.16881981120E+01  0.14765645231E+02  0.00000000000E+00 0.  1.
</event>
<event>
 7    1  0.2817603E-011  0.5052886E+02  0.7816164E-02  0.1300439E+00
        -11   -1    0    0    0    0  0.00000000000E+00  0.00000000000E+00  0.45593999997E+02  0.45594000000E+02  0.51100000000E-03 0.  1.
         11   -1    0    0    0    0 -0.00000000000E+00 -0.00000000000E+00 -0.45593999997E+02  0.45594000000E+02  0.51100000000E-03 0. -1.
    9900012    2    1    2    0    0 -0.11542737627E+02  0.49165040811E+01 -0.38675041954E+02  0.50528859891E+02  0.30000000124E+02 0.  0.
        -12    1    1    2    0    0  0.11542737627E+02 -0.49165040811E+01  0.38675041954E+02  0.40659140109E+02  0.00000000000E+00 0.  1.
         11    1    3    3    0    0  0.20453755511E+00  0.50876307925E-01 -0.18012324164E+02  0.18013557285E+02  0.51100000000E-03 0. -1.
        -11    1    3    3    0    0  0.53789039154E+01 -0.31079228642E+01 -0.52967745889E+01  0.81637989421E+01  0.51100000000E-03 0.  1.
         12    1    3    3    0    0 -0.17126179097E+02  0.79735506374E+01 -0.15365943201E+02  0.24351503664E+02  0.00000000000E+00 0. -1.
</event>
<event>
 7    1  0.2817603E-011  0.5052883E+02  0.7816164E-02  0.1300439E+00
        -11   -1    0    0    0    0  0.00000000000E+00  0.00000000000E+00  0.45593999997E+02  0.45594000000E+02  0.51100000000E-03 0. -1.
         11   -1    0    0    0    0 -0.00000000000E+00 -0.00000000000E+00 -0.45593999997E+02  0.45594000000E+02  0.51100000000E-03 0.  1.
    9900012    2    1    2    0    0 -0.37615839411E+01 -0.32932646383E+02  0.23546966246E+02  0.50528827222E+02  0.29999900825E+02 0.  0.
        -12    1    1    2    0    0  0.37615839411E+01  0.32932646383E+02 -0.23546966246E+02  0.40659172778E+02  0.00000000000E+00 0.  1.
         11    1    3    3    0    0 -0.94693346992E+00 -0.50244845344E+01  0.94831765909E+01  0.10773707178E+02  0.51100000000E-03 0. -1.
        -11    1    3    3    0    0 -0.12526733465E+02 -0.94205166516E+01  0.96630987083E+01  0.18413056840E+02  0.51100000000E-03 0.  1.
        -12    1    3    3    0    0  0.97120829939E+01 -0.18487645197E+02  0.44006909472E+01  0.21342063205E+02  0.00000000000E+00 0.  1.
</event>
<event>
 7    1  0.2817603E-011  0.5052886E+02  0.7816164E-02  0.1300439E+00
        -11   -1    0    0    0    0  0.00000000000E+00  0.00000000000E+00  0.45593999997E+02  0.45594000000E+02  0.51100000000E-03 0.  1.
         11   -1    0    0    0    0 -0.00000000000E+00 -0.00000000000E+00 -0.45593999997E+02  0.45594000000E+02  0.51100000000E-03 0. -1.
    9900012    2    1    2    0    0  0.79177569993E+01  0.12189241499E+02 -0.37972320751E+02  0.50528860469E+02  0.30000001881E+02 0.  0.
        -12    1    1    2    0    0 -0.79177569993E+01 -0.12189241499E+02  0.37972320751E+02  0.40659139531E+02  0.00000000000E+00 0.  1.
         11    1    3    3    0    0 -0.71282220939E+01 -0.15361844256E+01 -0.22024672357E+00  0.72951985367E+01  0.51100000000E-03 0.  1.
        -11    1    3    3    0    0  0.37110129084E+01  0.60177860352E+01 -0.16418208895E+02  0.17875764296E+02  0.51100000000E-03 0. -1.
        -12    1    3    3    0    0  0.11334966185E+02  0.77076398894E+01 -0.21333865132E+02  0.25357897636E+02  0.00000000000E+00 0.  1.
</event>
<event>
 7    1  0.2817603E-011  0.5052886E+02  0.7816164E-02  0.1300439E+00
        -11   -1    0    0    0    0  0.00000000000E+00  0.00000000000E+00  0.45593999997E+02  0.45594000000E+02  0.51100000000E-03 0.  1.
         11   -1    0    0    0    0 -0.00000000000E+00 -0.00000000000E+00 -0.45593999997E+02  0.45594000000E+02  0.51100000000E-03 0. -1.
    9900012    2    1    2    0    0  0.20211863619E+02  0.32300363025E+02 -0.14189183072E+02  0.50528858362E+02  0.29999995476E+02 0.  0.
        -12    1    1    2    0    0 -0.20211863619E+02 -0.32300363025E+02  0.14189183072E+02  0.40659141638E+02  0.00000000000E+00 0.  1.
         11    1    3    3    0    0  0.81749134343E+00  0.27668098279E+00 -0.42838153898E+01  0.43698877580E+01  0.51100000000E-03 0. -1.
        -11    1    3    3    0    0  0.11328834640E+02  0.16752055993E+00  0.13799692436E+01  0.11413801857E+02  0.51100000000E-03 0.  1.
        -12    1    3    3    0    0  0.80655376350E+01  0.31856161482E+02 -0.11285336926E+02  0.34745168747E+02  0.00000000000E+00 0.  1.
</event>
<event>
 7    1  0.2817603E-011  0.5052886E+02  0.7816164E-02  0.1300439E+00
        -11   -1    0    0    0    0  0.00000000000E+00  0.00000000000E+00  0.45593999997E+02  0.45594000000E+02  0.51100000000E-03 0. -1.
         11   -1    0    0    0    0 -0.00000000000E+00 -0.00000000000E+00 -0.45593999997E+02  0.45594000000E+02  0.51100000000E-03 0.  1.
    9900012    2    1    2    0    0  0.33345376636E+02 -0.17148038860E+02 -0.15722485231E+02  0.50528856851E+02  0.29999990884E+02 0.  0.
        -12    1    1    2    0    0 -0.33345376636E+02  0.17148038860E+02  0.15722485231E+02  0.40659143149E+02  0.00000000000E+00 0.  1.
         11    1    3    3    0    0  0.16139621582E+02 -0.19799009321E+02 -0.37596017470E+01  0.25819038720E+02  0.51100000000E-03 0.  1.
        -11    1    3    3    0    0  0.47488472969E-01 -0.18792214648E+01  0.15242196699E+01  0.24201186608E+01  0.51100000000E-03 0. -1.
        -12    1    3    3    0    0  0.17158266582E+02  0.45301919257E+01 -0.13487103154E+02  0.22289699470E+02  0.00000000000E+00 0.  1.
</event>
<event>
 7    1  0.2817603E-011  0.5052886E+02  0.7816164E-02  0.1300439E+00
        -11   -1    0    0    0    0  0.00000000000E+00  0.00000000000E+00  0.45593999997E+02  0.45594000000E+02  0.51100000000E-03 0.  1.
         11   -1    0    0    0    0 -0.00000000000E+00 -0.00000000000E+00 -0.45593999997E+02  0.45594000000E+02  0.51100000000E-03 0. -1.
    9900012    2    1    2    0    0  0.33255639853E+01  0.38767996826E+02 -0.11796117720E+02  0.50528863918E+02  0.30000012365E+02 0.  0.
        -12    1    1    2    0    0 -0.33255639853E+01 -0.38767996826E+02  0.11796117720E+02  0.40659136082E+02  0.00000000000E+00 0.  1.
         11    1    3    3    0    0  0.17271961988E+01  0.14178365931E+02 -0.67541061210E+00  0.14299141476E+02  0.51100000000E-03 0. -1.
        -11    1    3    3    0    0  0.28114013091E+01  0.29367741437E+02 -0.10194972990E+02  0.31213870137E+02  0.51100000000E-03 0.  1.
        -12    1    3    3    0    0 -0.12130335226E+01 -0.47781105427E+01 -0.92573411728E+00  0.50158523045E+01  0.00000000000E+00 0.  1.
</event>
<event>
 7    1  0.2817603E-011  0.5052886E+02  0.7816164E-02  0.1300439E+00
        -11   -1    0    0    0    0  0.00000000000E+00  0.00000000000E+00  0.45593999997E+02  0.45594000000E+02  0.51100000000E-03 0.  1.
         11   -1    0    0    0    0 -0.00000000000E+00 -0.00000000000E+00 -0.45593999997E+02  0.45594000000E+02  0.51100000000E-03 0. -1.
    9900012    2    1    2    0    0 -0.34370675422E+02  0.21156120245E+02 -0.49235264489E+01  0.50528857542E+02  0.29999992984E+02 0.  0.
        -12    1    1    2    0    0  0.34370675422E+02 -0.21156120245E+02  0.49235264489E+01  0.40659142458E+02  0.00000000000E+00 0.  1.
         11    1    3    3    0    0 -0.43141906934E+01  0.51289952833E+01 -0.51007044038E+01  0.84223523812E+01  0.51100000000E-03 0. -1.
        -11    1    3    3    0    0 -0.24047083366E+02  0.90441032152E+01 -0.10718623840E+02  0.27837868429E+02  0.51100000000E-03 0.  1.
        -12    1    3    3    0    0 -0.60094013619E+01  0.69830217461E+01  0.10895801794E+02  0.14268636732E+02  0.00000000000E+00 0.  1.
</event>
<event>
 7    1  0.2817603E-011  0.5052882E+02  0.7816164E-02  0.1300439E+00
        -11   -1    0    0    0    0  0.00000000000E+00  0.00000000000E+00  0.45593999997E+02  0.45594000000E+02  0.51100000000E-03 0.  1.
         11   -1    0    0    0    0 -0.00000000000E+00 -0.00000000000E+00 -0.45593999997E+02  0.45594000000E+02  0.51100000000E-03 0. -1.
    9900012    2    1    2    0    0 -0.67642028427E+01 -0.32948616593E+02 -0.22843013982E+02  0.50528818217E+02  0.29999873451E+02 0.  0.
        -12    1    1    2    0    0  0.67642028427E+01  0.32948616593E+02  0.22843013982E+02  0.40659181783E+02  0.00000000000E+00 0.  1.
         11    1    3    3    0    0  0.37483669315E+01 -0.22411353636E+02 -0.15498958552E+02  0.27505213013E+02  0.51100000000E-03 0. -1.
        -11    1    3    3    0    0 -0.18457615926E+01 -0.12707314657E+02 -0.50619876433E+01  0.13802405617E+02  0.51100000000E-03 0.  1.
        -12    1    3    3    0    0 -0.86668081817E+01  0.21700516995E+01 -0.22820677864E+01  0.92211995867E+01  0.00000000000E+00 0.  1.
</event>
<event>
 7    1  0.2817603E-011  0.5052886E+02  0.7816164E-02  0.1300439E+00
        -11   -1    0    0    0    0  0.00000000000E+00  0.00000000000E+00  0.45593999997E+02  0.45594000000E+02  0.51100000000E-03 0.  1.
         11   -1    0    0    0    0 -0.00000000000E+00 -0.00000000000E+00 -0.45593999997E+02  0.45594000000E+02  0.51100000000E-03 0. -1.
    9900012    2    1    2    0    0 -0.18077785505E+02 -0.17060838574E+02 -0.32175880289E+02  0.50528858175E+02  0.29999994908E+02 0.  0.
        -12    1    1    2    0    0  0.18077785505E+02  0.17060838574E+02  0.32175880289E+02  0.40659141825E+02  0.00000000000E+00 0.  1.
         11    1    3    3    0    0  0.17059218133E+01 -0.87374947049E+01 -0.22066371674E+01  0.91718717174E+01  0.51100000000E-03 0. -1.
        -11    1    3    3    0    0 -0.95013665402E+00 -0.52710195910E+01  0.52950800302E+00  0.53820800975E+01  0.51100000000E-03 0.  1.
         12    1    3    3    0    0 -0.18833570664E+02 -0.30523242778E+01 -0.30498751125E+02  0.35974906360E+02  0.00000000000E+00 0. -1.
</event>
<event>
 7    1  0.2817603E-011  0.5052889E+02  0.7816164E-02  0.1300439E+00
        -11   -1    0    0    0    0  0.00000000000E+00  0.00000000000E+00  0.45593999997E+02  0.45594000000E+02  0.51100000000E-03 0. -1.
         11   -1    0    0    0    0 -0.00000000000E+00 -0.00000000000E+00 -0.45593999997E+02  0.45594000000E+02  0.51100000000E-03 0.  1.
    9900012    2    1    2    0    0  0.36886250511E+02 -0.17104369769E+02 -0.92780969219E-01  0.50528886013E+02  0.30000079524E+02 0.  0.
        -12    1    1    2    0    0 -0.36886250511E+02  0.17104369769E+02  0.92780969219E-01  0.40659113987E+02  0.00000000000E+00 0.  1.
         11    1    3    3    0    0  0.10266064574E+01 -0.60994293921E+01 -0.44572059359E+01  0.76238864593E+01  0.51100000000E-03 0. -1.
        -11    1    3    3    0    0  0.41416133907E+01  0.55159317395E+01  0.12145133554E+01  0.70038209132E+01  0.51100000000E-03 0.  1.
         12    1    3    3    0    0  0.31718030663E+02 -0.16520872116E+02  0.31499116112E+01  0.35901178640E+02  0.00000000000E+00 0. -1.
</event>
<event>
 7    1  0.2817603E-011  0.5052887E+02  0.7816164E-02  0.1300439E+00
        -11   -1    0    0    0    0  0.00000000000E+00  0.00000000000E+00  0.45593999997E+02  0.45594000000E+02  0.51100000000E-03 0.  1.
         11   -1    0    0    0    0 -0.00000000000E+00 -0.00000000000E+00 -0.45593999997E+02  0.45594000000E+02  0.51100000000E-03 0. -1.
    9900012    2    1    2    0    0  0.19558840356E+02  0.11362635388E+02 -0.33786202557E+02  0.50528865697E+02  0.30000017774E+02 0.  0.
        -12    1    1    2    0    0 -0.19558840356E+02 -0.11362635388E+02  0.33786202557E+02  0.40659134303E+02  0.00000000000E+00 0.  1.
         11    1    3    3    0    0  0.23686760148E+00 -0.66420029219E+00 -0.54124368071E+01  0.54581810835E+01  0.51100000000E-03 0. -1.
        -11    1    3    3    0    0  0.22917952607E+01 -0.69809801716E+01 -0.13921915364E+02  0.15741859399E+02  0.51100000000E-03 0.  1.
         12    1    3    3    0    0  0.17030177494E+02  0.19007815852E+02 -0.14451850385E+02  0.29328825215E+02  0.00000000000E+00 0. -1.
</event>
<event>
 7    1  0.2817603E-011  0.5052886E+02  0.7816164E-02  0.1300439E+00
        -11   -1    0    0    0    0  0.00000000000E+00  0.00000000000E+00  0.45593999997E+02  0.45594000000E+02  0.51100000000E-03 0.  1.
         11   -1    0    0    0    0 -0.00000000000E+00 -0.00000000000E+00 -0.45593999997E+02  0.45594000000E+02  0.51100000000E-03 0. -1.
    9900012    2    1    2    0    0 -0.23412607854E+02  0.15968928444E+01 -0.33203397293E+02  0.50528857546E+02  0.29999992996E+02 0.  0.
        -12    1    1    2    0    0  0.23412607854E+02 -0.15968928444E+01  0.33203397293E+02  0.40659142454E+02  0.00000000000E+00 0.  1.
         11    1    3    3    0    0 -0.18694373603E+01  0.53384484738E+01 -0.10827144502E+02  0.12215600128E+02  0.51100000000E-03 0. -1.
        -11    1    3    3    0    0  0.91374902883E+00  0.60736205697E+01 -0.72963515950E+01  0.95373240991E+01  0.51100000000E-03 0.  1.
         12    1    3    3    0    0 -0.22456919523E+02 -0.98151761991E+01 -0.15079901197E+02  0.28775933319E+02  0.00000000000E+00 0. -1.
</event>
<event>
 7    1  0.2817603E-011  0.5052886E+02  0.7816164E-02  0.1300439E+00
        -11   -1    0    0    0    0  0.00000000000E+00  0.00000000000E+00  0.45593999997E+02  0.45594000000E+02  0.51100000000E-03 0.  1.
         11   -1    0    0    0    0 -0.00000000000E+00 -0.00000000000E+00 -0.45593999997E+02  0.45594000000E+02  0.51100000000E-03 0. -1.
    9900012    2    1    2    0    0 -0.42746631541E+01  0.34819210503E+02 -0.20555179450E+02  0.50528861207E+02  0.30000004125E+02 0.  0.
        -12    1    1    2    0    0  0.42746631541E+01 -0.34819210503E+02  0.20555179450E+02  0.40659138793E+02  0.00000000000E+00 0.  1.
         11    1    3    3    0    0 -0.17004963122E+01 -0.21791915798E+00 -0.82246563859E+01  0.84014373410E+01  0.51100000000E-03 0. -1.
        -11    1    3    3    0    0  0.44826444896E+01  0.52312400981E+01 -0.89751662666E+01  0.11314308833E+02  0.51100000000E-03 0.  1.
        -12    1    3    3    0    0 -0.70568113316E+01  0.29805889563E+02 -0.33553567980E+01  0.30813115033E+02  0.00000000000E+00 0.  1.
</event>
<event>
 7    1  0.2817603E-011  0.5052885E+02  0.7816164E-02  0.1300439E+00
        -11   -1    0    0    0    0  0.00000000000E+00  0.00000000000E+00  0.45593999997E+02  0.45594000000E+02  0.51100000000E-03 0.  1.
         11   -1    0    0    0    0 -0.00000000000E+00 -0.00000000000E+00 -0.45593999997E+02  0.45594000000E+02  0.51100000000E-03 0. -1.
    9900012    2    1    2    0    0  0.13375965502E+02 -0.29523387851E+02 -0.24548305978E+02  0.50528853308E+02  0.29999980116E+02 0.  0.
        -12    1    1    2    0    0 -0.13375965502E+02  0.29523387851E+02  0.24548305978E+02  0.40659146692E+02  0.00000000000E+00 0.  1.
         11    1    3    3    0    0  0.53529953303E+01 -0.15151277907E+02 -0.11738462310E+02  0.19899931630E+02  0.51100000000E-03 0. -1.
        -11    1    3    3    0    0  0.88388630102E+01 -0.19130640185E+02 -0.14424982879E+02  0.25537952630E+02  0.51100000000E-03 0.  1.
        -12    1    3    3    0    0 -0.81589283849E+00  0.47585302416E+01  0.16151392102E+01  0.50909690485E+01  0.00000000000E+00 0.  1.
</event>
<event>
 7    1  0.2817603E-011  0.5052886E+02  0.7816164E-02  0.1300439E+00
        -11   -1    0    0    0    0  0.00000000000E+00  0.00000000000E+00  0.45593999997E+02  0.45594000000E+02  0.51100000000E-03 0.  1.
         11   -1    0    0    0    0 -0.00000000000E+00 -0.00000000000E+00 -0.45593999997E+02  0.45594000000E+02  0.51100000000E-03 0. -1.
    9900012    2    1    2    0    0 -0.74845243916E+01  0.39886758068E+02 -0.24887691343E+01  0.50528861466E+02  0.30000004913E+02 0.  0.
        -12    1    1    2    0    0  0.74845243916E+01 -0.39886758068E+02  0.24887691343E+01  0.40659138534E+02  0.00000000000E+00 0.  1.
         11    1    3    3    0    0 -0.11009200220E+02  0.53458101979E+01  0.38459465847E+00  0.12244512627E+02  0.51100000000E-03 0. -1.
        -11    1    3    3    0    0  0.27069601920E+01  0.58532854971E+01  0.54055496348E+01  0.84147817385E+01  0.51100000000E-03 0.  1.
         12    1    3    3    0    0  0.81771563623E+00  0.28687662373E+02 -0.82789134276E+01  0.29869567101E+02  0.00000000000E+00 0. -1.
</event>
<event>
 7    1  0.2817603E-011  0.5052886E+02  0.7816164E-02  0.1300439E+00
        -11   -1    0    0    0    0  0.00000000000E+00  0.00000000000E+00  0.45593999997E+02  0.45594000000E+02  0.51100000000E-03 0. -1.
         11   -1    0    0    0    0 -0.00000000000E+00 -0.00000000000E+00 -0.45593999997E+02  0.45594000000E+02  0.51100000000E-03 0.  1.
    9900012    2    1    2    0    0  0.35550441738E+02  0.17455692594E+02 -0.91994655670E+01  0.50528864761E+02  0.30000014927E+02 0.  0.
        -12    1    1    2    0    0 -0.35550441738E+02 -0.17455692594E+02  0.91994655670E+01  0.40659135239E+02  0.00000000000E+00 0.  1.
         11    1    3    3    0    0  0.56615283545E+01 -0.22689446166E+00 -0.32490707798E+01  0.65315270496E+01  0.51100000000E-03 0.  1.
        -11    1    3    3    0    0  0.33613706534E+02  0.11548857568E+02 -0.82016901121E+01  0.36476363567E+02  0.51100000000E-03 0. -1.
         12    1    3    3    0    0 -0.37247931512E+01  0.61337294871E+01  0.22512953249E+01  0.75209741444E+01  0.00000000000E+00 0. -1.
</event>
<event>
 7    1  0.2817603E-011  0.5052886E+02  0.7816164E-02  0.1300439E+00
        -11   -1    0    0    0    0  0.00000000000E+00  0.00000000000E+00  0.45593999997E+02  0.45594000000E+02  0.51100000000E-03 0. -1.
         11   -1    0    0    0    0 -0.00000000000E+00 -0.00000000000E+00 -0.45593999997E+02  0.45594000000E+02  0.51100000000E-03 0.  1.
    9900012    2    1    2    0    0 -0.86481435182E+00 -0.29001244463E+01  0.40546356097E+02  0.50528860580E+02  0.30000002219E+02 0.  0.
        -12    1    1    2    0    0  0.86481435182E+00  0.29001244463E+01 -0.40546356097E+02  0.40659139420E+02  0.00000000000E+00 0.  1.
         11    1    3    3    0    0  0.86979553303E+01 -0.31201769451E+01  0.34117339720E+01  0.98503735996E+01  0.51100000000E-03 0. -1.
        -11    1    3    3    0    0  0.24981440325E+01  0.20567079833E+00  0.12101054157E+01  0.27834114792E+01  0.51100000000E-03 0.  1.
        -12    1    3    3    0    0 -0.12060913715E+02  0.14381700437E-01  0.35924516709E+02  0.37895075501E+02  0.00000000000E+00 0.  1.
</event>
<event>
 7    1  0.2817603E-011  0.5052885E+02  0.7816164E-02  0.1300439E+00
        -11   -1    0    0    0    0  0.00000000000E+00  0.00000000000E+00  0.45593999997E+02  0.45594000000E+02  0.51100000000E-03 0.  1.
         11   -1    0    0    0    0 -0.00000000000E+00 -0.00000000000E+00 -0.45593999997E+02  0.45594000000E+02  0.51100000000E-03 0. -1.
    9900012    2    1    2    0    0 -0.31826901287E+02 -0.24420144669E+02 -0.66235203108E+01  0.50528854257E+02  0.29999983001E+02 0.  0.
        -12    1    1    2    0    0  0.31826901287E+02  0.24420144669E+02  0.66235203108E+01  0.40659145743E+02  0.00000000000E+00 0.  1.
         11    1    3    3    0    0 -0.10160541639E+02 -0.14101354815E+02  0.47015299098E+01  0.18005254726E+02  0.51100000000E-03 0. -1.
        -11    1    3    3    0    0 -0.11414988335E+00 -0.31356815436E+00  0.41525355616E+01  0.41659221110E+01  0.51100000000E-03 0.  1.
         12    1    3    3    0    0 -0.21552209765E+02 -0.10005221700E+02 -0.15477585782E+02  0.28357677420E+02  0.00000000000E+00 0. -1.
</event>
<event>
 7    1  0.2817603E-011  0.5052886E+02  0.7816164E-02  0.1300439E+00
        -11   -1    0    0    0    0  0.00000000000E+00  0.00000000000E+00  0.45593999997E+02  0.45594000000E+02  0.51100000000E-03 0.  1.
         11   -1    0    0    0    0 -0.00000000000E+00 -0.00000000000E+00 -0.45593999997E+02  0.45594000000E+02  0.51100000000E-03 0. -1.
    9900012    2    1    2    0    0  0.12531029337E+01 -0.24486905693E+02 -0.32434348242E+02  0.50528858798E+02  0.29999996803E+02 0.  0.
        -12    1    1    2    0    0 -0.12531029337E+01  0.24486905693E+02  0.32434348242E+02  0.40659141202E+02  0.00000000000E+00 0.  1.
         11    1    3    3    0    0  0.25631198741E+01 -0.21906195749E+02 -0.26678509315E+02  0.34614936880E+02  0.51100000000E-03 0. -1.
        -11    1    3    3    0    0  0.14783417668E+01 -0.83059073096E+01 -0.37954455089E+01  0.92508917131E+01  0.51100000000E-03 0.  1.
        -12    1    3    3    0    0 -0.27883587072E+01  0.57251973655E+01 -0.19603934177E+01  0.66630302045E+01  0.00000000000E+00 0.  1.
</event>
<event>
 7    1  0.2817603E-011  0.5052883E+02  0.7816164E-02  0.1300439E+00
        -11   -1    0    0    0    0  0.00000000000E+00  0.00000000000E+00  0.45593999997E+02  0.45594000000E+02  0.51100000000E-03 0.  1.
         11   -1    0    0    0    0 -0.00000000000E+00 -0.00000000000E+00 -0.45593999997E+02  0.45594000000E+02  0.51100000000E-03 0. -1.
    9900012    2    1    2    0    0 -0.75986899949E+01  0.39021940697E+02 -0.85273808802E+01  0.50528829201E+02  0.29999906838E+02 0.  0.
        -12    1    1    2    0    0  0.75986899949E+01 -0.39021940697E+02  0.85273808802E+01  0.40659170799E+02  0.00000000000E+00 0.  1.
         11    1    3    3    0    0  0.58235560312E+01  0.28127794472E+01  0.45280707923E+01  0.78948691204E+01  0.51100000000E-03 0. -1.
        -11    1    3    3    0    0 -0.87462470889E+01  0.16151015656E+02 -0.22513563129E+00  0.18368528280E+02  0.51100000000E-03 0.  1.
         12    1    3    3    0    0 -0.46759989372E+01  0.20058145594E+02 -0.12830316041E+02  0.24265431800E+02  0.00000000000E+00 0. -1.
</event>
<event>
 7    1  0.2817603E-011  0.5052886E+02  0.7816164E-02  0.1300439E+00
        -11   -1    0    0    0    0  0.00000000000E+00  0.00000000000E+00  0.45593999997E+02  0.45594000000E+02  0.51100000000E-03 0.  1.
         11   -1    0    0    0    0 -0.00000000000E+00 -0.00000000000E+00 -0.45593999997E+02  0.45594000000E+02  0.51100000000E-03 0. -1.
    9900012    2    1    2    0    0  0.22908290780E+02 -0.33473625527E+02 -0.28092875998E+01  0.50528862169E+02  0.30000007048E+02 0.  0.
        -12    1    1    2    0    0 -0.22908290780E+02  0.33473625527E+02  0.28092875998E+01  0.40659137831E+02  0.00000000000E+00 0.  1.
         11    1    3    3    0    0 -0.35276294930E+00 -0.12671065656E+01 -0.55028990470E+01  0.56579058785E+01  0.51100000000E-03 0. -1.
        -11    1    3    3    0    0  0.14336301233E+01 -0.14015765849E+02  0.76443791946E+01  0.16029145991E+02  0.51100000000E-03 0.  1.
        -12    1    3    3    0    0  0.21827423606E+02 -0.18190753112E+02 -0.49507677474E+01  0.28841810299E+02  0.00000000000E+00 0.  1.
</event>
<event>
 7    1  0.2817603E-011  0.5052886E+02  0.7816164E-02  0.1300439E+00
        -11   -1    0    0    0    0  0.00000000000E+00  0.00000000000E+00  0.45593999997E+02  0.45594000000E+02  0.51100000000E-03 0.  1.
         11   -1    0    0    0    0 -0.00000000000E+00 -0.00000000000E+00 -0.45593999997E+02  0.45594000000E+02  0.51100000000E-03 0. -1.
    9900012    2    1    2    0    0  0.40064782207E+02 -0.19477086704E+01 -0.66471863172E+01  0.50528862918E+02  0.30000009324E+02 0.  0.
        -12    1    1    2    0    0 -0.40064782207E+02  0.19477086704E+01  0.66471863172E+01  0.40659137082E+02  0.00000000000E+00 0.  1.
         11    1    3    3    0    0  0.13321723646E-01 -0.35386834028E+01 -0.17129971816E+01  0.39315159034E+01  0.51100000000E-03 0. -1.
        -11    1    3    3    0    0  0.88811952244E+01  0.30303665736E+01 -0.11364621911E+02  0.14738160727E+02  0.51100000000E-03 0.  1.
         12    1    3    3    0    0  0.31170265259E+02 -0.14393918413E+01  0.64304327753E+01  0.31859186287E+02  0.00000000000E+00 0. -1.
</event>
<event>
 7    1  0.2817603E-011  0.5052887E+02  0.7816164E-02  0.1300439E+00
        -11   -1    0    0    0    0  0.00000000000E+00  0.00000000000E+00  0.45593999997E+02  0.45594000000E+02  0.51100000000E-03 0. -1.
         11   -1    0    0    0    0 -0.00000000000E+00 -0.00000000000E+00 -0.45593999997E+02  0.45594000000E+02  0.51100000000E-03 0.  1.
    9900012    2    1    2    0    0 -0.29241026884E+01  0.19590564857E+01  0.40506502744E+02  0.50528867651E+02  0.30000023711E+02 0.  0.
        -12    1    1    2    0    0  0.29241026884E+01 -0.19590564857E+01 -0.40506502744E+02  0.40659132349E+02  0.00000000000E+00 0.  1.
         11    1    3    3    0    0 -0.56029617685E+01  0.58833808198E+01  0.10550238271E+02  0.13315963288E+02  0.51100000000E-03 0. -1.
        -11    1    3    3    0    0 -0.80396845549E+01 -0.14307557964E+00  0.21764980262E+02  0.23202830958E+02  0.51100000000E-03 0.  1.
         12    1    3    3    0    0  0.10718543635E+02 -0.37812487544E+01  0.81912842109E+01  0.14010073405E+02  0.00000000000E+00 0. -1.
</event>
<event>
 7    1  0.2817603E-011  0.5052886E+02  0.7816164E-02  0.1300439E+00
        -11   -1    0    0    0    0  0.00000000000E+00  0.00000000000E+00  0.45593999997E+02  0.45594000000E+02  0.51100000000E-03 0.  1.
         11   -1    0    0    0    0 -0.00000000000E+00 -0.00000000000E+00 -0.45593999997E+02  0.45594000000E+02  0.51100000000E-03 0. -1.
    9900012    2    1    2    0    0 -0.17559595540E+02 -0.21030541136E+02 -0.30042346741E+02  0.50528860146E+02  0.30000000899E+02 0.  0.
        -12    1    1    2    0    0  0.17559595540E+02  0.21030541136E+02  0.30042346741E+02  0.40659139854E+02  0.00000000000E+00 0.  1.
         11    1    3    3    0    0 -0.23853191174E+01 -0.78533272867E+01  0.29086782249E+01  0.87077497691E+01  0.51100000000E-03 0. -1.
        -11    1    3    3    0    0  0.12209372168E+01  0.39933857807E+00  0.10817695284E+01  0.16794000598E+01  0.51100000000E-03 0.  1.
         12    1    3    3    0    0 -0.16395213640E+02 -0.13576552427E+02 -0.34032794494E+02  0.40141710317E+02  0.00000000000E+00 0. -1.
</event>
<event>
 7    1  0.2817603E-011  0.5052887E+02  0.7816164E-02  0.1300439E+00
        -11   -1    0    0    0    0  0.00000000000E+00  0.00000000000E+00  0.45593999997E+02  0.45594000000E+02  0.51100000000E-03 0.  1.
         11   -1    0    0    0    0 -0.00000000000E+00 -0.00000000000E+00 -0.45593999997E+02  0.45594000000E+02  0.51100000000E-03 0. -1.
    9900012    2    1    2    0    0 -0.13213791370E+01  0.27628646327E+01 -0.40543625065E+02  0.50528868218E+02  0.30000025436E+02 0.  0.
        -12    1    1    2    0    0  0.13213791370E+01 -0.27628646327E+01  0.40543625065E+02  0.40659131782E+02  0.00000000000E+00 0.  1.
         11    1    3    3    0    0  0.86599948859E+00 -0.47186245137E+01 -0.17676962305E+02  0.18316396179E+02  0.51100000000E-03 0. -1.
        -11    1    3    3    0    0 -0.19620844830E+01 -0.72108751789E+01 -0.46241965065E+01  0.87880424416E+01  0.51100000000E-03 0.  1.
        -12    1    3    3    0    0 -0.22529414253E+00  0.14692364325E+02 -0.18242466254E+02  0.23424429597E+02  0.00000000000E+00 0.  1.
</event>
<event>
 7    1  0.2817603E-011  0.5052884E+02  0.7816164E-02  0.1300439E+00
        -11   -1    0    0    0    0  0.00000000000E+00  0.00000000000E+00  0.45593999997E+02  0.45594000000E+02  0.51100000000E-03 0.  1.
         11   -1    0    0    0    0 -0.00000000000E+00 -0.00000000000E+00 -0.45593999997E+02  0.45594000000E+02  0.51100000000E-03 0. -1.
    9900012    2    1    2    0    0  0.25033437789E+02 -0.26955971135E+02 -0.17316755494E+02  0.50528838570E+02  0.29999935316E+02 0.  0.
        -12    1    1    2    0    0 -0.25033437789E+02  0.26955971135E+02  0.17316755494E+02  0.40659161430E+02  0.00000000000E+00 0.  1.
         11    1    3    3    0    0  0.11738475695E+02 -0.14208779420E+02 -0.18530982616E+01  0.18523368961E+02  0.51100000000E-03 0. -1.
        -11    1    3    3    0    0  0.85279880410E+01 -0.89862414618E+01  0.28493156238E+01  0.12712109008E+02  0.51100000000E-03 0.  1.
         12    1    3    3    0    0  0.47669740530E+01 -0.37609502539E+01 -0.18312972857E+02  0.19293360601E+02  0.00000000000E+00 0. -1.
</event>
<event>
 7    1  0.2817603E-011  0.5052886E+02  0.7816164E-02  0.1300439E+00
        -11   -1    0    0    0    0  0.00000000000E+00  0.00000000000E+00  0.45593999997E+02  0.45594000000E+02  0.51100000000E-03 0. -1.
         11   -1    0    0    0    0 -0.00000000000E+00 -0.00000000000E+00 -0.45593999997E+02  0.45594000000E+02  0.51100000000E-03 0.  1.
    9900012    2    1    2    0    0  0.33427063498E+01 -0.10413174461E+02  0.39160666981E+02  0.50528859250E+02  0.29999998176E+02 0.  0.
        -12    1    1    2    0    0 -0.33427063498E+01  0.10413174461E+02 -0.39160666981E+02  0.40659140750E+02  0.00000000000E+00 0.  1.
         11    1    3    3    0    0  0.13966399006E+01 -0.12549743665E+02  0.64738565942E+01  0.14190048926E+02  0.51100000000E-03 0. -1.
        -11    1    3    3    0    0 -0.46931203643E+01 -0.39991612757E+00  0.26502051927E+02  0.26917356265E+02  0.51100000000E-03 0.  1.
         12    1    3    3    0    0  0.66391868135E+01  0.25364853311E+01  0.61847584598E+01  0.94214540590E+01  0.00000000000E+00 0. -1.
</event>
<event>
 7    1  0.2817603E-011  0.5052885E+02  0.7816164E-02  0.1300439E+00
        -11   -1    0    0    0    0  0.00000000000E+00  0.00000000000E+00  0.45593999997E+02  0.45594000000E+02  0.51100000000E-03 0. -1.
         11   -1    0    0    0    0 -0.00000000000E+00 -0.00000000000E+00 -0.45593999997E+02  0.45594000000E+02  0.51100000000E-03 0.  1.
    9900012    2    1    2    0    0  0.19401726240E+02  0.18003549633E+02  0.30864411748E+02  0.50528847365E+02  0.29999962049E+02 0.  0.
        -12    1    1    2    0    0 -0.19401726240E+02 -0.18003549633E+02 -0.30864411748E+02  0.40659152635E+02  0.00000000000E+00 0.  1.
         11    1    3    3    0    0  0.20414307124E+02  0.18101706974E+02  0.16609649570E+02  0.31942075540E+02  0.51100000000E-03 0. -1.
        -11    1    3    3    0    0  0.29640824625E+01  0.47786911132E+01  0.63165404907E+01  0.84569709490E+01  0.51100000000E-03 0.  1.
        -12    1    3    3    0    0 -0.39766633466E+01 -0.48768484539E+01  0.79382216874E+01  0.10129800875E+02  0.00000000000E+00 0.  1.
</event>
<event>
 7    1  0.2817603E-011  0.5052886E+02  0.7816164E-02  0.1300439E+00
        -11   -1    0    0    0    0  0.00000000000E+00  0.00000000000E+00  0.45593999997E+02  0.45594000000E+02  0.51100000000E-03 0. -1.
         11   -1    0    0    0    0 -0.00000000000E+00 -0.00000000000E+00 -0.45593999997E+02  0.45594000000E+02  0.51100000000E-03 0.  1.
    9900012    2    1    2    0    0  0.58585340391E+01 -0.54315037229E+01  0.39866549749E+02  0.50528862741E+02  0.30000008786E+02 0.  0.
        -12    1    1    2    0    0 -0.58585340391E+01  0.54315037229E+01 -0.39866549749E+02  0.40659137259E+02  0.00000000000E+00 0.  1.
         11    1    3    3    0    0  0.87829934094E+01  0.82964535861E+01  0.22424649852E+02  0.25472279768E+02  0.51100000000E-03 0. -1.
        -11    1    3    3    0    0 -0.49084995217E+00  0.17765943150E+01  0.39547950171E+01  0.43632126838E+01  0.51100000000E-03 0.  1.
        -12    1    3    3    0    0 -0.24336094181E+01 -0.15504551624E+02  0.13487104880E+02  0.20693370289E+02  0.00000000000E+00 0.  1.
</event>
<event>
 7    1  0.2817603E-011  0.5052883E+02  0.7816164E-02  0.1300439E+00
        -11   -1    0    0    0    0  0.00000000000E+00  0.00000000000E+00  0.45593999997E+02  0.45594000000E+02  0.51100000000E-03 0. -1.
         11   -1    0    0    0    0 -0.00000000000E+00 -0.00000000000E+00 -0.45593999997E+02  0.45594000000E+02  0.51100000000E-03 0.  1.
    9900012    2    1    2    0    0 -0.30152712765E+02  0.12380046330E+02  0.24304655925E+02  0.50528832106E+02  0.29999915669E+02 0.  0.
        -12    1    1    2    0    0  0.30152712765E+02 -0.12380046330E+02 -0.24304655925E+02  0.40659167894E+02  0.00000000000E+00 0.  1.
         11    1    3    3    0    0 -0.21203529911E+02  0.12245637220E+02  0.82734631623E+01  0.25845608999E+02  0.51100000000E-03 0. -1.
        -11    1    3    3    0    0 -0.18776739369E+01 -0.72587794908E+00  0.17326257520E+02  0.17442813939E+02  0.51100000000E-03 0.  1.
         12    1    3    3    0    0 -0.70715089171E+01  0.86028705955E+00 -0.12950647567E+01  0.72404091676E+01  0.00000000000E+00 0. -1.
</event>
<event>
 7    1  0.2817603E-011  0.5052885E+02  0.7816164E-02  0.1300439E+00
        -11   -1    0    0    0    0  0.00000000000E+00  0.00000000000E+00  0.45593999997E+02  0.45594000000E+02  0.51100000000E-03 0. -1.
         11   -1    0    0    0    0 -0.00000000000E+00 -0.00000000000E+00 -0.45593999997E+02  0.45594000000E+02  0.51100000000E-03 0.  1.
    9900012    2    1    2    0    0  0.31299550051E+02 -0.24881450797E+02 -0.73768702141E+01  0.50528848001E+02  0.29999963983E+02 0.  0.
        -12    1    1    2    0    0 -0.31299550051E+02  0.24881450797E+02  0.73768702141E+01  0.40659151999E+02  0.00000000000E+00 0.  1.
         11    1    3    3    0    0  0.12625690449E+02 -0.68970623414E+01 -0.48986052220E+01  0.15197824241E+02  0.51100000000E-03 0. -1.
        -11    1    3    3    0    0  0.14133424489E+02 -0.70385642203E+01 -0.12240084796E+02  0.19977856495E+02  0.51100000000E-03 0.  1.
         12    1    3    3    0    0  0.45404351128E+01 -0.10945824235E+02  0.97618198035E+01  0.15353167265E+02  0.00000000000E+00 0. -1.
</event>
<event>
 7    1  0.2817603E-011  0.5052885E+02  0.7816164E-02  0.1300439E+00
        -11   -1    0    0    0    0  0.00000000000E+00  0.00000000000E+00  0.45593999997E+02  0.45594000000E+02  0.51100000000E-03 0.  1.
         11   -1    0    0    0    0 -0.00000000000E+00 -0.00000000000E+00 -0.45593999997E+02  0.45594000000E+02  0.51100000000E-03 0. -1.
    9900012    2    1    2    0    0  0.38396496201E+02  0.69659031441E+00 -0.13356272981E+02  0.50528853593E+02  0.29999980981E+02 0.  0.
        -12    1    1    2    0    0 -0.38396496201E+02 -0.69659031441E+00  0.13356272981E+02  0.40659146407E+02  0.00000000000E+00 0.  1.
         11    1    3    3    0    0  0.33647880987E+02  0.39452492730E+01 -0.18062617175E+02  0.38392747052E+02  0.51100000000E-03 0. -1.
        -11    1    3    3    0    0  0.34824076685E+00  0.27290331812E+01 -0.83280648657E+00  0.28744496240E+01  0.51100000000E-03 0.  1.
        -12    1    3    3    0    0  0.44003744474E+01 -0.59776921397E+01  0.55391506800E+01  0.92616569171E+01  0.00000000000E+00 0.  1.
</event>
<event>
 7    1  0.2817603E-011  0.5052886E+02  0.7816164E-02  0.1300439E+00
        -11   -1    0    0    0    0  0.00000000000E+00  0.00000000000E+00  0.45593999997E+02  0.45594000000E+02  0.51100000000E-03 0. -1.
         11   -1    0    0    0    0 -0.00000000000E+00 -0.00000000000E+00 -0.45593999997E+02  0.45594000000E+02  0.51100000000E-03 0.  1.
    9900012    2    1    2    0    0 -0.29171675052E+02  0.21614648697E+02 -0.18302622030E+02  0.50528860353E+02  0.30000001529E+02 0.  0.
        -12    1    1    2    0    0  0.29171675052E+02 -0.21614648697E+02  0.18302622030E+02  0.40659139647E+02  0.00000000000E+00 0.  1.
         11    1    3    3    0    0 -0.19308236507E+01  0.50643656652E+01  0.17814822544E+01  0.57052220680E+01  0.51100000000E-03 0. -1.
        -11    1    3    3    0    0 -0.18780992563E+02  0.19581762608E+02 -0.54865346709E+01  0.27681639609E+02  0.51100000000E-03 0.  1.
        -12    1    3    3    0    0 -0.84598588386E+01 -0.30314795765E+01 -0.14597569613E+02  0.17141998676E+02  0.00000000000E+00 0.  1.
</event>
<event>
 7    1  0.2817603E-011  0.5052887E+02  0.7816164E-02  0.1300439E+00
        -11   -1    0    0    0    0  0.00000000000E+00  0.00000000000E+00  0.45593999997E+02  0.45594000000E+02  0.51100000000E-03 0. -1.
         11   -1    0    0    0    0 -0.00000000000E+00 -0.00000000000E+00 -0.45593999997E+02  0.45594000000E+02  0.51100000000E-03 0.  1.
    9900012    2    1    2    0    0 -0.11190459285E+02  0.38931724699E+02  0.35013418824E+01  0.50528868651E+02  0.30000026752E+02 0.  0.
        -12    1    1    2    0    0  0.11190459285E+02 -0.38931724699E+02 -0.35013418824E+01  0.40659131349E+02  0.00000000000E+00 0.  1.
         11    1    3    3    0    0 -0.88229415104E+01  0.11386426891E+02  0.54490973051E+01  0.15400898544E+02  0.51100000000E-03 0. -1.
        -11    1    3    3    0    0 -0.73340855943E+01  0.23646887465E+01  0.41436149536E+01  0.87492919437E+01  0.51100000000E-03 0.  1.
        -12    1    3    3    0    0  0.49665678193E+01  0.25180609061E+02 -0.60913703763E+01  0.26378678164E+02  0.00000000000E+00 0.  1.
</event>
<event>
 7    1  0.2817603E-011  0.5052886E+02  0.7816164E-02  0.1300439E+00
        -11   -1    0    0    0    0  0.00000000000E+00  0.00000000000E+00  0.45593999997E+02  0.45594000000E+02  0.51100000000E-03 0. -1.
         11   -1    0    0    0    0 -0.00000000000E+00 -0.00000000000E+00 -0.45593999997E+02  0.45594000000E+02  0.51100000000E-03 0.  1.
    9900012    2    1    2    0    0 -0.16941133336E+02 -0.34572245801E+02  0.13073778764E+02  0.50528857491E+02  0.29999992829E+02 0.  0.
        -12    1    1    2    0    0  0.16941133336E+02  0.34572245801E+02 -0.13073778764E+02  0.40659142509E+02  0.00000000000E+00 0.  1.
         11    1    3    3    0    0 -0.27941239306E+01 -0.21002420004E+02  0.11095114076E+01  0.21216498071E+02  0.51100000000E-03 0. -1.
        -11    1    3    3    0    0 -0.67156041941E+01 -0.10762048343E+02 -0.23879138251E+01  0.12908259253E+02  0.51100000000E-03 0.  1.
         12    1    3    3    0    0 -0.74314052113E+01 -0.28077774534E+01  0.14352181181E+02  0.16404100167E+02  0.00000000000E+00 0. -1.
</event>
<event>
 7    1  0.2817603E-011  0.5052886E+02  0.7816164E-02  0.1300439E+00
        -11   -1    0    0    0    0  0.00000000000E+00  0.00000000000E+00  0.45593999997E+02  0.45594000000E+02  0.51100000000E-03 0.  1.
         11   -1    0    0    0    0 -0.00000000000E+00 -0.00000000000E+00 -0.45593999997E+02  0.45594000000E+02  0.51100000000E-03 0. -1.
    9900012    2    1    2    0    0  0.27201209304E+02  0.27307134028E+02 -0.12945290756E+02  0.50528857004E+02  0.29999991351E+02 0.  0.
        -12    1    1    2    0    0 -0.27201209304E+02 -0.27307134028E+02  0.12945290756E+02  0.40659142996E+02  0.00000000000E+00 0.  1.
         11    1    3    3    0    0  0.12821278279E+02  0.22845460475E+02 -0.43171573255E+01  0.26550670211E+02  0.51100000000E-03 0. -1.
        -11    1    3    3    0    0  0.21861160929E+01 -0.47585863622E+01 -0.67988288911E+01  0.85818018091E+01  0.51100000000E-03 0.  1.
         12    1    3    3    0    0  0.12193814932E+02  0.92202599145E+01 -0.18293045391E+01  0.15396384984E+02  0.00000000000E+00 0. -1.
</event>
<event>
 7    1  0.2817603E-011  0.5052883E+02  0.7816164E-02  0.1300439E+00
        -11   -1    0    0    0    0  0.00000000000E+00  0.00000000000E+00  0.45593999997E+02  0.45594000000E+02  0.51100000000E-03 0.  1.
         11   -1    0    0    0    0 -0.00000000000E+00 -0.00000000000E+00 -0.45593999997E+02  0.45594000000E+02  0.51100000000E-03 0. -1.
    9900012    2    1    2    0    0  0.22466039681E+02  0.17249769214E+01 -0.33844789793E+02  0.50528827843E+02  0.29999902713E+02 0.  0.
        -12    1    1    2    0    0 -0.22466039681E+02 -0.17249769214E+01  0.33844789793E+02  0.40659172157E+02  0.00000000000E+00 0.  1.
         11    1    3    3    0    0  0.53251101614E+01  0.42172198438E+01 -0.28867814409E+01  0.73807349763E+01  0.51100000000E-03 0. -1.
        -11    1    3    3    0    0  0.94679019032E+01  0.82432447302E+01 -0.40704185140E+01  0.13196990463E+02  0.51100000000E-03 0.  1.
         12    1    3    3    0    0  0.76730276165E+01 -0.10735487653E+02 -0.26887589838E+02  0.29951102404E+02  0.00000000000E+00 0. -1.
</event>
<event>
 7    1  0.2817603E-011  0.5052886E+02  0.7816164E-02  0.1300439E+00
        -11   -1    0    0    0    0  0.00000000000E+00  0.00000000000E+00  0.45593999997E+02  0.45594000000E+02  0.51100000000E-03 0.  1.
         11   -1    0    0    0    0 -0.00000000000E+00 -0.00000000000E+00 -0.45593999997E+02  0.45594000000E+02  0.51100000000E-03 0. -1.
    9900012    2    1    2    0    0 -0.81949340360E+01 -0.24543426625E+02 -0.31362857090E+02  0.50528861554E+02  0.30000005179E+02 0.  0.
        -12    1    1    2    0    0  0.81949340360E+01  0.24543426625E+02  0.31362857090E+02  0.40659138446E+02  0.00000000000E+00 0.  1.
         11    1    3    3    0    0  0.32331245143E+01 -0.23318737601E+01 -0.41971932773E+01  0.57885370367E+01  0.51100000000E-03 0. -1.
        -11    1    3    3    0    0 -0.16643911037E+02 -0.17942356911E+02 -0.28810745673E+02  0.37802209097E+02  0.51100000000E-03 0.  1.
         12    1    3    3    0    0  0.52158524865E+01 -0.42691959535E+01  0.16450818609E+01  0.69381154199E+01  0.00000000000E+00 0. -1.
</event>
<event>
 7    1  0.2817603E-011  0.5052886E+02  0.7816164E-02  0.1300439E+00
        -11   -1    0    0    0    0  0.00000000000E+00  0.00000000000E+00  0.45593999997E+02  0.45594000000E+02  0.51100000000E-03 0.  1.
         11   -1    0    0    0    0 -0.00000000000E+00 -0.00000000000E+00 -0.45593999997E+02  0.45594000000E+02  0.51100000000E-03 0. -1.
    9900012    2    1    2    0    0  0.33030734890E+01  0.36391389124E+02 -0.17830375929E+02  0.50528858314E+02  0.29999995330E+02 0.  0.
        -12    1    1    2    0    0 -0.33030734890E+01 -0.36391389124E+02  0.17830375929E+02  0.40659141686E+02  0.00000000000E+00 0.  1.
         11    1    3    3    0    0 -0.17011684490E+00 -0.79397260122E+00 -0.22733633628E+00  0.84321664079E+00  0.51100000000E-03 0. -1.
        -11    1    3    3    0    0  0.13865963339E+02  0.20464592880E+02 -0.16977447698E+02  0.29988301580E+02  0.51100000000E-03 0.  1.
        -12    1    3    3    0    0 -0.10392773005E+02  0.16720768846E+02 -0.62559189478E+00  0.19697340093E+02  0.00000000000E+00 0.  1.
</event>
<event>
 7    1  0.2817603E-011  0.5052885E+02  0.7816164E-02  0.1300439E+00
        -11   -1    0    0    0    0  0.00000000000E+00  0.00000000000E+00  0.45593999997E+02  0.45594000000E+02  0.51100000000E-03 0.  1.
         11   -1    0    0    0    0 -0.00000000000E+00 -0.00000000000E+00 -0.45593999997E+02  0.45594000000E+02  0.51100000000E-03 0. -1.
    9900012    2    1    2    0    0 -0.33643452300E+02  0.22643240173E+02  0.29271276422E+01  0.50528852389E+02  0.29999977321E+02 0.  0.
        -12    1    1    2    0    0  0.33643452300E+02 -0.22643240173E+02 -0.29271276422E+01  0.40659147611E+02  0.00000000000E+00 0.  1.
         11    1    3    3    0    0 -0.13129005063E+02  0.53697745451E+01  0.23743195859E+01  0.14382025113E+02  0.51100000000E-03 0. -1.
        -11    1    3    3    0    0 -0.17804791475E+02 -0.63502712398E+00 -0.16903725746E+01  0.17896123005E+02  0.51100000000E-03 0.  1.
        -12    1    3    3    0    0 -0.27096557622E+01  0.17908492752E+02  0.22431806309E+01  0.18250704270E+02  0.00000000000E+00 0.  1.
</event>
<event>
 7    1  0.2817603E-011  0.5052886E+02  0.7816164E-02  0.1300439E+00
        -11   -1    0    0    0    0  0.00000000000E+00  0.00000000000E+00  0.45593999997E+02  0.45594000000E+02  0.51100000000E-03 0.  1.
         11   -1    0    0    0    0 -0.00000000000E+00 -0.00000000000E+00 -0.45593999997E+02  0.45594000000E+02  0.51100000000E-03 0. -1.
    9900012    2    1    2    0    0 -0.10964520578E+02  0.37992699978E+01 -0.38968071893E+02  0.50528858456E+02  0.29999995763E+02 0.  0.
        -12    1    1    2    0    0  0.10964520578E+02 -0.37992699978E+01  0.38968071893E+02  0.40659141544E+02  0.00000000000E+00 0.  1.
         11    1    3    3    0    0 -0.78040298048E+01  0.80334917601E+00 -0.19505249445E+02  0.21023867562E+02  0.51100000000E-03 0. -1.
        -11    1    3    3    0    0 -0.11475702773E+02  0.62611206958E+01 -0.13321705952E+02  0.18664437742E+02  0.51100000000E-03 0.  1.
        -12    1    3    3    0    0  0.83152119997E+01 -0.32651998740E+01 -0.61411164960E+01  0.10840553152E+02  0.00000000000E+00 0.  1.
</event>
<event>
 7    1  0.2817603E-011  0.5052888E+02  0.7816164E-02  0.1300439E+00
        -11   -1    0    0    0    0  0.00000000000E+00  0.00000000000E+00  0.45593999997E+02  0.45594000000E+02  0.51100000000E-03 0. -1.
         11   -1    0    0    0    0 -0.00000000000E+00 -0.00000000000E+00 -0.45593999997E+02  0.45594000000E+02  0.51100000000E-03 0.  1.
    9900012    2    1    2    0    0 -0.27277523714E+02 -0.29409560789E+02  0.66466778458E+01  0.50528881808E+02  0.30000066745E+02 0.  0.
        -12    1    1    2    0    0  0.27277523714E+02  0.29409560789E+02 -0.66466778458E+01  0.40659118192E+02  0.00000000000E+00 0.  1.
         11    1    3    3    0    0 -0.12011502818E+02 -0.62629897466E+01 -0.11743990295E+01  0.13597075195E+02  0.51100000000E-03 0. -1.
        -11    1    3    3    0    0 -0.50154618280E+01  0.18091555981E+01 -0.47748652418E+01  0.71573207043E+01  0.51100000000E-03 0.  1.
         12    1    3    3    0    0 -0.10250559068E+02 -0.24955726640E+02  0.12595942117E+02  0.29774485909E+02  0.00000000000E+00 0. -1.
</event>
<event>
 7    1  0.2817603E-011  0.5052885E+02  0.7816164E-02  0.1300439E+00
        -11   -1    0    0    0    0  0.00000000000E+00  0.00000000000E+00  0.45593999997E+02  0.45594000000E+02  0.51100000000E-03 0. -1.
         11   -1    0    0    0    0 -0.00000000000E+00 -0.00000000000E+00 -0.45593999997E+02  0.45594000000E+02  0.51100000000E-03 0.  1.
    9900012    2    1    2    0    0 -0.68511875611E+01  0.30134768294E+02  0.26422020695E+02  0.50528853320E+02  0.29999980152E+02 0.  0.
        -12    1    1    2    0    0  0.68511875611E+01 -0.30134768294E+02 -0.26422020695E+02  0.40659146680E+02  0.00000000000E+00 0.  1.
         11    1    3    3    0    0  0.11422717281E+01  0.55990053483E+01  0.46856107738E+01  0.73897627957E+01  0.51100000000E-03 0. -1.
        -11    1    3    3    0    0 -0.10803666787E+01  0.20225084120E+02  0.35377931564E+00  0.20257008167E+02  0.51100000000E-03 0.  1.
        -12    1    3    3    0    0 -0.69130926104E+01  0.43106788253E+01  0.21382630606E+02  0.22882082357E+02  0.00000000000E+00 0.  1.
</event>
<event>
 7    1  0.2817603E-011  0.5052886E+02  0.7816164E-02  0.1300439E+00
        -11   -1    0    0    0    0  0.00000000000E+00  0.00000000000E+00  0.45593999997E+02  0.45594000000E+02  0.51100000000E-03 0.  1.
         11   -1    0    0    0    0 -0.00000000000E+00 -0.00000000000E+00 -0.45593999997E+02  0.45594000000E+02  0.51100000000E-03 0. -1.
    9900012    2    1    2    0    0 -0.18753272176E+02  0.16306945346E+02 -0.32180174518E+02  0.50528864300E+02  0.30000013527E+02 0.  0.
        -12    1    1    2    0    0  0.18753272176E+02 -0.16306945346E+02  0.32180174518E+02  0.40659135700E+02  0.00000000000E+00 0.  1.
         11    1    3    3    0    0 -0.11701541259E+00  0.40793693804E+01 -0.69257890273E+01  0.80387499688E+01  0.51100000000E-03 0. -1.
        -11    1    3    3    0    0 -0.28451986121E+01  0.16951889300E+02 -0.92679822838E+01  0.19528369155E+02  0.51100000000E-03 0.  1.
         12    1    3    3    0    0 -0.15791058151E+02 -0.47243133348E+01 -0.15986403207E+02  0.22961745176E+02  0.00000000000E+00 0. -1.
</event>
<event>
 7    1  0.2817603E-011  0.5052887E+02  0.7816164E-02  0.1300439E+00
        -11   -1    0    0    0    0  0.00000000000E+00  0.00000000000E+00  0.45593999997E+02  0.45594000000E+02  0.51100000000E-03 0.  1.
         11   -1    0    0    0    0 -0.00000000000E+00 -0.00000000000E+00 -0.45593999997E+02  0.45594000000E+02  0.51100000000E-03 0. -1.
    9900012    2    1    2    0    0 -0.36975022880E+01  0.18773842975E+02 -0.35875291508E+02  0.50528865184E+02  0.30000016213E+02 0.  0.
        -12    1    1    2    0    0  0.36975022880E+01 -0.18773842975E+02  0.35875291508E+02  0.40659134816E+02  0.00000000000E+00 0.  1.
         11    1    3    3    0    0 -0.56152001880E+01  0.75220336787E+01 -0.15252749785E+02  0.17909713568E+02  0.51100000000E-03 0. -1.
        -11    1    3    3    0    0 -0.11209819730E+01  0.22755077624E+01 -0.22762871055E+02  0.22903773381E+02  0.51100000000E-03 0.  1.
        -12    1    3    3    0    0  0.30386798730E+01  0.89763015340E+01  0.21403293323E+01  0.97153782351E+01  0.00000000000E+00 0.  1.
</event>
<event>
 7    1  0.2817603E-011  0.5052885E+02  0.7816164E-02  0.1300439E+00
        -11   -1    0    0    0    0  0.00000000000E+00  0.00000000000E+00  0.45593999997E+02  0.45594000000E+02  0.51100000000E-03 0.  1.
         11   -1    0    0    0    0 -0.00000000000E+00 -0.00000000000E+00 -0.45593999997E+02  0.45594000000E+02  0.51100000000E-03 0. -1.
    9900012    2    1    2    0    0  0.34801717260E+02  0.13029723197E+02  0.16499495800E+02  0.50528848847E+02  0.29999966554E+02 0.  0.
        -12    1    1    2    0    0 -0.34801717260E+02 -0.13029723197E+02 -0.16499495800E+02  0.40659151153E+02  0.00000000000E+00 0.  1.
         11    1    3    3    0    0  0.50755387901E+01 -0.27818161145E+01 -0.43850448445E+01  0.72614195206E+01  0.51100000000E-03 0. -1.
        -11    1    3    3    0    0  0.81087847564E+01  0.11441734596E+02  0.18703843216E+01  0.14147933367E+02  0.51100000000E-03 0.  1.
        -12    1    3    3    0    0  0.21617393714E+02  0.43698047161E+01  0.19014156323E+02  0.29119495959E+02  0.00000000000E+00 0.  1.
</event>
<event>
 7    1  0.2817603E-011  0.5052887E+02  0.7816164E-02  0.1300439E+00
        -11   -1    0    0    0    0  0.00000000000E+00  0.00000000000E+00  0.45593999997E+02  0.45594000000E+02  0.51100000000E-03 0. -1.
         11   -1    0    0    0    0 -0.00000000000E+00 -0.00000000000E+00 -0.45593999997E+02  0.45594000000E+02  0.51100000000E-03 0.  1.
    9900012    2    1    2    0    0  0.35768886176E+02 -0.13451455774E+02 -0.13885610551E+02  0.50528867433E+02  0.30000023049E+02 0.  0.
        -12    1    1    2    0    0 -0.35768886176E+02  0.13451455774E+02  0.13885610551E+02  0.40659132567E+02  0.00000000000E+00 0.  1.
         11    1    3    3    0    0  0.87476852451E+01 -0.75958601112E+01 -0.13856960007E+02  0.18061960826E+02  0.51100000000E-03 0. -1.
        -11    1    3    3    0    0  0.93290231893E+01 -0.15113779969E+01 -0.81890380781E+01  0.12505010277E+02  0.51100000000E-03 0.  1.
         12    1    3    3    0    0  0.17692177742E+02 -0.43442176658E+01  0.81603875341E+01  0.19961896330E+02  0.00000000000E+00 0. -1.
</event>
<event>
 7    1  0.2817603E-011  0.5052885E+02  0.7816164E-02  0.1300439E+00
        -11   -1    0    0    0    0  0.00000000000E+00  0.00000000000E+00  0.45593999997E+02  0.45594000000E+02  0.51100000000E-03 0.  1.
         11   -1    0    0    0    0 -0.00000000000E+00 -0.00000000000E+00 -0.45593999997E+02  0.45594000000E+02  0.51100000000E-03 0. -1.
    9900012    2    1    2    0    0 -0.21242842385E+02 -0.85406225296E+01 -0.33600084412E+02  0.50528852710E+02  0.29999978298E+02 0.  0.
        -12    1    1    2    0    0  0.21242842385E+02  0.85406225296E+01  0.33600084412E+02  0.40659147290E+02  0.00000000000E+00 0.  1.
         11    1    3    3    0    0 -0.75826651882E+01 -0.12616421606E+02 -0.33381033516E+01  0.15093503230E+02  0.51100000000E-03 0. -1.
        -11    1    3    3    0    0 -0.24411672461E+01 -0.31569120231E+00  0.39774954619E+00  0.24934240356E+01  0.51100000000E-03 0.  1.
        -12    1    3    3    0    0 -0.11219009951E+02  0.43914902785E+01 -0.30659730607E+02  0.32941925445E+02  0.00000000000E+00 0.  1.
</event>
<event>
 7    1  0.2817603E-011  0.5052886E+02  0.7816164E-02  0.1300439E+00
        -11   -1    0    0    0    0  0.00000000000E+00  0.00000000000E+00  0.45593999997E+02  0.45594000000E+02  0.51100000000E-03 0.  1.
         11   -1    0    0    0    0 -0.00000000000E+00 -0.00000000000E+00 -0.45593999997E+02  0.45594000000E+02  0.51100000000E-03 0. -1.
    9900012    2    1    2    0    0  0.20467702322E+02  0.79186668576E+01 -0.34227675970E+02  0.50528856803E+02  0.29999990740E+02 0.  0.
        -12    1    1    2    0    0 -0.20467702322E+02 -0.79186668576E+01  0.34227675970E+02  0.40659143197E+02  0.00000000000E+00 0.  1.
         11    1    3    3    0    0 -0.10530085323E+01  0.17271037305E+00  0.12828618592E+01  0.16686493499E+01  0.51100000000E-03 0. -1.
        -11    1    3    3    0    0 -0.36778624207E+01 -0.42442906456E+01 -0.68545013021E+01  0.88614255868E+01  0.51100000000E-03 0.  1.
         12    1    3    3    0    0  0.25198573275E+02  0.11990247130E+02 -0.28656036527E+02  0.39998781867E+02  0.00000000000E+00 0. -1.
</event>
<event>
 7    1  0.2817603E-011  0.5052886E+02  0.7816164E-02  0.1300439E+00
        -11   -1    0    0    0    0  0.00000000000E+00  0.00000000000E+00  0.45593999997E+02  0.45594000000E+02  0.51100000000E-03 0.  1.
         11   -1    0    0    0    0 -0.00000000000E+00 -0.00000000000E+00 -0.45593999997E+02  0.45594000000E+02  0.51100000000E-03 0. -1.
    9900012    2    1    2    0    0  0.24125610300E+02 -0.21274384045E+02 -0.24870091763E+02  0.50528856463E+02  0.29999989704E+02 0.  0.
        -12    1    1    2    0    0 -0.24125610300E+02  0.21274384045E+02  0.24870091763E+02  0.40659143537E+02  0.00000000000E+00 0.  1.
         11    1    3    3    0    0  0.18393499957E+02 -0.18323834718E+02 -0.58386291503E+01  0.26611526640E+02  0.51100000000E-03 0. -1.
        -11    1    3    3    0    0  0.78499482029E+01  0.15635380870E+01 -0.61176428118E+01  0.10074318437E+02  0.51100000000E-03 0.  1.
        -12    1    3    3    0    0 -0.21178378599E+01 -0.45140874135E+01 -0.12913819801E+02  0.13843011386E+02  0.00000000000E+00 0.  1.
</event>
<event>
 7    1  0.2817603E-011  0.5052878E+02  0.7816164E-02  0.1300439E+00
        -11   -1    0    0    0    0  0.00000000000E+00  0.00000000000E+00  0.45593999997E+02  0.45594000000E+02  0.51100000000E-03 0. -1.
         11   -1    0    0    0    0 -0.00000000000E+00 -0.00000000000E+00 -0.45593999997E+02  0.45594000000E+02  0.51100000000E-03 0.  1.
    9900012    2    1    2    0    0 -0.13929052535E+01  0.39843425349E+02 -0.79833058294E+01  0.50528783326E+02  0.29999767397E+02 0.  0.
        -12    1    1    2    0    0  0.13929052535E+01 -0.39843425349E+02  0.79833058294E+01  0.40659216674E+02  0.00000000000E+00 0.  1.
         11    1    3    3    0    0 -0.65704424274E+00  0.24814170049E+02  0.33855904307E+00  0.24825176028E+02  0.51100000000E-03 0. -1.
        -11    1    3    3    0    0  0.31850003925E+01  0.14087787008E+02  0.20382398485E+01  0.14586445497E+02  0.51100000000E-03 0.  1.
        -12    1    3    3    0    0 -0.39208614033E+01  0.94146829198E+00 -0.10360104721E+02  0.11117161801E+02  0.00000000000E+00 0.  1.
</event>
<event>
 7    1  0.2817603E-011  0.5052886E+02  0.7816164E-02  0.1300439E+00
        -11   -1    0    0    0    0  0.00000000000E+00  0.00000000000E+00  0.45593999997E+02  0.45594000000E+02  0.51100000000E-03 0. -1.
         11   -1    0    0    0    0 -0.00000000000E+00 -0.00000000000E+00 -0.45593999997E+02  0.45594000000E+02  0.51100000000E-03 0.  1.
    9900012    2    1    2    0    0  0.36114248511E+02  0.16447371047E+02  0.88549639155E+01  0.50528863932E+02  0.30000012407E+02 0.  0.
        -12    1    1    2    0    0 -0.36114248511E+02 -0.16447371047E+02 -0.88549639155E+01  0.40659136068E+02  0.00000000000E+00 0.  1.
         11    1    3    3    0    0  0.17794261561E+01  0.78154811913E+01 -0.39787375762E+00  0.80253602713E+01  0.51100000000E-03 0.  1.
        -11    1    3    3    0    0  0.10591489781E+02  0.13263899505E+02  0.12359324312E+01  0.17018760681E+02  0.51100000000E-03 0. -1.
        -12    1    3    3    0    0  0.23743332574E+02 -0.46320096492E+01  0.80169052419E+01  0.25484742980E+02  0.00000000000E+00 0.  1.
</event>
<event>
 7    1  0.2817603E-011  0.5052887E+02  0.7816164E-02  0.1300439E+00
        -11   -1    0    0    0    0  0.00000000000E+00  0.00000000000E+00  0.45593999997E+02  0.45594000000E+02  0.51100000000E-03 0. -1.
         11   -1    0    0    0    0 -0.00000000000E+00 -0.00000000000E+00 -0.45593999997E+02  0.45594000000E+02  0.51100000000E-03 0.  1.
    9900012    2    1    2    0    0  0.23129414876E+02  0.46867158191E+01  0.33109363262E+02  0.50528867283E+02  0.30000022593E+02 0.  0.
        -12    1    1    2    0    0 -0.23129414876E+02 -0.46867158191E+01 -0.33109363262E+02  0.40659132717E+02  0.00000000000E+00 0.  1.
         11    1    3    3    0    0  0.18455431869E+01 -0.60519292347E+00  0.49343047063E+01  0.53027965570E+01  0.51100000000E-03 0. -1.
        -11    1    3    3    0    0  0.19632832081E+02  0.89074137177E+00  0.33213044503E+01  0.19931697851E+02  0.51100000000E-03 0.  1.
        -12    1    3    3    0    0  0.16510396084E+01  0.44011673708E+01  0.24853754106E+02  0.25294372875E+02  0.00000000000E+00 0.  1.
</event>
<event>
 7    1  0.2817603E-011  0.5052887E+02  0.7816164E-02  0.1300439E+00
        -11   -1    0    0    0    0  0.00000000000E+00  0.00000000000E+00  0.45593999997E+02  0.45594000000E+02  0.51100000000E-03 0. -1.
         11   -1    0    0    0    0 -0.00000000000E+00 -0.00000000000E+00 -0.45593999997E+02  0.45594000000E+02  0.51100000000E-03 0.  1.
    9900012    2    1    2    0    0 -0.31896073868E+01 -0.12082931574E+02  0.38691003869E+02  0.50528872967E+02  0.30000039869E+02 0.  0.
        -12    1    1    2    0    0  0.31896073868E+01  0.12082931574E+02 -0.38691003869E+02  0.40659127033E+02  0.00000000000E+00 0.  1.
         11    1    3    3    0    0 -0.42043388750E+01  0.10603906810E+01  0.11362250349E+02  0.12161481284E+02  0.51100000000E-03 0. -1.
        -11    1    3    3    0    0 -0.75913814905E+01  0.98703454770E+00  0.16672930139E+01  0.78347416286E+01  0.51100000000E-03 0.  1.
         12    1    3    3    0    0  0.86061129786E+01 -0.14130356803E+02  0.25661460506E+02  0.30532650054E+02  0.00000000000E+00 0. -1.
</event>
<event>
 7    1  0.2817603E-011  0.5052883E+02  0.7816164E-02  0.1300439E+00
        -11   -1    0    0    0    0  0.00000000000E+00  0.00000000000E+00  0.45593999997E+02  0.45594000000E+02  0.51100000000E-03 0.  1.
         11   -1    0    0    0    0 -0.00000000000E+00 -0.00000000000E+00 -0.45593999997E+02  0.45594000000E+02  0.51100000000E-03 0. -1.
    9900012    2    1    2    0    0 -0.33281870517E+02 -0.36413196688E-01 -0.23355589513E+02  0.50528833843E+02  0.29999920949E+02 0.  0.
        -12    1    1    2    0    0  0.33281870517E+02  0.36413196688E-01  0.23355589513E+02  0.40659166157E+02  0.00000000000E+00 0.  1.
         11    1    3    3    0    0 -0.16883782876E+02 -0.28424134019E+01 -0.10142780166E+02  0.19900186630E+02  0.51100000000E-03 0. -1.
        -11    1    3    3    0    0 -0.10874380417E+02 -0.86179937532E+01 -0.11090828545E+02  0.17763120330E+02  0.51100000000E-03 0.  1.
         12    1    3    3    0    0 -0.55237072249E+01  0.11423993958E+02 -0.21219808026E+01  0.12865526884E+02  0.00000000000E+00 0. -1.
</event>
<event>
 7    1  0.2817603E-011  0.5052886E+02  0.7816164E-02  0.1300439E+00
        -11   -1    0    0    0    0  0.00000000000E+00  0.00000000000E+00  0.45593999997E+02  0.45594000000E+02  0.51100000000E-03 0.  1.
         11   -1    0    0    0    0 -0.00000000000E+00 -0.00000000000E+00 -0.45593999997E+02  0.45594000000E+02  0.51100000000E-03 0. -1.
    9900012    2    1    2    0    0  0.82663013878E+00  0.31091170815E+01 -0.40531665546E+02  0.50528857875E+02  0.29999993997E+02 0.  0.
        -12    1    1    2    0    0 -0.82663013878E+00 -0.31091170815E+01  0.40531665546E+02  0.40659142125E+02  0.00000000000E+00 0.  1.
         11    1    3    3    0    0  0.28754967587E+01 -0.67808696200E+01 -0.20508424685E+01  0.76455627330E+01  0.51100000000E-03 0. -1.
        -11    1    3    3    0    0 -0.82399668880E-01 -0.10071857211E+00  0.15613436831E+01  0.15667572544E+01  0.51100000000E-03 0.  1.
         12    1    3    3    0    0 -0.19664669510E+01  0.99907052736E+01 -0.40042166761E+02  0.41316537888E+02  0.00000000000E+00 0. -1.
</event>
<event>
 7    1  0.2817603E-011  0.5052886E+02  0.7816164E-02  0.1300439E+00
        -11   -1    0    0    0    0  0.00000000000E+00  0.00000000000E+00  0.45593999997E+02  0.45594000000E+02  0.51100000000E-03 0.  1.
         11   -1    0    0    0    0 -0.00000000000E+00 -0.00000000000E+00 -0.45593999997E+02  0.45594000000E+02  0.51100000000E-03 0. -1.
    9900012    2    1    2    0    0  0.34277769843E+02  0.17380577968E+02 -0.13270854622E+02  0.50528861073E+02  0.30000003717E+02 0.  0.
        -12    1    1    2    0    0 -0.34277769843E+02 -0.17380577968E+02  0.13270854622E+02  0.40659138927E+02  0.00000000000E+00 0.  1.
         11    1    3    3    0    0  0.17052525772E+02  0.51788001209E+01 -0.12653350255E+02  0.21856712443E+02  0.51100000000E-03 0. -1.
        -11    1    3    3    0    0  0.12193353854E+02  0.23250130017E-02 -0.69499973376E+01  0.14034968716E+02  0.51100000000E-03 0.  1.
         12    1    3    3    0    0  0.50318902170E+01  0.12199452834E+02  0.63324929702E+01  0.14637179914E+02  0.00000000000E+00 0. -1.
</event>
<event>
 7    1  0.2817603E-011  0.5052886E+02  0.7816164E-02  0.1300439E+00
        -11   -1    0    0    0    0  0.00000000000E+00  0.00000000000E+00  0.45593999997E+02  0.45594000000E+02  0.51100000000E-03 0.  1.
         11   -1    0    0    0    0 -0.00000000000E+00 -0.00000000000E+00 -0.45593999997E+02  0.45594000000E+02  0.51100000000E-03 0. -1.
    9900012    2    1    2    0    0 -0.23470321337E+02 -0.26930400011E+01 -0.33091643774E+02  0.50528864056E+02  0.30000012783E+02 0.  0.
        -12    1    1    2    0    0  0.23470321337E+02  0.26930400011E+01  0.33091643774E+02  0.40659135944E+02  0.00000000000E+00 0.  1.
         11    1    3    3    0    0 -0.13617094602E+02 -0.32137993820E+01 -0.21665299935E+02  0.25790288742E+02  0.51100000000E-03 0. -1.
        -11    1    3    3    0    0 -0.11087542580E+02 -0.35069894139E+01 -0.15162062513E+02  0.19108132172E+02  0.51100000000E-03 0.  1.
        -12    1    3    3    0    0  0.12343158445E+01  0.40277487949E+01  0.37357186740E+01  0.56304431415E+01  0.00000000000E+00 0.  1.
</event>
<event>
 7    1  0.2817603E-011  0.5052886E+02  0.7816164E-02  0.1300439E+00
        -11   -1    0    0    0    0  0.00000000000E+00  0.00000000000E+00  0.45593999997E+02  0.45594000000E+02  0.51100000000E-03 0. -1.
         11   -1    0    0    0    0 -0.00000000000E+00 -0.00000000000E+00 -0.45593999997E+02  0.45594000000E+02  0.51100000000E-03 0.  1.
    9900012    2    1    2    0    0  0.36157837768E+01 -0.35999059594E+02  0.18551535552E+02  0.50528860125E+02  0.30000000837E+02 0.  0.
        -12    1    1    2    0    0 -0.36157837768E+01  0.35999059594E+02 -0.18551535552E+02  0.40659139875E+02  0.00000000000E+00 0.  1.
         11    1    3    3    0    0  0.76503571728E+01 -0.14243346613E+02  0.13964678929E+02  0.21363827968E+02  0.51100000000E-03 0. -1.
        -11    1    3    3    0    0  0.37088736604E+01 -0.76405906123E+00  0.56087364892E+01  0.67673817200E+01  0.51100000000E-03 0.  1.
        -12    1    3    3    0    0 -0.77434470564E+01 -0.20991653920E+02 -0.10218798661E+01  0.22397650437E+02  0.00000000000E+00 0.  1.
</event>
<event>
 7    1  0.2817603E-011  0.5052886E+02  0.7816164E-02  0.1300439E+00
        -11   -1    0    0    0    0  0.00000000000E+00  0.00000000000E+00  0.45593999997E+02  0.45594000000E+02  0.51100000000E-03 0.  1.
         11   -1    0    0    0    0 -0.00000000000E+00 -0.00000000000E+00 -0.45593999997E+02  0.45594000000E+02  0.51100000000E-03 0. -1.
    9900012    2    1    2    0    0 -0.30112984608E+02  0.19933292765E+02 -0.18682544279E+02  0.50528862489E+02  0.30000008021E+02 0.  0.
        -12    1    1    2    0    0  0.30112984608E+02 -0.19933292765E+02  0.18682544279E+02  0.40659137511E+02  0.00000000000E+00 0.  1.
         11    1    3    3    0    0 -0.37411774774E+01 -0.19163165087E+01 -0.57424860591E+00  0.42424567884E+01  0.51100000000E-03 0. -1.
        -11    1    3    3    0    0 -0.22875823698E+02  0.10611234865E+02 -0.64266797112E+00  0.25225277751E+02  0.51100000000E-03 0.  1.
         12    1    3    3    0    0 -0.34959834325E+01  0.11238374408E+02 -0.17465627702E+02  0.21061127950E+02  0.00000000000E+00 0. -1.
</event>
<event>
 7    1  0.2817603E-011  0.5052885E+02  0.7816164E-02  0.1300439E+00
        -11   -1    0    0    0    0  0.00000000000E+00  0.00000000000E+00  0.45593999997E+02  0.45594000000E+02  0.51100000000E-03 0.  1.
         11   -1    0    0    0    0 -0.00000000000E+00 -0.00000000000E+00 -0.45593999997E+02  0.45594000000E+02  0.51100000000E-03 0. -1.
    9900012    2    1    2    0    0  0.54247378517E+01 -0.11235801288E+02 -0.38697485321E+02  0.50528851196E+02  0.29999973695E+02 0.  0.
        -12    1    1    2    0    0 -0.54247378517E+01  0.11235801288E+02  0.38697485321E+02  0.40659148804E+02  0.00000000000E+00 0.  1.
         11    1    3    3    0    0  0.56728480394E+01 -0.96116596696E+01 -0.16324178930E+02  0.19774833108E+02  0.51100000000E-03 0. -1.
        -11    1    3    3    0    0 -0.10126045081E+02 -0.35085437906E+01 -0.88316142027E+01  0.13886831107E+02  0.51100000000E-03 0.  1.
         12    1    3    3    0    0  0.98779348934E+01  0.18844021723E+01 -0.13541692188E+02  0.16867186980E+02  0.00000000000E+00 0. -1.
</event>
<event>
 7    1  0.2817603E-011  0.5052886E+02  0.7816164E-02  0.1300439E+00
        -11   -1    0    0    0    0  0.00000000000E+00  0.00000000000E+00  0.45593999997E+02  0.45594000000E+02  0.51100000000E-03 0.  1.
         11   -1    0    0    0    0 -0.00000000000E+00 -0.00000000000E+00 -0.45593999997E+02  0.45594000000E+02  0.51100000000E-03 0. -1.
    9900012    2    1    2    0    0 -0.83028072229E+01  0.37458588149E+02 -0.13456707052E+02  0.50528863283E+02  0.30000010436E+02 0.  0.
        -12    1    1    2    0    0  0.83028072229E+01 -0.37458588149E+02  0.13456707052E+02  0.40659136717E+02  0.00000000000E+00 0.  1.
         11    1    3    3    0    0  0.60130735801E+01  0.10075198326E+02 -0.77562675947E+00  0.11758753008E+02  0.51100000000E-03 0. -1.
        -11    1    3    3    0    0 -0.27247622307E+01 -0.22792013577E+01 -0.47840924784E+01  0.59587439235E+01  0.51100000000E-03 0.  1.
         12    1    3    3    0    0 -0.11591118572E+02  0.29662591181E+02 -0.78969878137E+01  0.32811366351E+02  0.00000000000E+00 0. -1.
</event>
<event>
 7    1  0.2817603E-011  0.5052885E+02  0.7816164E-02  0.1300439E+00
        -11   -1    0    0    0    0  0.00000000000E+00  0.00000000000E+00  0.45593999997E+02  0.45594000000E+02  0.51100000000E-03 0. -1.
         11   -1    0    0    0    0 -0.00000000000E+00 -0.00000000000E+00 -0.45593999997E+02  0.45594000000E+02  0.51100000000E-03 0.  1.
    9900012    2    1    2    0    0 -0.17327792173E+02 -0.60827465418E+01  0.36275532990E+02  0.50528849975E+02  0.29999969983E+02 0.  0.
        -12    1    1    2    0    0  0.17327792173E+02  0.60827465418E+01 -0.36275532990E+02  0.40659150025E+02  0.00000000000E+00 0.  1.
         11    1    3    3    0    0 -0.26234597508E+01  0.48084271796E+01 -0.17256950912E+01  0.57429554077E+01  0.51100000000E-03 0. -1.
        -11    1    3    3    0    0 -0.41133209932E+01 -0.16850818595E+00  0.23500758581E+00  0.41234734665E+01  0.51100000000E-03 0.  1.
         12    1    3    3    0    0 -0.10591011429E+02 -0.10722665535E+02  0.37766220495E+02  0.40662421101E+02  0.00000000000E+00 0. -1.
</event>
<event>
 7    1  0.2817603E-011  0.5052886E+02  0.7816164E-02  0.1300439E+00
        -11   -1    0    0    0    0  0.00000000000E+00  0.00000000000E+00  0.45593999997E+02  0.45594000000E+02  0.51100000000E-03 0.  1.
         11   -1    0    0    0    0 -0.00000000000E+00 -0.00000000000E+00 -0.45593999997E+02  0.45594000000E+02  0.51100000000E-03 0. -1.
    9900012    2    1    2    0    0 -0.34639013700E+02 -0.41824262112E+01 -0.20876098283E+02  0.50528862790E+02  0.30000008938E+02 0.  0.
        -12    1    1    2    0    0  0.34639013700E+02  0.41824262112E+01  0.20876098283E+02  0.40659137210E+02  0.00000000000E+00 0.  1.
         11    1    3    3    0    0 -0.16103823598E+02 -0.14040177601E+02 -0.11401888200E+02  0.24216993544E+02  0.51100000000E-03 0.  1.
        -11    1    3    3    0    0 -0.94803625748E+01 -0.18221245889E+01 -0.49934785663E+01  0.10868865673E+02  0.51100000000E-03 0. -1.
         12    1    3    3    0    0 -0.90548275272E+01  0.11679875979E+02 -0.44807315166E+01  0.15443003573E+02  0.00000000000E+00 0. -1.
</event>
<event>
 7    1  0.2817603E-011  0.5052885E+02  0.7816164E-02  0.1300439E+00
        -11   -1    0    0    0    0  0.00000000000E+00  0.00000000000E+00  0.45593999997E+02  0.45594000000E+02  0.51100000000E-03 0.  1.
         11   -1    0    0    0    0 -0.00000000000E+00 -0.00000000000E+00 -0.45593999997E+02  0.45594000000E+02  0.51100000000E-03 0. -1.
    9900012    2    1    2    0    0  0.40537597964E+02  0.17756092140E+01 -0.25916942050E+01  0.50528849546E+02  0.29999968680E+02 0.  0.
        -12    1    1    2    0    0 -0.40537597964E+02 -0.17756092140E+01  0.25916942050E+01  0.40659150454E+02  0.00000000000E+00 0.  1.
         11    1    3    3    0    0  0.15349014829E+02  0.41951605946E+01 -0.19407112287E+01  0.16029909200E+02  0.51100000000E-03 0.  1.
        -11    1    3    3    0    0  0.20276159726E+02  0.43150492602E+01 -0.90913283063E+01  0.22636133813E+02  0.51100000000E-03 0. -1.
         12    1    3    3    0    0  0.49124234089E+01 -0.67346006409E+01  0.84403453301E+01  0.11862806533E+02  0.00000000000E+00 0. -1.
</event>
<event>
 7    1  0.2817603E-011  0.5052885E+02  0.7816164E-02  0.1300439E+00
        -11   -1    0    0    0    0  0.00000000000E+00  0.00000000000E+00  0.45593999997E+02  0.45594000000E+02  0.51100000000E-03 0.  1.
         11   -1    0    0    0    0 -0.00000000000E+00 -0.00000000000E+00 -0.45593999997E+02  0.45594000000E+02  0.51100000000E-03 0. -1.
    9900012    2    1    2    0    0 -0.44110533393E+01 -0.35013110455E+02 -0.20193831981E+02  0.50528854099E+02  0.29999982520E+02 0.  0.
        -12    1    1    2    0    0  0.44110533393E+01  0.35013110455E+02  0.20193831981E+02  0.40659145901E+02  0.00000000000E+00 0.  1.
         11    1    3    3    0    0 -0.68466738571E+01 -0.26468124812E+02 -0.94555529297E+01  0.28928291609E+02  0.51100000000E-03 0. -1.
        -11    1    3    3    0    0  0.65658929245E+01 -0.91040896416E+01 -0.13210775081E+01  0.11302240669E+02  0.51100000000E-03 0.  1.
         12    1    3    3    0    0 -0.41302724067E+01  0.55910399796E+00 -0.94172015429E+01  0.10298321821E+02  0.00000000000E+00 0. -1.
</event>
<event>
 7    1  0.2817603E-011  0.5052886E+02  0.7816164E-02  0.1300439E+00
        -11   -1    0    0    0    0  0.00000000000E+00  0.00000000000E+00  0.45593999997E+02  0.45594000000E+02  0.51100000000E-03 0. -1.
         11   -1    0    0    0    0 -0.00000000000E+00 -0.00000000000E+00 -0.45593999997E+02  0.45594000000E+02  0.51100000000E-03 0.  1.
    9900012    2    1    2    0    0 -0.12325428625E+02  0.37310202830E+02  0.10449790968E+02  0.50528861332E+02  0.30000004504E+02 0.  0.
        -12    1    1    2    0    0  0.12325428625E+02 -0.37310202830E+02 -0.10449790968E+02  0.40659138668E+02  0.00000000000E+00 0.  1.
         11    1    3    3    0    0 -0.20113892636E+01  0.15720237294E+01  0.17739500404E+01  0.31086724470E+01  0.51100000000E-03 0. -1.
        -11    1    3    3    0    0 -0.72762914174E+01  0.30440795266E+01 -0.74407195551E+01  0.10843207308E+02  0.51100000000E-03 0.  1.
         12    1    3    3    0    0 -0.30377479443E+01  0.32694099574E+02  0.16116560483E+02  0.36576981577E+02  0.00000000000E+00 0. -1.
</event>
<event>
 7    1  0.2817603E-011  0.5052885E+02  0.7816164E-02  0.1300439E+00
        -11   -1    0    0    0    0  0.00000000000E+00  0.00000000000E+00  0.45593999997E+02  0.45594000000E+02  0.51100000000E-03 0.  1.
         11   -1    0    0    0    0 -0.00000000000E+00 -0.00000000000E+00 -0.45593999997E+02  0.45594000000E+02  0.51100000000E-03 0. -1.
    9900012    2    1    2    0    0  0.23536900569E+02  0.20816956527E+02 -0.25803785546E+02  0.50528847082E+02  0.29999961191E+02 0.  0.
        -12    1    1    2    0    0 -0.23536900569E+02 -0.20816956527E+02  0.25803785546E+02  0.40659152918E+02  0.00000000000E+00 0.  1.
         11    1    3    3    0    0  0.21973964034E+02  0.72639232651E+01 -0.13791875220E+02  0.26941334394E+02  0.51100000000E-03 0. -1.
        -11    1    3    3    0    0  0.68820491387E+01  0.47283094294E+01 -0.84392320803E+00  0.83923606362E+01  0.51100000000E-03 0.  1.
         12    1    3    3    0    0 -0.53191126036E+01  0.88247238331E+01 -0.11167987118E+02  0.15195152052E+02  0.00000000000E+00 0. -1.
</event>
<event>
 7    1  0.2817603E-011  0.5052885E+02  0.7816164E-02  0.1300439E+00
        -11   -1    0    0    0    0  0.00000000000E+00  0.00000000000E+00  0.45593999997E+02  0.45594000000E+02  0.51100000000E-03 0. -1.
         11   -1    0    0    0    0 -0.00000000000E+00 -0.00000000000E+00 -0.45593999997E+02  0.45594000000E+02  0.51100000000E-03 0.  1.
    9900012    2    1    2    0    0  0.24558546678E+02 -0.12884801001E+00  0.32404126239E+02  0.50528853254E+02  0.29999979952E+02 0.  0.
        -12    1    1    2    0    0 -0.24558546678E+02  0.12884801001E+00 -0.32404126239E+02  0.40659146746E+02  0.00000000000E+00 0.  1.
         11    1    3    3    0    0  0.13110906708E+02 -0.88274407114E+00  0.10612199392E+02  0.16890644985E+02  0.51100000000E-03 0. -1.
        -11    1    3    3    0    0  0.29268976401E+01  0.10374349270E+01 -0.47978530859E+01  0.57151024066E+01  0.51100000000E-03 0.  1.
         12    1    3    3    0    0  0.85207423303E+01 -0.28353886585E+00  0.26589779933E+02  0.27923105863E+02  0.00000000000E+00 0. -1.
</event>
<event>
 7    1  0.2817603E-011  0.5052886E+02  0.7816164E-02  0.1300439E+00
        -11   -1    0    0    0    0  0.00000000000E+00  0.00000000000E+00  0.45593999997E+02  0.45594000000E+02  0.51100000000E-03 0. -1.
         11   -1    0    0    0    0 -0.00000000000E+00 -0.00000000000E+00 -0.45593999997E+02  0.45594000000E+02  0.51100000000E-03 0.  1.
    9900012    2    1    2    0    0 -0.18433349222E+02 -0.36191890414E+02  0.18773374410E+01  0.50528859685E+02  0.29999999498E+02 0.  0.
        -12    1    1    2    0    0  0.18433349222E+02  0.36191890414E+02 -0.18773374410E+01  0.40659140315E+02  0.00000000000E+00 0.  1.
         11    1    3    3    0    0 -0.17487161368E+02 -0.35010888022E+02  0.27045156056E+01  0.39228529130E+02  0.51100000000E-03 0. -1.
        -11    1    3    3    0    0  0.10368125296E+01 -0.28080853750E+01 -0.53329313302E+01  0.61155932279E+01  0.51100000000E-03 0.  1.
        -12    1    3    3    0    0 -0.19830003840E+01  0.16270829828E+01  0.45057531656E+01  0.51847373265E+01  0.00000000000E+00 0.  1.
</event>
<event>
 7    1  0.2817603E-011  0.5052887E+02  0.7816164E-02  0.1300439E+00
        -11   -1    0    0    0    0  0.00000000000E+00  0.00000000000E+00  0.45593999997E+02  0.45594000000E+02  0.51100000000E-03 0.  1.
         11   -1    0    0    0    0 -0.00000000000E+00 -0.00000000000E+00 -0.45593999997E+02  0.45594000000E+02  0.51100000000E-03 0. -1.
    9900012    2    1    2    0    0  0.27103669381E+02 -0.12129381133E+02 -0.27774705955E+02  0.50528867306E+02  0.30000022662E+02 0.  0.
        -12    1    1    2    0    0 -0.27103669381E+02  0.12129381133E+02  0.27774705955E+02  0.40659132694E+02  0.00000000000E+00 0.  1.
         11    1    3    3    0    0  0.12338755740E+02  0.58031251341E+01 -0.11555960892E+02  0.17873482786E+02  0.51100000000E-03 0. -1.
        -11    1    3    3    0    0  0.35121528696E+00  0.27362441219E+01 -0.34172233787E+01  0.43917877856E+01  0.51100000000E-03 0.  1.
         12    1    3    3    0    0  0.14413698355E+02 -0.20668750389E+02 -0.12801521684E+02  0.28263596734E+02  0.00000000000E+00 0. -1.
</event>
<event>
 7    1  0.2817603E-011  0.5052885E+02  0.7816164E-02  0.1300439E+00
        -11   -1    0    0    0    0  0.00000000000E+00  0.00000000000E+00  0.45593999997E+02  0.45594000000E+02  0.51100000000E-03 0. -1.
         11   -1    0    0    0    0 -0.00000000000E+00 -0.00000000000E+00 -0.45593999997E+02  0.45594000000E+02  0.51100000000E-03 0.  1.
    9900012    2    1    2    0    0  0.15354671616E+02 -0.33817372423E+02  0.16546468742E+02  0.50528852864E+02  0.29999978766E+02 0.  0.
        -12    1    1    2    0    0 -0.15354671616E+02  0.33817372423E+02 -0.16546468742E+02  0.40659147136E+02  0.00000000000E+00 0.  1.
         11    1    3    3    0    0  0.38389625613E+01 -0.48622585149E+01  0.28916028732E+01  0.68367067255E+01  0.51100000000E-03 0. -1.
        -11    1    3    3    0    0  0.98386213142E+01 -0.36450712366E+01 -0.55563998973E+01  0.11872598442E+02  0.51100000000E-03 0.  1.
        -12    1    3    3    0    0  0.16770877405E+01 -0.25310042671E+02  0.19211265766E+02  0.31819547697E+02  0.00000000000E+00 0.  1.
</event>
<event>
 7    1  0.2817603E-011  0.5052885E+02  0.7816164E-02  0.1300439E+00
        -11   -1    0    0    0    0  0.00000000000E+00  0.00000000000E+00  0.45593999997E+02  0.45594000000E+02  0.51100000000E-03 0.  1.
         11   -1    0    0    0    0 -0.00000000000E+00 -0.00000000000E+00 -0.45593999997E+02  0.45594000000E+02  0.51100000000E-03 0. -1.
    9900012    2    1    2    0    0  0.70208544488E+01 -0.51856967193E+01 -0.39711236660E+02  0.50528853862E+02  0.29999981798E+02 0.  0.
        -12    1    1    2    0    0 -0.70208544488E+01  0.51856967193E+01  0.39711236660E+02  0.40659146138E+02  0.00000000000E+00 0.  1.
         11    1    3    3    0    0  0.62010802659E+01  0.44813409914E+01 -0.14340790216E+01  0.77841117956E+01  0.51100000000E-03 0. -1.
        -11    1    3    3    0    0 -0.16890079462E+01  0.13106779032E+01  0.63962316144E+00  0.22315336560E+01  0.51100000000E-03 0.  1.
         12    1    3    3    0    0  0.25087821291E+01 -0.10977715614E+02 -0.38916780800E+02  0.40513208410E+02  0.00000000000E+00 0. -1.
</event>
<event>
 7    1  0.2817603E-011  0.5052885E+02  0.7816164E-02  0.1300439E+00
        -11   -1    0    0    0    0  0.00000000000E+00  0.00000000000E+00  0.45593999997E+02  0.45594000000E+02  0.51100000000E-03 0. -1.
         11   -1    0    0    0    0 -0.00000000000E+00 -0.00000000000E+00 -0.45593999997E+02  0.45594000000E+02  0.51100000000E-03 0.  1.
    9900012    2    1    2    0    0 -0.22186194542E+02  0.31388306068E+02  0.13255706022E+02  0.50528846932E+02  0.29999960734E+02 0.  0.
        -12    1    1    2    0    0  0.22186194542E+02 -0.31388306068E+02 -0.13255706022E+02  0.40659153068E+02  0.00000000000E+00 0.  1.
         11    1    3    3    0    0 -0.11636759100E+02  0.55119181956E+01  0.32284352600E+01  0.13274720300E+02  0.51100000000E-03 0. -1.
        -11    1    3    3    0    0 -0.16206625877E+02  0.10100489488E+02  0.46704726024E+01  0.19659296142E+02  0.51100000000E-03 0.  1.
        -12    1    3    3    0    0  0.56571904348E+01  0.15775898384E+02  0.53567981599E+01  0.17594830490E+02  0.00000000000E+00 0.  1.
</event>
<event>
 7    1  0.2817603E-011  0.5052886E+02  0.7816164E-02  0.1300439E+00
        -11   -1    0    0    0    0  0.00000000000E+00  0.00000000000E+00  0.45593999997E+02  0.45594000000E+02  0.51100000000E-03 0.  1.
         11   -1    0    0    0    0 -0.00000000000E+00 -0.00000000000E+00 -0.45593999997E+02  0.45594000000E+02  0.51100000000E-03 0. -1.
    9900012    2    1    2    0    0  0.37227506429E+02  0.89934327298E+01 -0.13652724113E+02  0.50528856589E+02  0.29999990088E+02 0.  0.
        -12    1    1    2    0    0 -0.37227506429E+02 -0.89934327298E+01  0.13652724113E+02  0.40659143411E+02  0.00000000000E+00 0.  1.
         11    1    3    3    0    0  0.26240641736E+02  0.71239953460E+01 -0.53914314743E+01  0.27719850685E+02  0.51100000000E-03 0. -1.
        -11    1    3    3    0    0  0.13837901960E+02  0.42486266576E+01 -0.82715817610E+00  0.14499053419E+02  0.51100000000E-03 0.  1.
         12    1    3    3    0    0 -0.28510372667E+01 -0.23791892738E+01 -0.74341344624E+01  0.83099524849E+01  0.00000000000E+00 0. -1.
</event>
<event>
 7    1  0.2817603E-011  0.5052886E+02  0.7816164E-02  0.1300439E+00
        -11   -1    0    0    0    0  0.00000000000E+00  0.00000000000E+00  0.45593999997E+02  0.45594000000E+02  0.51100000000E-03 0.  1.
         11   -1    0    0    0    0 -0.00000000000E+00 -0.00000000000E+00 -0.45593999997E+02  0.45594000000E+02  0.51100000000E-03 0. -1.
    9900012    2    1    2    0    0 -0.36507747148E+02 -0.40911644334E+01 -0.17424481667E+02  0.50528858474E+02  0.29999995818E+02 0.  0.
        -12    1    1    2    0    0  0.36507747148E+02  0.40911644334E+01  0.17424481667E+02  0.40659141526E+02  0.00000000000E+00 0.  1.
         11    1    3    3    0    0 -0.11485230027E+02  0.12114175597E+00 -0.10348205101E+02  0.15459965497E+02  0.51100000000E-03 0. -1.
        -11    1    3    3    0    0 -0.45630147314E+01  0.64978681523E+01  0.46161053526E+01  0.91843248446E+01  0.51100000000E-03 0.  1.
         12    1    3    3    0    0 -0.20459502390E+02 -0.10710174342E+02 -0.11692381919E+02  0.25884568132E+02  0.00000000000E+00 0. -1.
</event>
<event>
 7    1  0.2817603E-011  0.5052886E+02  0.7816164E-02  0.1300439E+00
        -11   -1    0    0    0    0  0.00000000000E+00  0.00000000000E+00  0.45593999997E+02  0.45594000000E+02  0.51100000000E-03 0.  1.
         11   -1    0    0    0    0 -0.00000000000E+00 -0.00000000000E+00 -0.45593999997E+02  0.45594000000E+02  0.51100000000E-03 0. -1.
    9900012    2    1    2    0    0 -0.34983130286E+02  0.82248686650E+01 -0.19018355628E+02  0.50528859331E+02  0.29999998422E+02 0.  0.
        -12    1    1    2    0    0  0.34983130286E+02 -0.82248686650E+01  0.19018355628E+02  0.40659140669E+02  0.00000000000E+00 0.  1.
         11    1    3    3    0    0 -0.17624533980E+02 -0.56783217082E+01 -0.77712214715E+01  0.20081320147E+02  0.51100000000E-03 0. -1.
        -11    1    3    3    0    0  0.53484265026E+00 -0.33007119593E+01 -0.23153045721E+01  0.40671109674E+01  0.51100000000E-03 0.  1.
        -12    1    3    3    0    0 -0.17893438956E+02  0.17203902333E+02 -0.89318295846E+01  0.26380428216E+02  0.00000000000E+00 0.  1.
</event>
<event>
 7    1  0.2817603E-011  0.5052886E+02  0.7816164E-02  0.1300439E+00
        -11   -1    0    0    0    0  0.00000000000E+00  0.00000000000E+00  0.45593999997E+02  0.45594000000E+02  0.51100000000E-03 0.  1.
         11   -1    0    0    0    0 -0.00000000000E+00 -0.00000000000E+00 -0.45593999997E+02  0.45594000000E+02  0.51100000000E-03 0. -1.
    9900012    2    1    2    0    0  0.20052093920E+02 -0.88390922449E+01 -0.34248351708E+02  0.50528860597E+02  0.30000002270E+02 0.  0.
        -12    1    1    2    0    0 -0.20052093920E+02  0.88390922449E+01  0.34248351708E+02  0.40659139403E+02  0.00000000000E+00 0.  1.
         11    1    3    3    0    0  0.68825475899E+01  0.13088484007E+01 -0.57358059107E+01  0.90543920375E+01  0.51100000000E-03 0. -1.
        -11    1    3    3    0    0  0.13681663465E+02  0.33717524954E+01 -0.22768698474E+02  0.26776300352E+02  0.51100000000E-03 0.  1.
        -12    1    3    3    0    0 -0.51211713476E+00 -0.13519693141E+02 -0.57438473232E+01  0.14698168208E+02  0.00000000000E+00 0.  1.
</event>
<event>
 7    1  0.2817603E-011  0.5052887E+02  0.7816164E-02  0.1300439E+00
        -11   -1    0    0    0    0  0.00000000000E+00  0.00000000000E+00  0.45593999997E+02  0.45594000000E+02  0.51100000000E-03 0.  1.
         11   -1    0    0    0    0 -0.00000000000E+00 -0.00000000000E+00 -0.45593999997E+02  0.45594000000E+02  0.51100000000E-03 0. -1.
    9900012    2    1    2    0    0 -0.27929445444E+02 -0.25328290132E+02 -0.15218048647E+02  0.50528865621E+02  0.30000017541E+02 0.  0.
        -12    1    1    2    0    0  0.27929445444E+02  0.25328290132E+02  0.15218048647E+02  0.40659134379E+02  0.00000000000E+00 0.  1.
         11    1    3    3    0    0  0.85278809499E+00 -0.10857020429E+02 -0.11047204588E+02  0.15512668036E+02  0.51100000000E-03 0. -1.
        -11    1    3    3    0    0 -0.46372744238E+01 -0.67464941255E+01  0.29214790115E+01  0.86922112804E+01  0.51100000000E-03 0.  1.
        -12    1    3    3    0    0 -0.24144959115E+02 -0.77247755777E+01 -0.70923230703E+01  0.26323986304E+02  0.00000000000E+00 0.  1.
</event>
<event>
 7    1  0.2817603E-011  0.5052887E+02  0.7816164E-02  0.1300439E+00
        -11   -1    0    0    0    0  0.00000000000E+00  0.00000000000E+00  0.45593999997E+02  0.45594000000E+02  0.51100000000E-03 0. -1.
         11   -1    0    0    0    0 -0.00000000000E+00 -0.00000000000E+00 -0.45593999997E+02  0.45594000000E+02  0.51100000000E-03 0.  1.
    9900012    2    1    2    0    0 -0.72224432419E+01 -0.35889510464E+02 -0.17690219116E+02  0.50528874332E+02  0.30000044019E+02 0.  0.
        -12    1    1    2    0    0  0.72224432419E+01  0.35889510464E+02  0.17690219116E+02  0.40659125668E+02  0.00000000000E+00 0.  1.
         11    1    3    3    0    0  0.19372380840E+01 -0.33878760658E+01 -0.12226243975E+00  0.39045542635E+01  0.51100000000E-03 0.  1.
        -11    1    3    3    0    0  0.48603065813E+01 -0.18850298095E+02 -0.18739680122E+02  0.27020953530E+02  0.51100000000E-03 0. -1.
         12    1    3    3    0    0 -0.14019987907E+02 -0.13651336303E+02  0.11717234462E+01  0.19603366538E+02  0.00000000000E+00 0. -1.
</event>
<event>
 7    1  0.2817603E-011  0.5052894E+02  0.7816164E-02  0.1300438E+00
        -11   -1    0    0    0    0  0.00000000000E+00  0.00000000000E+00  0.45593999997E+02  0.45594000000E+02  0.51100000000E-03 0.  1.
         11   -1    0    0    0    0 -0.00000000000E+00 -0.00000000000E+00 -0.45593999997E+02  0.45594000000E+02  0.51100000000E-03 0. -1.
    9900012    2    1    2    0    0 -0.26520559883E+02 -0.29282296893E+02 -0.96107148224E+01  0.50528943848E+02  0.30000255319E+02 0.  0.
        -12    1    1    2    0    0  0.26520559883E+02  0.29282296893E+02  0.96107148224E+01  0.40659056152E+02  0.00000000000E+00 0.  1.
         11    1    3    3    0    0 -0.24716969482E+02 -0.15926022748E+02  0.11344864803E+01  0.29425394489E+02  0.51100000000E-03 0. -1.
        -11    1    3    3    0    0 -0.71733124144E+00 -0.10191584564E+02 -0.39332180775E+00  0.10224366110E+02  0.51100000000E-03 0.  1.
        -12    1    3    3    0    0 -0.10862591587E+01 -0.31646895800E+01 -0.10351879495E+02  0.10879183249E+02  0.00000000000E+00 0.  1.
</event>
<event>
 7    1  0.2817603E-011  0.5052886E+02  0.7816164E-02  0.1300439E+00
        -11   -1    0    0    0    0  0.00000000000E+00  0.00000000000E+00  0.45593999997E+02  0.45594000000E+02  0.51100000000E-03 0.  1.
         11   -1    0    0    0    0 -0.00000000000E+00 -0.00000000000E+00 -0.45593999997E+02  0.45594000000E+02  0.51100000000E-03 0. -1.
    9900012    2    1    2    0    0  0.25149561501E+02 -0.31941932083E+02  0.61482008142E+00  0.50528862373E+02  0.30000007668E+02 0.  0.
        -12    1    1    2    0    0 -0.25149561501E+02  0.31941932083E+02 -0.61482008142E+00  0.40659137627E+02  0.00000000000E+00 0.  1.
         11    1    3    3    0    0  0.18335050928E+01  0.46662105660E+01 -0.10435729888E+01  0.51209673711E+01  0.51100000000E-03 0.  1.
        -11    1    3    3    0    0  0.29150952571E+01 -0.28046891446E+00 -0.20564832709E+01  0.35784866738E+01  0.51100000000E-03 0. -1.
         12    1    3    3    0    0  0.20400961151E+02 -0.36327673734E+02  0.37148763412E+01  0.41829408328E+02  0.00000000000E+00 0. -1.
</event>
<event>
 7    1  0.2817603E-011  0.5052887E+02  0.7816164E-02  0.1300439E+00
        -11   -1    0    0    0    0  0.00000000000E+00  0.00000000000E+00  0.45593999997E+02  0.45594000000E+02  0.51100000000E-03 0. -1.
         11   -1    0    0    0    0 -0.00000000000E+00 -0.00000000000E+00 -0.45593999997E+02  0.45594000000E+02  0.51100000000E-03 0.  1.
    9900012    2    1    2    0    0  0.19303983541E+02  0.23374504218E+02  0.27095264838E+02  0.50528873047E+02  0.30000040113E+02 0.  0.
        -12    1    1    2    0    0 -0.19303983541E+02 -0.23374504218E+02 -0.27095264838E+02  0.40659126953E+02  0.00000000000E+00 0.  1.
         11    1    3    3    0    0  0.78453718113E+01 -0.11146422583E+01  0.91899243165E+01  0.12134537298E+02  0.51100000000E-03 0. -1.
        -11    1    3    3    0    0  0.13616194769E+02  0.11648875300E+02  0.17964928530E+02  0.25373917969E+02  0.51100000000E-03 0.  1.
        -12    1    3    3    0    0 -0.21575830395E+01  0.12840271176E+02 -0.59588008932E-01  0.13020417780E+02  0.00000000000E+00 0.  1.
</event>
<event>
 7    1  0.2817603E-011  0.5052885E+02  0.7816164E-02  0.1300439E+00
        -11   -1    0    0    0    0  0.00000000000E+00  0.00000000000E+00  0.45593999997E+02  0.45594000000E+02  0.51100000000E-03 0. -1.
         11   -1    0    0    0    0 -0.00000000000E+00 -0.00000000000E+00 -0.45593999997E+02  0.45594000000E+02  0.51100000000E-03 0.  1.
    9900012    2    1    2    0    0  0.19208196030E+02  0.35123169959E+02 -0.71115766767E+01  0.50528851146E+02  0.29999973544E+02 0.  0.
        -12    1    1    2    0    0 -0.19208196030E+02 -0.35123169959E+02  0.71115766767E+01  0.40659148854E+02  0.00000000000E+00 0.  1.
         11    1    3    3    0    0  0.51878845984E+00  0.59033749933E+01 -0.28270965422E+01  0.65659312285E+01  0.51100000000E-03 0. -1.
        -11    1    3    3    0    0  0.15134722828E+02  0.78398713462E+01 -0.12122257984E+02  0.20915844633E+02  0.51100000000E-03 0.  1.
         12    1    3    3    0    0  0.35546847421E+01  0.21379923619E+02  0.78377778494E+01  0.23047075285E+02  0.00000000000E+00 0. -1.
</event>
<event>
 7    1  0.2817603E-011  0.5052884E+02  0.7816164E-02  0.1300439E+00
        -11   -1    0    0    0    0  0.00000000000E+00  0.00000000000E+00  0.45593999997E+02  0.45594000000E+02  0.51100000000E-03 0. -1.
         11   -1    0    0    0    0 -0.00000000000E+00 -0.00000000000E+00 -0.45593999997E+02  0.45594000000E+02  0.51100000000E-03 0.  1.
    9900012    2    1    2    0    0  0.14324232020E+02  0.38040413329E+02  0.95418537109E+00  0.50528841882E+02  0.29999945384E+02 0.  0.
        -12    1    1    2    0    0 -0.14324232020E+02 -0.38040413329E+02 -0.95418537109E+00  0.40659158118E+02  0.00000000000E+00 0.  1.
         11    1    3    3    0    0 -0.14508403413E+01  0.15510049429E+02  0.10651454130E+01  0.15614131612E+02  0.51100000000E-03 0.  1.
        -11    1    3    3    0    0  0.25542079436E-01  0.17609594723E+02 -0.37814247042E+01  0.18011042495E+02  0.51100000000E-03 0. -1.
        -12    1    3    3    0    0  0.15749530282E+02  0.49207691762E+01  0.36704646623E+01  0.16903667774E+02  0.00000000000E+00 0.  1.
</event>
<event>
 7    1  0.2817603E-011  0.5052886E+02  0.7816164E-02  0.1300439E+00
        -11   -1    0    0    0    0  0.00000000000E+00  0.00000000000E+00  0.45593999997E+02  0.45594000000E+02  0.51100000000E-03 0.  1.
         11   -1    0    0    0    0 -0.00000000000E+00 -0.00000000000E+00 -0.45593999997E+02  0.45594000000E+02  0.51100000000E-03 0. -1.
    9900012    2    1    2    0    0  0.16775337018E+02 -0.36945238095E+02  0.26082208493E+01  0.50528863684E+02  0.30000011653E+02 0.  0.
        -12    1    1    2    0    0 -0.16775337018E+02  0.36945238095E+02 -0.26082208493E+01  0.40659136316E+02  0.00000000000E+00 0.  1.
         11    1    3    3    0    0  0.72715058379E+00 -0.60217110530E+01  0.55590776649E+00  0.60908772507E+01  0.51100000000E-03 0.  1.
        -11    1    3    3    0    0  0.12394505427E+02 -0.15955929058E+02  0.14302517048E+02  0.24754341661E+02  0.51100000000E-03 0. -1.
         12    1    3    3    0    0  0.36536810070E+01 -0.14967597985E+02 -0.12250203965E+02  0.19683644772E+02  0.00000000000E+00 0. -1.
</event>
<event>
 7    1  0.2817603E-011  0.5052886E+02  0.7816164E-02  0.1300439E+00
        -11   -1    0    0    0    0  0.00000000000E+00  0.00000000000E+00  0.45593999997E+02  0.45594000000E+02  0.51100000000E-03 0. -1.
         11   -1    0    0    0    0 -0.00000000000E+00 -0.00000000000E+00 -0.45593999997E+02  0.45594000000E+02  0.51100000000E-03 0.  1.
    9900012    2    1    2    0    0 -0.19796788910E+02  0.26598693564E+02 -0.23532151936E+02  0.50528861726E+02  0.30000005703E+02 0.  0.
        -12    1    1    2    0    0  0.19796788910E+02 -0.26598693564E+02  0.23532151936E+02  0.40659138274E+02  0.00000000000E+00 0.  1.
         11    1    3    3    0    0 -0.20716873663E+01  0.60402848420E+01  0.70957283425E+00  0.64249843101E+01  0.51100000000E-03 0. -1.
        -11    1    3    3    0    0 -0.80661211153E+01  0.14658375672E+02  0.66680270718E+00  0.16744399461E+02  0.51100000000E-03 0.  1.
        -12    1    3    3    0    0 -0.96589804283E+01  0.59000330499E+01 -0.24908527477E+02  0.27359477955E+02  0.00000000000E+00 0.  1.
</event>
<event>
 7    1  0.2817603E-011  0.5052886E+02  0.7816164E-02  0.1300439E+00
        -11   -1    0    0    0    0  0.00000000000E+00  0.00000000000E+00  0.45593999997E+02  0.45594000000E+02  0.51100000000E-03 0. -1.
         11   -1    0    0    0    0 -0.00000000000E+00 -0.00000000000E+00 -0.45593999997E+02  0.45594000000E+02  0.51100000000E-03 0.  1.
    9900012    2    1    2    0    0  0.10643686675E+02 -0.26301623970E+02  0.29122189541E+02  0.50528863104E+02  0.30000009890E+02 0.  0.
        -12    1    1    2    0    0 -0.10643686675E+02  0.26301623970E+02 -0.29122189541E+02  0.40659136896E+02  0.00000000000E+00 0.  1.
         11    1    3    3    0    0  0.14037982897E+00 -0.55645352836E+00  0.62926252472E+01  0.63187403641E+01  0.51100000000E-03 0. -1.
        -11    1    3    3    0    0  0.40685876877E+01  0.35279850263E+01 -0.15179702723E+01  0.55950261954E+01  0.51100000000E-03 0.  1.
         12    1    3    3    0    0  0.64347191586E+01 -0.29273155468E+02  0.24347534566E+02  0.38615096544E+02  0.00000000000E+00 0. -1.
</event>
<event>
 7    1  0.2817603E-011  0.5052886E+02  0.7816164E-02  0.1300439E+00
        -11   -1    0    0    0    0  0.00000000000E+00  0.00000000000E+00  0.45593999997E+02  0.45594000000E+02  0.51100000000E-03 0.  1.
         11   -1    0    0    0    0 -0.00000000000E+00 -0.00000000000E+00 -0.45593999997E+02  0.45594000000E+02  0.51100000000E-03 0. -1.
    9900012    2    1    2    0    0  0.16275321444E+02  0.22895239689E+02 -0.29395368865E+02  0.50528858356E+02  0.29999995458E+02 0.  0.
        -12    1    1    2    0    0 -0.16275321444E+02 -0.22895239689E+02  0.29395368865E+02  0.40659141644E+02  0.00000000000E+00 0.  1.
         11    1    3    3    0    0  0.57366082507E+01  0.31033137826E+01 -0.43486942432E+01  0.78390288006E+01  0.51100000000E-03 0. -1.
        -11    1    3    3    0    0  0.61673207537E+01  0.18280449687E+01  0.44896466278E+01  0.78443942271E+01  0.51100000000E-03 0.  1.
         12    1    3    3    0    0  0.43713924399E+01  0.17963880938E+02 -0.29536321250E+02  0.34845435328E+02  0.00000000000E+00 0. -1.
</event>
<event>
 7    1  0.2817603E-011  0.5052885E+02  0.7816164E-02  0.1300439E+00
        -11   -1    0    0    0    0  0.00000000000E+00  0.00000000000E+00  0.45593999997E+02  0.45594000000E+02  0.51100000000E-03 0.  1.
         11   -1    0    0    0    0 -0.00000000000E+00 -0.00000000000E+00 -0.45593999997E+02  0.45594000000E+02  0.51100000000E-03 0. -1.
    9900012    2    1    2    0    0  0.16536261533E+02  0.21025588447E+02 -0.30620954533E+02  0.50528853777E+02  0.29999981541E+02 0.  0.
        -12    1    1    2    0    0 -0.16536261533E+02 -0.21025588447E+02  0.30620954533E+02  0.40659146223E+02  0.00000000000E+00 0.  1.
         11    1    3    3    0    0 -0.23711770132E+01  0.85930608886E+01 -0.10005190811E+02  0.13400261911E+02  0.51100000000E-03 0. -1.
        -11    1    3    3    0    0 -0.36446745384E+01  0.40773942122E+01 -0.26289697988E-01  0.54689567069E+01  0.51100000000E-03 0.  1.
         12    1    3    3    0    0  0.22552113084E+02  0.83551333465E+01 -0.20589474025E+02  0.31659635159E+02  0.00000000000E+00 0. -1.
</event>
<event>
 7    1  0.2817603E-011  0.5052889E+02  0.7816164E-02  0.1300439E+00
        -11   -1    0    0    0    0  0.00000000000E+00  0.00000000000E+00  0.45593999997E+02  0.45594000000E+02  0.51100000000E-03 0.  1.
         11   -1    0    0    0    0 -0.00000000000E+00 -0.00000000000E+00 -0.45593999997E+02  0.45594000000E+02  0.51100000000E-03 0. -1.
    9900012    2    1    2    0    0 -0.25401080084E+02 -0.21205405816E+02 -0.23627936170E+02  0.50528886964E+02  0.30000082415E+02 0.  0.
        -12    1    1    2    0    0  0.25401080084E+02  0.21205405816E+02  0.23627936170E+02  0.40659113036E+02  0.00000000000E+00 0.  1.
         11    1    3    3    0    0 -0.23619424614E+02 -0.13319199822E+02 -0.25274977775E+01  0.27233555557E+02  0.51100000000E-03 0.  1.
        -11    1    3    3    0    0  0.19413898476E+01 -0.39015053402E+01 -0.81101004223E+01  0.92067620573E+01  0.51100000000E-03 0. -1.
        -12    1    3    3    0    0 -0.37230453177E+01 -0.39847006534E+01 -0.12990337970E+02  0.14088569349E+02  0.00000000000E+00 0.  1.
</event>
<event>
 7    1  0.2817603E-011  0.5052887E+02  0.7816164E-02  0.1300439E+00
        -11   -1    0    0    0    0  0.00000000000E+00  0.00000000000E+00  0.45593999997E+02  0.45594000000E+02  0.51100000000E-03 0. -1.
         11   -1    0    0    0    0 -0.00000000000E+00 -0.00000000000E+00 -0.45593999997E+02  0.45594000000E+02  0.51100000000E-03 0.  1.
    9900012    2    1    2    0    0  0.16556821342E+02 -0.34333884078E+02 -0.14149943026E+02  0.50528870441E+02  0.30000032192E+02 0.  0.
        -12    1    1    2    0    0 -0.16556821342E+02  0.34333884078E+02  0.14149943026E+02  0.40659129559E+02  0.00000000000E+00 0.  1.
         11    1    3    3    0    0  0.18808590288E+02 -0.14570467340E+02 -0.14748270302E+02  0.27992375110E+02  0.51100000000E-03 0. -1.
        -11    1    3    3    0    0  0.23461660072E+01 -0.13606370726E+02 -0.28754175302E+01  0.14103398367E+02  0.51100000000E-03 0.  1.
        -12    1    3    3    0    0 -0.45979349531E+01 -0.61570460119E+01  0.34737448056E+01  0.84330969638E+01  0.00000000000E+00 0.  1.
</event>
<event>
 7    1  0.2817603E-011  0.5052888E+02  0.7816164E-02  0.1300439E+00
        -11   -1    0    0    0    0  0.00000000000E+00  0.00000000000E+00  0.45593999997E+02  0.45594000000E+02  0.51100000000E-03 0.  1.
         11   -1    0    0    0    0 -0.00000000000E+00 -0.00000000000E+00 -0.45593999997E+02  0.45594000000E+02  0.51100000000E-03 0. -1.
    9900012    2    1    2    0    0  0.84161028169E+01 -0.20647553837E+02 -0.34000168802E+02  0.50528883622E+02  0.30000072257E+02 0.  0.
        -12    1    1    2    0    0 -0.84161028169E+01  0.20647553837E+02  0.34000168802E+02  0.40659116378E+02  0.00000000000E+00 0.  1.
         11    1    3    3    0    0  0.14486664063E+02 -0.11105376777E+02 -0.23224593170E+02  0.29539373000E+02  0.51100000000E-03 0. -1.
        -11    1    3    3    0    0 -0.51621331185E+01 -0.84395406488E+01 -0.14184258794E+02  0.17293543954E+02  0.51100000000E-03 0.  1.
        -12    1    3    3    0    0 -0.90842812781E+00 -0.11026364111E+01  0.34086831613E+01  0.36959666683E+01  0.00000000000E+00 0.  1.
</event>
<event>
 7    1  0.2817603E-011  0.5052885E+02  0.7816164E-02  0.1300439E+00
        -11   -1    0    0    0    0  0.00000000000E+00  0.00000000000E+00  0.45593999997E+02  0.45594000000E+02  0.51100000000E-03 0. -1.
         11   -1    0    0    0    0 -0.00000000000E+00 -0.00000000000E+00 -0.45593999997E+02  0.45594000000E+02  0.51100000000E-03 0.  1.
    9900012    2    1    2    0    0  0.46769909803E+01  0.76597695955E+01  0.39656275468E+02  0.50528849752E+02  0.29999969306E+02 0.  0.
        -12    1    1    2    0    0 -0.46769909803E+01 -0.76597695955E+01 -0.39656275468E+02  0.40659150248E+02  0.00000000000E+00 0.  1.
         11    1    3    3    0    0  0.55389376138E+01 -0.35663622295E+00  0.41622040223E+01  0.69376481512E+01  0.51100000000E-03 0. -1.
        -11    1    3    3    0    0  0.96669126956E+01 -0.23887704050E+01  0.18837543223E+02  0.21307474277E+02  0.51100000000E-03 0.  1.
        -12    1    3    3    0    0 -0.10528859329E+02  0.10405176223E+02  0.16656528223E+02  0.22283727324E+02  0.00000000000E+00 0.  1.
</event>
<event>
 7    1  0.2817603E-011  0.5052886E+02  0.7816164E-02  0.1300439E+00
        -11   -1    0    0    0    0  0.00000000000E+00  0.00000000000E+00  0.45593999997E+02  0.45594000000E+02  0.51100000000E-03 0.  1.
         11   -1    0    0    0    0 -0.00000000000E+00 -0.00000000000E+00 -0.45593999997E+02  0.45594000000E+02  0.51100000000E-03 0. -1.
    9900012    2    1    2    0    0  0.50769710799E+01  0.17593458841E+02 -0.36302349492E+02  0.50528855789E+02  0.29999987656E+02 0.  0.
        -12    1    1    2    0    0 -0.50769710799E+01 -0.17593458841E+02  0.36302349492E+02  0.40659144211E+02  0.00000000000E+00 0.  1.
         11    1    3    3    0    0 -0.16107645496E+01  0.79003012551E+01 -0.29340295228E+02  0.30427984598E+02  0.51100000000E-03 0. -1.
        -11    1    3    3    0    0  0.37275799958E+01  0.10943451536E+02 -0.10288362874E+02  0.15475929537E+02  0.51100000000E-03 0.  1.
        -12    1    3    3    0    0  0.29601556337E+01 -0.12502939502E+01  0.33263086100E+01  0.46249416544E+01  0.00000000000E+00 0.  1.
</event>
<event>
 7    1  0.2817603E-011  0.5052886E+02  0.7816164E-02  0.1300439E+00
        -11   -1    0    0    0    0  0.00000000000E+00  0.00000000000E+00  0.45593999997E+02  0.45594000000E+02  0.51100000000E-03 0.  1.
         11   -1    0    0    0    0 -0.00000000000E+00 -0.00000000000E+00 -0.45593999997E+02  0.45594000000E+02  0.51100000000E-03 0. -1.
    9900012    2    1    2    0    0  0.29460385486E+02  0.26992027242E+02  0.75287225946E+01  0.50528861894E+02  0.30000006213E+02 0.  0.
        -12    1    1    2    0    0 -0.29460385486E+02 -0.26992027242E+02 -0.75287225946E+01  0.40659138106E+02  0.00000000000E+00 0.  1.
         11    1    3    3    0    0  0.17553549524E+02  0.17175699843E+02  0.51049951887E+01  0.25083714679E+02  0.51100000000E-03 0. -1.
        -11    1    3    3    0    0  0.65040198353E+01  0.94221786047E+00  0.10430623939E+02  0.12328339894E+02  0.51100000000E-03 0.  1.
        -12    1    3    3    0    0  0.54028161269E+01  0.88741095386E+01 -0.80068965332E+01  0.13116807321E+02  0.00000000000E+00 0.  1.
</event>
<event>
 7    1  0.2817603E-011  0.5052891E+02  0.7816164E-02  0.1300439E+00
        -11   -1    0    0    0    0  0.00000000000E+00  0.00000000000E+00  0.45593999997E+02  0.45594000000E+02  0.51100000000E-03 0. -1.
         11   -1    0    0    0    0 -0.00000000000E+00 -0.00000000000E+00 -0.45593999997E+02  0.45594000000E+02  0.51100000000E-03 0.  1.
    9900012    2    1    2    0    0  0.47555833239E+01 -0.23533166998E+02  0.32813651630E+02  0.50528914238E+02  0.30000165317E+02 0.  0.
        -12    1    1    2    0    0 -0.47555833239E+01  0.23533166998E+02 -0.32813651630E+02  0.40659085762E+02  0.00000000000E+00 0.  1.
         11    1    3    3    0    0 -0.33739760708E+01 -0.49646158356E+01  0.13074943214E+02  0.14386982492E+02  0.51100000000E-03 0. -1.
        -11    1    3    3    0    0  0.10917773250E+02 -0.16836852586E+01  0.15282232992E+01  0.11152041764E+02  0.51100000000E-03 0.  1.
         12    1    3    3    0    0 -0.27882138557E+01 -0.16884865904E+02  0.18210485117E+02  0.24989889982E+02  0.00000000000E+00 0. -1.
</event>
<event>
 7    1  0.2817603E-011  0.5052885E+02  0.7816164E-02  0.1300439E+00
        -11   -1    0    0    0    0  0.00000000000E+00  0.00000000000E+00  0.45593999997E+02  0.45594000000E+02  0.51100000000E-03 0.  1.
         11   -1    0    0    0    0 -0.00000000000E+00 -0.00000000000E+00 -0.45593999997E+02  0.45594000000E+02  0.51100000000E-03 0. -1.
    9900012    2    1    2    0    0 -0.39840931167E+02  0.64943743955E+01  0.48671754073E+01  0.50528854762E+02  0.29999984533E+02 0.  0.
        -12    1    1    2    0    0  0.39840931167E+02 -0.64943743955E+01 -0.48671754073E+01  0.40659145238E+02  0.00000000000E+00 0.  1.
         11    1    3    3    0    0 -0.31678120862E+00 -0.10118512931E+01 -0.25166927652E+01  0.27309222085E+01  0.51100000000E-03 0. -1.
        -11    1    3    3    0    0 -0.14681506161E+01  0.26419901183E+01 -0.63625594552E+01  0.70439861654E+01  0.51100000000E-03 0.  1.
         12    1    3    3    0    0 -0.38055999343E+02  0.48642355702E+01  0.13746427628E+02  0.40753946388E+02  0.00000000000E+00 0. -1.
</event>
<event>
 7    1  0.2817603E-011  0.5052886E+02  0.7816164E-02  0.1300439E+00
        -11   -1    0    0    0    0  0.00000000000E+00  0.00000000000E+00  0.45593999997E+02  0.45594000000E+02  0.51100000000E-03 0.  1.
         11   -1    0    0    0    0 -0.00000000000E+00 -0.00000000000E+00 -0.45593999997E+02  0.45594000000E+02  0.51100000000E-03 0. -1.
    9900012    2    1    2    0    0 -0.18011353476E+02 -0.25823382764E+01 -0.36360528155E+02  0.50528864093E+02  0.30000012897E+02 0.  0.
        -12    1    1    2    0    0  0.18011353476E+02  0.25823382764E+01  0.36360528155E+02  0.40659135907E+02  0.00000000000E+00 0.  1.
         11    1    3    3    0    0 -0.14061521478E+02  0.10624174408E+02 -0.99242733673E+01  0.20225989970E+02  0.51100000000E-03 0. -1.
        -11    1    3    3    0    0  0.86936655285E+00 -0.80945638770E+00 -0.83288236839E+00  0.14507622643E+01  0.51100000000E-03 0.  1.
         12    1    3    3    0    0 -0.48191985514E+01 -0.12397056297E+02 -0.25603372419E+02  0.28852111859E+02  0.00000000000E+00 0. -1.
</event>
<event>
 7    1  0.2817603E-011  0.5052887E+02  0.7816164E-02  0.1300439E+00
        -11   -1    0    0    0    0  0.00000000000E+00  0.00000000000E+00  0.45593999997E+02  0.45594000000E+02  0.51100000000E-03 0.  1.
         11   -1    0    0    0    0 -0.00000000000E+00 -0.00000000000E+00 -0.45593999997E+02  0.45594000000E+02  0.51100000000E-03 0. -1.
    9900012    2    1    2    0    0  0.27078352427E+02 -0.16357005961E+02 -0.25541655011E+02  0.50528868739E+02  0.30000027019E+02 0.  0.
        -12    1    1    2    0    0 -0.27078352427E+02  0.16357005961E+02  0.25541655011E+02  0.40659131261E+02  0.00000000000E+00 0.  1.
         11    1    3    3    0    0  0.81541206730E+01 -0.14277411794E+02 -0.60278072911E+01  0.17511956843E+02  0.51100000000E-03 0. -1.
        -11    1    3    3    0    0  0.65285479194E+01 -0.27948921272E+01  0.26763208126E+01  0.75892063677E+01  0.51100000000E-03 0.  1.
         12    1    3    3    0    0  0.12395683835E+02  0.71529795965E+00 -0.22190168533E+02  0.25427705528E+02  0.00000000000E+00 0. -1.
</event>
<event>
 7    1  0.2817603E-011  0.5052884E+02  0.7816164E-02  0.1300439E+00
        -11   -1    0    0    0    0  0.00000000000E+00  0.00000000000E+00  0.45593999997E+02  0.45594000000E+02  0.51100000000E-03 0.  1.
         11   -1    0    0    0    0 -0.00000000000E+00 -0.00000000000E+00 -0.45593999997E+02  0.45594000000E+02  0.51100000000E-03 0. -1.
    9900012    2    1    2    0    0 -0.23689721848E+02 -0.24772974858E+02 -0.21869257536E+02  0.50528835845E+02  0.29999927036E+02 0.  0.
        -12    1    1    2    0    0  0.23689721848E+02  0.24772974858E+02  0.21869257536E+02  0.40659164155E+02  0.00000000000E+00 0.  1.
         11    1    3    3    0    0 -0.13021483836E+02 -0.68731670952E+00 -0.12555343451E+01  0.13099916500E+02  0.51100000000E-03 0.  1.
        -11    1    3    3    0    0 -0.58463888177E+01 -0.32928838312E+01  0.13036821447E+01  0.68354175826E+01  0.51100000000E-03 0. -1.
        -12    1    3    3    0    0 -0.48218491947E+01 -0.20792774317E+02 -0.21917405336E+02  0.30593501763E+02  0.00000000000E+00 0.  1.
</event>
<event>
 7    1  0.2817603E-011  0.5052887E+02  0.7816164E-02  0.1300439E+00
        -11   -1    0    0    0    0  0.00000000000E+00  0.00000000000E+00  0.45593999997E+02  0.45594000000E+02  0.51100000000E-03 0.  1.
         11   -1    0    0    0    0 -0.00000000000E+00 -0.00000000000E+00 -0.45593999997E+02  0.45594000000E+02  0.51100000000E-03 0. -1.
    9900012    2    1    2    0    0 -0.25921331451E+02 -0.39849723288E+01 -0.31070401099E+02  0.50528865072E+02  0.30000015871E+02 0.  0.
        -12    1    1    2    0    0  0.25921331451E+02  0.39849723288E+01  0.31070401099E+02  0.40659134928E+02  0.00000000000E+00 0.  1.
         11    1    3    3    0    0 -0.98658077039E+01 -0.66665848461E+01 -0.19027719284E+02  0.22446193811E+02  0.51100000000E-03 0. -1.
        -11    1    3    3    0    0 -0.98955811801E+01  0.33757797616E+01 -0.17126442185E+02  0.20065727947E+02  0.51100000000E-03 0.  1.
        -12    1    3    3    0    0 -0.61599425674E+01 -0.69416724431E+00  0.50837603698E+01  0.80169433136E+01  0.00000000000E+00 0.  1.
</event>
<event>
 7    1  0.2817603E-011  0.5052883E+02  0.7816164E-02  0.1300439E+00
        -11   -1    0    0    0    0  0.00000000000E+00  0.00000000000E+00  0.45593999997E+02  0.45594000000E+02  0.51100000000E-03 0.  1.
         11   -1    0    0    0    0 -0.00000000000E+00 -0.00000000000E+00 -0.45593999997E+02  0.45594000000E+02  0.51100000000E-03 0. -1.
    9900012    2    1    2    0    0  0.29216051380E+02 -0.49993986477E+01 -0.27831576297E+02  0.50528827796E+02  0.29999902570E+02 0.  0.
        -12    1    1    2    0    0 -0.29216051380E+02  0.49993986477E+01  0.27831576297E+02  0.40659172204E+02  0.00000000000E+00 0.  1.
         11    1    3    3    0    0  0.18027209210E+02 -0.42683133565E+01 -0.25448412408E+02  0.31477300793E+02  0.51100000000E-03 0. -1.
        -11    1    3    3    0    0  0.66729154718E+01 -0.78951740098E+01 -0.22622518549E+01  0.10582029921E+02  0.51100000000E-03 0.  1.
        -12    1    3    3    0    0  0.45159266984E+01  0.71640887186E+01 -0.12091203380E+00  0.84694970827E+01  0.00000000000E+00 0.  1.
</event>
<event>
 7    1  0.2817603E-011  0.5052886E+02  0.7816164E-02  0.1300439E+00
        -11   -1    0    0    0    0  0.00000000000E+00  0.00000000000E+00  0.45593999997E+02  0.45594000000E+02  0.51100000000E-03 0. -1.
         11   -1    0    0    0    0 -0.00000000000E+00 -0.00000000000E+00 -0.45593999997E+02  0.45594000000E+02  0.51100000000E-03 0.  1.
    9900012    2    1    2    0    0 -0.23795519312E+02 -0.26380489052E+02  0.19773940060E+02  0.50528860223E+02  0.30000001133E+02 0.  0.
        -12    1    1    2    0    0  0.23795519312E+02  0.26380489052E+02 -0.19773940060E+02  0.40659139777E+02  0.00000000000E+00 0.  1.
         11    1    3    3    0    0 -0.20680062160E+01  0.19761631190E+01  0.78509578993E+01  0.83558010136E+01  0.51100000000E-03 0. -1.
        -11    1    3    3    0    0  0.34937577006E+01 -0.48208983303E+01  0.18949572694E+01  0.62480610509E+01  0.51100000000E-03 0.  1.
         12    1    3    3    0    0 -0.25221270797E+02 -0.23535753840E+02  0.10028024891E+02  0.35924998158E+02  0.00000000000E+00 0. -1.
</event>
<event>
 7    1  0.2817603E-011  0.5052889E+02  0.7816164E-02  0.1300439E+00
        -11   -1    0    0    0    0  0.00000000000E+00  0.00000000000E+00  0.45593999997E+02  0.45594000000E+02  0.51100000000E-03 0.  1.
         11   -1    0    0    0    0 -0.00000000000E+00 -0.00000000000E+00 -0.45593999997E+02  0.45594000000E+02  0.51100000000E-03 0. -1.
    9900012    2    1    2    0    0 -0.22607040864E+02 -0.79520176263E+00 -0.33785395918E+02  0.50528885157E+02  0.30000076922E+02 0.  0.
        -12    1    1    2    0    0  0.22607040864E+02  0.79520176263E+00  0.33785395918E+02  0.40659114843E+02  0.00000000000E+00 0.  1.
         11    1    3    3    0    0 -0.14625084162E+02 -0.41989530260E+01 -0.28676350079E+02  0.32463169090E+02  0.51100000000E-03 0. -1.
        -11    1    3    3    0    0 -0.41106761426E+01 -0.49594285723E+01 -0.60051128721E+01  0.88065300193E+01  0.51100000000E-03 0.  1.
         12    1    3    3    0    0 -0.38712805598E+01  0.83631798356E+01  0.89606703265E+00  0.92591860475E+01  0.00000000000E+00 0. -1.
</event>
<event>
 7    1  0.2817603E-011  0.5052884E+02  0.7816164E-02  0.1300439E+00
        -11   -1    0    0    0    0  0.00000000000E+00  0.00000000000E+00  0.45593999997E+02  0.45594000000E+02  0.51100000000E-03 0.  1.
         11   -1    0    0    0    0 -0.00000000000E+00 -0.00000000000E+00 -0.45593999997E+02  0.45594000000E+02  0.51100000000E-03 0. -1.
    9900012    2    1    2    0    0 -0.30980814408E+02 -0.83950553719E+01 -0.24957545637E+02  0.50528844816E+02  0.29999954302E+02 0.  0.
        -12    1    1    2    0    0  0.30980814408E+02  0.83950553719E+01  0.24957545637E+02  0.40659155184E+02  0.00000000000E+00 0.  1.
         11    1    3    3    0    0 -0.46475277055E+01 -0.76895298228E+01 -0.34255982881E+01  0.96157738410E+01  0.51100000000E-03 0. -1.
        -11    1    3    3    0    0 -0.79256770192E-01 -0.43108493657E+01  0.26306835742E+01  0.50507623402E+01  0.51100000000E-03 0.  1.
         12    1    3    3    0    0 -0.26254029932E+02  0.36053238165E+01 -0.24162630923E+02  0.35862308635E+02  0.00000000000E+00 0. -1.
</event>
<event>
 7    1  0.2817603E-011  0.5052885E+02  0.7816164E-02  0.1300439E+00
        -11   -1    0    0    0    0  0.00000000000E+00  0.00000000000E+00  0.45593999997E+02  0.45594000000E+02  0.51100000000E-03 0.  1.
         11   -1    0    0    0    0 -0.00000000000E+00 -0.00000000000E+00 -0.45593999997E+02  0.45594000000E+02  0.51100000000E-03 0. -1.
    9900012    2    1    2    0    0  0.24924451320E+02 -0.10279992309E+02 -0.30434518084E+02  0.50528850888E+02  0.29999972760E+02 0.  0.
        -12    1    1    2    0    0 -0.24924451320E+02  0.10279992309E+02  0.30434518084E+02  0.40659149112E+02  0.00000000000E+00 0.  1.
         11    1    3    3    0    0  0.43324442858E+00  0.59837160392E+01 -0.84225142834E+01  0.10340759425E+02  0.51100000000E-03 0. -1.
        -11    1    3    3    0    0  0.20284257610E+01 -0.60637669340E+01  0.97553624662E+00  0.64680330648E+01  0.51100000000E-03 0.  1.
         12    1    3    3    0    0  0.22462781131E+02 -0.10199941414E+02 -0.22987540047E+02  0.33720058398E+02  0.00000000000E+00 0. -1.
</event>
<event>
 7    1  0.2817603E-011  0.5052899E+02  0.7816164E-02  0.1300438E+00
        -11   -1    0    0    0    0  0.00000000000E+00  0.00000000000E+00  0.45593999997E+02  0.45594000000E+02  0.51100000000E-03 0.  1.
         11   -1    0    0    0    0 -0.00000000000E+00 -0.00000000000E+00 -0.45593999997E+02  0.45594000000E+02  0.51100000000E-03 0. -1.
    9900012    2    1    2    0    0 -0.33516821608E+02  0.21186579648E+02 -0.89948137077E+01  0.50528989172E+02  0.30000393084E+02 0.  0.
        -12    1    1    2    0    0  0.33516821608E+02 -0.21186579648E+02  0.89948137077E+01  0.40659010828E+02  0.00000000000E+00 0.  1.
         11    1    3    3    0    0 -0.40845688044E+00  0.39938412919E+01 -0.42315098803E+01  0.58329479182E+01  0.51100000000E-03 0. -1.
        -11    1    3    3    0    0 -0.12085857254E+01  0.43798440221E+01 -0.89776013802E+01  0.10061860659E+02  0.51100000000E-03 0.  1.
        -12    1    3    3    0    0 -0.31899779002E+02  0.12812894334E+02  0.42142975528E+01  0.34634180595E+02  0.00000000000E+00 0.  1.
</event>
<event>
 7    1  0.2817603E-011  0.5052885E+02  0.7816164E-02  0.1300439E+00
        -11   -1    0    0    0    0  0.00000000000E+00  0.00000000000E+00  0.45593999997E+02  0.45594000000E+02  0.51100000000E-03 0.  1.
         11   -1    0    0    0    0 -0.00000000000E+00 -0.00000000000E+00 -0.45593999997E+02  0.45594000000E+02  0.51100000000E-03 0. -1.
    9900012    2    1    2    0    0  0.92058073935E+00  0.98107441821E+01 -0.39447028608E+02  0.50528852981E+02  0.29999979121E+02 0.  0.
        -12    1    1    2    0    0 -0.92058073935E+00 -0.98107441821E+01  0.39447028608E+02  0.40659147019E+02  0.00000000000E+00 0.  1.
         11    1    3    3    0    0  0.11621861976E+02  0.96372113825E+01 -0.12441982078E+02  0.19563906494E+02  0.51100000000E-03 0. -1.
        -11    1    3    3    0    0 -0.27949565615E+01 -0.31530246801E+01 -0.22725872881E+01  0.47872748048E+01  0.51100000000E-03 0.  1.
        -12    1    3    3    0    0 -0.79063246752E+01  0.33265574796E+01 -0.24732459242E+02  0.26177671682E+02  0.00000000000E+00 0.  1.
</event>
<event>
 7    1  0.2817603E-011  0.5052886E+02  0.7816164E-02  0.1300439E+00
        -11   -1    0    0    0    0  0.00000000000E+00  0.00000000000E+00  0.45593999997E+02  0.45594000000E+02  0.51100000000E-03 0.  1.
         11   -1    0    0    0    0 -0.00000000000E+00 -0.00000000000E+00 -0.45593999997E+02  0.45594000000E+02  0.51100000000E-03 0. -1.
    9900012    2    1    2    0    0 -0.17073807257E+02 -0.80360651134E+01 -0.36014888507E+02  0.50528862885E+02  0.30000009224E+02 0.  0.
        -12    1    1    2    0    0  0.17073807257E+02  0.80360651134E+01  0.36014888507E+02  0.40659137115E+02  0.00000000000E+00 0.  1.
         11    1    3    3    0    0 -0.62652066748E+01  0.30717433475E+01 -0.51885912965E+00  0.69969734120E+01  0.51100000000E-03 0. -1.
        -11    1    3    3    0    0 -0.56466702988E+01 -0.32252151794E+01  0.30668877582E+00  0.65100657972E+01  0.51100000000E-03 0.  1.
         12    1    3    3    0    0 -0.51619302838E+01 -0.78825932814E+01 -0.35802718153E+02  0.37021823676E+02  0.00000000000E+00 0. -1.
</event>
<event>
 7    1  0.2817603E-011  0.5052886E+02  0.7816164E-02  0.1300439E+00
        -11   -1    0    0    0    0  0.00000000000E+00  0.00000000000E+00  0.45593999997E+02  0.45594000000E+02  0.51100000000E-03 0.  1.
         11   -1    0    0    0    0 -0.00000000000E+00 -0.00000000000E+00 -0.45593999997E+02  0.45594000000E+02  0.51100000000E-03 0. -1.
    9900012    2    1    2    0    0 -0.49776505739E+01 -0.14903907401E+02 -0.37500161541E+02  0.50528861093E+02  0.30000003777E+02 0.  0.
        -12    1    1    2    0    0  0.49776505739E+01  0.14903907401E+02  0.37500161541E+02  0.40659138907E+02  0.00000000000E+00 0.  1.
         11    1    3    3    0    0 -0.11884200984E+02 -0.81419278777E+01 -0.22774173300E+02  0.26947879181E+02  0.51100000000E-03 0. -1.
        -11    1    3    3    0    0  0.38584828267E+01 -0.45969587683E+00 -0.16000201935E+02  0.16465286886E+02  0.51100000000E-03 0.  1.
        -12    1    3    3    0    0  0.30480675833E+01 -0.63022836469E+01  0.12742136937E+01  0.71156950255E+01  0.00000000000E+00 0.  1.
</event>
<event>
 7    1  0.2817603E-011  0.5052890E+02  0.7816164E-02  0.1300439E+00
        -11   -1    0    0    0    0  0.00000000000E+00  0.00000000000E+00  0.45593999997E+02  0.45594000000E+02  0.51100000000E-03 0.  1.
         11   -1    0    0    0    0 -0.00000000000E+00 -0.00000000000E+00 -0.45593999997E+02  0.45594000000E+02  0.51100000000E-03 0. -1.
    9900012    2    1    2    0    0 -0.31936318914E+02  0.24227646129E+02  0.68011094114E+01  0.50528900257E+02  0.30000122819E+02 0.  0.
        -12    1    1    2    0    0  0.31936318914E+02 -0.24227646129E+02 -0.68011094114E+01  0.40659099743E+02  0.00000000000E+00 0.  1.
         11    1    3    3    0    0  0.36803060512E+01  0.85792215872E+01  0.32178616852E+01  0.98743268003E+01  0.51100000000E-03 0. -1.
        -11    1    3    3    0    0 -0.40213049715E+01 -0.16489393080E+01  0.14080413057E+01  0.45686403989E+01  0.51100000000E-03 0.  1.
         12    1    3    3    0    0 -0.31595319993E+02  0.17297363850E+02  0.21752064204E+01  0.36085933057E+02  0.00000000000E+00 0. -1.
</event>
<event>
 7    1  0.2817603E-011  0.5052886E+02  0.7816164E-02  0.1300439E+00
        -11   -1    0    0    0    0  0.00000000000E+00  0.00000000000E+00  0.45593999997E+02  0.45594000000E+02  0.51100000000E-03 0.  1.
         11   -1    0    0    0    0 -0.00000000000E+00 -0.00000000000E+00 -0.45593999997E+02  0.45594000000E+02  0.51100000000E-03 0. -1.
    9900012    2    1    2    0    0  0.59576008878E+01 -0.16442293016E+02 -0.36705911490E+02  0.50528856548E+02  0.29999989962E+02 0.  0.
        -12    1    1    2    0    0 -0.59576008878E+01  0.16442293016E+02  0.36705911490E+02  0.40659143452E+02  0.00000000000E+00 0.  1.
         11    1    3    3    0    0  0.33584388952E+01 -0.40606132625E+01 -0.23907277597E+01  0.57864731368E+01  0.51100000000E-03 0. -1.
        -11    1    3    3    0    0  0.31677790383E+01 -0.20202458758E+02 -0.21153222296E+02  0.29421641315E+02  0.51100000000E-03 0.  1.
        -12    1    3    3    0    0 -0.56861704572E+00  0.78207790041E+01 -0.13161961435E+02  0.15320742096E+02  0.00000000000E+00 0.  1.
</event>
<event>
 7    1  0.2817603E-011  0.5052885E+02  0.7816164E-02  0.1300439E+00
        -11   -1    0    0    0    0  0.00000000000E+00  0.00000000000E+00  0.45593999997E+02  0.45594000000E+02  0.51100000000E-03 0.  1.
         11   -1    0    0    0    0 -0.00000000000E+00 -0.00000000000E+00 -0.45593999997E+02  0.45594000000E+02  0.51100000000E-03 0. -1.
    9900012    2    1    2    0    0  0.22017826494E+02  0.32776428988E+02 -0.96998828617E+01  0.50528847177E+02  0.29999961480E+02 0.  0.
        -12    1    1    2    0    0 -0.22017826494E+02 -0.32776428988E+02  0.96998828617E+01  0.40659152823E+02  0.00000000000E+00 0.  1.
         11    1    3    3    0    0 -0.51348262992E+00  0.18742869681E+01 -0.87721637039E+01  0.89848468189E+01  0.51100000000E-03 0. -1.
        -11    1    3    3    0    0  0.10078297764E+02  0.62010046601E+01 -0.62372345015E+01  0.13376383633E+02  0.51100000000E-03 0.  1.
         12    1    3    3    0    0  0.12453011360E+02  0.24701137360E+02  0.53095153436E+01  0.28167616725E+02  0.00000000000E+00 0. -1.
</event>
<event>
 7    1  0.2817603E-011  0.5052887E+02  0.7816164E-02  0.1300439E+00
        -11   -1    0    0    0    0  0.00000000000E+00  0.00000000000E+00  0.45593999997E+02  0.45594000000E+02  0.51100000000E-03 0. -1.
         11   -1    0    0    0    0 -0.00000000000E+00 -0.00000000000E+00 -0.45593999997E+02  0.45594000000E+02  0.51100000000E-03 0.  1.
    9900012    2    1    2    0    0  0.40215681831E+01 -0.21869667325E+02  0.34039820945E+02  0.50528871018E+02  0.30000033947E+02 0.  0.
        -12    1    1    2    0    0 -0.40215681831E+01  0.21869667325E+02 -0.34039820945E+02  0.40659128982E+02  0.00000000000E+00 0.  1.
         11    1    3    3    0    0  0.58186642602E+01 -0.26737923563E+02  0.18896204955E+02  0.33254172253E+02  0.51100000000E-03 0. -1.
        -11    1    3    3    0    0  0.13505882935E+01  0.38376571728E+01  0.42274050156E+01  0.58670823022E+01  0.51100000000E-03 0.  1.
        -12    1    3    3    0    0 -0.31476843706E+01  0.10305990651E+01  0.10916210975E+02  0.11407616463E+02  0.00000000000E+00 0.  1.
</event>
<event>
 7    1  0.2817603E-011  0.5052886E+02  0.7816164E-02  0.1300439E+00
        -11   -1    0    0    0    0  0.00000000000E+00  0.00000000000E+00  0.45593999997E+02  0.45594000000E+02  0.51100000000E-03 0.  1.
         11   -1    0    0    0    0 -0.00000000000E+00 -0.00000000000E+00 -0.45593999997E+02  0.45594000000E+02  0.51100000000E-03 0. -1.
    9900012    2    1    2    0    0  0.38065624218E+02 -0.11509938786E+02  0.84672812579E+01  0.50528864620E+02  0.30000014499E+02 0.  0.
        -12    1    1    2    0    0 -0.38065624218E+02  0.11509938786E+02 -0.84672812579E+01  0.40659135380E+02  0.00000000000E+00 0.  1.
         11    1    3    3    0    0  0.12984053471E+02  0.21737158963E+01 -0.96248160464E+01  0.16307905124E+02  0.51100000000E-03 0. -1.
        -11    1    3    3    0    0  0.37755986921E+00 -0.11199660668E+01  0.11837618385E+00  0.11878083295E+01  0.51100000000E-03 0.  1.
        -12    1    3    3    0    0  0.24704010877E+02 -0.12563688616E+02  0.17973721120E+02  0.33033151166E+02  0.00000000000E+00 0.  1.
</event>
<event>
 7    1  0.2817603E-011  0.5052886E+02  0.7816164E-02  0.1300439E+00
        -11   -1    0    0    0    0  0.00000000000E+00  0.00000000000E+00  0.45593999997E+02  0.45594000000E+02  0.51100000000E-03 0.  1.
         11   -1    0    0    0    0 -0.00000000000E+00 -0.00000000000E+00 -0.45593999997E+02  0.45594000000E+02  0.51100000000E-03 0. -1.
    9900012    2    1    2    0    0  0.14520653708E+02 -0.28158987621E+02 -0.25483089213E+02  0.50528858300E+02  0.29999995288E+02 0.  0.
        -12    1    1    2    0    0 -0.14520653708E+02  0.28158987621E+02  0.25483089213E+02  0.40659141700E+02  0.00000000000E+00 0.  1.
         11    1    3    3    0    0  0.25404712899E+01 -0.25474269269E+02 -0.87854496107E+01  0.27066150710E+02  0.51100000000E-03 0. -1.
        -11    1    3    3    0    0  0.15695205244E+00 -0.27682779186E+01  0.26568309086E+00  0.27854235489E+01  0.51100000000E-03 0.  1.
         12    1    3    3    0    0  0.11823230366E+02  0.83559566423E-01 -0.16963322694E+02  0.20677284040E+02  0.00000000000E+00 0. -1.
</event>
<event>
 7    1  0.2817603E-011  0.5052884E+02  0.7816164E-02  0.1300439E+00
        -11   -1    0    0    0    0  0.00000000000E+00  0.00000000000E+00  0.45593999997E+02  0.45594000000E+02  0.51100000000E-03 0.  1.
         11   -1    0    0    0    0 -0.00000000000E+00 -0.00000000000E+00 -0.45593999997E+02  0.45594000000E+02  0.51100000000E-03 0. -1.
    9900012    2    1    2    0    0 -0.23888642435E+02 -0.26424223917E+01 -0.32795084020E+02  0.50528841507E+02  0.29999944245E+02 0.  0.
        -12    1    1    2    0    0  0.23888642435E+02  0.26424223917E+01  0.32795084020E+02  0.40659158493E+02  0.00000000000E+00 0.  1.
         11    1    3    3    0    0  0.85347103649E+00 -0.46446870863E+01  0.25419175837E+00  0.47292858500E+01  0.51100000000E-03 0.  1.
        -11    1    3    3    0    0 -0.70851165685E+01  0.55069522507E+01 -0.24058930591E+02  0.25677958278E+02  0.51100000000E-03 0. -1.
         12    1    3    3    0    0 -0.17656996903E+02 -0.35046875560E+01 -0.89903451875E+01  0.20121597379E+02  0.00000000000E+00 0. -1.
</event>
<event>
 7    1  0.2817603E-011  0.5052886E+02  0.7816164E-02  0.1300439E+00
        -11   -1    0    0    0    0  0.00000000000E+00  0.00000000000E+00  0.45593999997E+02  0.45594000000E+02  0.51100000000E-03 0.  1.
         11   -1    0    0    0    0 -0.00000000000E+00 -0.00000000000E+00 -0.45593999997E+02  0.45594000000E+02  0.51100000000E-03 0. -1.
    9900012    2    1    2    0    0  0.17570378571E+02  0.32026691101E+02 -0.17853249023E+02  0.50528860232E+02  0.30000001160E+02 0.  0.
        -12    1    1    2    0    0 -0.17570378571E+02 -0.32026691101E+02  0.17853249023E+02  0.40659139768E+02  0.00000000000E+00 0.  1.
         11    1    3    3    0    0  0.76003355213E+01  0.13483653887E+02 -0.12419597730E+02  0.19844909429E+02  0.51100000000E-03 0. -1.
        -11    1    3    3    0    0  0.10678585032E+02  0.16329069020E+02 -0.12549327109E+02  0.23198195716E+02  0.51100000000E-03 0.  1.
        -12    1    3    3    0    0 -0.70854198238E+00  0.22139681939E+01  0.71156758158E+01  0.74857550868E+01  0.00000000000E+00 0.  1.
</event>
<event>
 7    1  0.2817603E-011  0.5052886E+02  0.7816164E-02  0.1300439E+00
        -11   -1    0    0    0    0  0.00000000000E+00  0.00000000000E+00  0.45593999997E+02  0.45594000000E+02  0.51100000000E-03 0. -1.
         11   -1    0    0    0    0 -0.00000000000E+00 -0.00000000000E+00 -0.45593999997E+02  0.45594000000E+02  0.51100000000E-03 0.  1.
    9900012    2    1    2    0    0  0.28169155905E+02  0.57978115230E+01  0.28741079165E+02  0.50528860875E+02  0.30000003115E+02 0.  0.
        -12    1    1    2    0    0 -0.28169155905E+02 -0.57978115230E+01 -0.28741079165E+02  0.40659139125E+02  0.00000000000E+00 0.  1.
         11    1    3    3    0    0  0.36350778874E+01 -0.33255823670E+00  0.58233683369E+01  0.68728455007E+01  0.51100000000E-03 0. -1.
        -11    1    3    3    0    0 -0.57634086281E+01 -0.13626258488E+01  0.30884173561E+01  0.66792177869E+01  0.51100000000E-03 0.  1.
        -12    1    3    3    0    0  0.30297486645E+02  0.74929956085E+01  0.19829293472E+02  0.36976797587E+02  0.00000000000E+00 0.  1.
</event>
<event>
 7    1  0.2817603E-011  0.5052885E+02  0.7816164E-02  0.1300439E+00
        -11   -1    0    0    0    0  0.00000000000E+00  0.00000000000E+00  0.45593999997E+02  0.45594000000E+02  0.51100000000E-03 0.  1.
         11   -1    0    0    0    0 -0.00000000000E+00 -0.00000000000E+00 -0.45593999997E+02  0.45594000000E+02  0.51100000000E-03 0. -1.
    9900012    2    1    2    0    0  0.32966506922E+02 -0.15636828550E+02 -0.17940608267E+02  0.50528850836E+02  0.29999972602E+02 0.  0.
        -12    1    1    2    0    0 -0.32966506922E+02  0.15636828550E+02  0.17940608267E+02  0.40659149164E+02  0.00000000000E+00 0.  1.
         11    1    3    3    0    0  0.15697114813E+02  0.31376677913E+01 -0.67585450159E+01  0.17375911591E+02  0.51100000000E-03 0. -1.
        -11    1    3    3    0    0  0.15197297397E+02 -0.32411230799E+01 -0.56262159348E+01  0.16526252842E+02  0.51100000000E-03 0.  1.
        -12    1    3    3    0    0  0.20720947125E+01 -0.15533373262E+02 -0.55558473158E+01  0.16626686404E+02  0.00000000000E+00 0.  1.
</event>
<event>
 7    1  0.2817603E-011  0.5052886E+02  0.7816164E-02  0.1300439E+00
        -11   -1    0    0    0    0  0.00000000000E+00  0.00000000000E+00  0.45593999997E+02  0.45594000000E+02  0.51100000000E-03 0.  1.
         11   -1    0    0    0    0 -0.00000000000E+00 -0.00000000000E+00 -0.45593999997E+02  0.45594000000E+02  0.51100000000E-03 0. -1.
    9900012    2    1    2    0    0  0.31385374719E+02 -0.58641640276E+01 -0.25174108976E+02  0.50528856764E+02  0.29999990619E+02 0.  0.
        -12    1    1    2    0    0 -0.31385374719E+02  0.58641640276E+01  0.25174108976E+02  0.40659143236E+02  0.00000000000E+00 0.  1.
         11    1    3    3    0    0  0.24917067274E+02  0.44195833850E+01 -0.45639848025E+01  0.25714255120E+02  0.51100000000E-03 0. -1.
        -11    1    3    3    0    0 -0.84104539821E+00 -0.13832453881E+00 -0.19495580942E+00  0.87435637393E+00  0.51100000000E-03 0.  1.
         12    1    3    3    0    0  0.73093528433E+01 -0.10145422874E+02 -0.20415168364E+02  0.23940245270E+02  0.00000000000E+00 0. -1.
</event>
<event>
 7    1  0.2817603E-011  0.5052886E+02  0.7816164E-02  0.1300439E+00
        -11   -1    0    0    0    0  0.00000000000E+00  0.00000000000E+00  0.45593999997E+02  0.45594000000E+02  0.51100000000E-03 0. -1.
         11   -1    0    0    0    0 -0.00000000000E+00 -0.00000000000E+00 -0.45593999997E+02  0.45594000000E+02  0.51100000000E-03 0.  1.
    9900012    2    1    2    0    0 -0.12698015111E+02  0.11302461365E+02  0.36934811319E+02  0.50528861939E+02  0.30000006351E+02 0.  0.
        -12    1    1    2    0    0  0.12698015111E+02 -0.11302461365E+02 -0.36934811319E+02  0.40659138061E+02  0.00000000000E+00 0.  1.
         11    1    3    3    0    0 -0.49474930841E+00 -0.24386150785E+01 -0.16393292756E+01  0.29797686343E+01  0.51100000000E-03 0. -1.
        -11    1    3    3    0    0 -0.19837801520E+01 -0.16472496602E+01 -0.18033810653E+01  0.31465852383E+01  0.51100000000E-03 0.  1.
        -12    1    3    3    0    0 -0.10219485651E+02  0.15388326104E+02  0.40377521660E+02  0.44402508067E+02  0.00000000000E+00 0.  1.
</event>
<event>
 7    1  0.2817603E-011  0.5052888E+02  0.7816164E-02  0.1300439E+00
        -11   -1    0    0    0    0  0.00000000000E+00  0.00000000000E+00  0.45593999997E+02  0.45594000000E+02  0.51100000000E-03 0.  1.
         11   -1    0    0    0    0 -0.00000000000E+00 -0.00000000000E+00 -0.45593999997E+02  0.45594000000E+02  0.51100000000E-03 0. -1.
    9900012    2    1    2    0    0  0.16461020080E+02  0.37074477131E+02 -0.27715732711E+01  0.50528884724E+02  0.30000075606E+02 0.  0.
        -12    1    1    2    0    0 -0.16461020080E+02 -0.37074477131E+02  0.27715732711E+01  0.40659115276E+02  0.00000000000E+00 0.  1.
         11    1    3    3    0    0  0.12020594651E+02  0.10175185944E+02  0.15594328688E+01  0.15825957661E+02  0.51100000000E-03 0. -1.
        -11    1    3    3    0    0  0.12513406255E+02  0.12612374816E+02 -0.43557047286E+01  0.18292881089E+02  0.51100000000E-03 0.  1.
        -12    1    3    3    0    0 -0.80729808259E+01  0.14286916371E+02  0.24698588755E-01  0.16410045973E+02  0.00000000000E+00 0.  1.
</event>
<event>
 7    1  0.2817603E-011  0.5052888E+02  0.7816164E-02  0.1300439E+00
        -11   -1    0    0    0    0  0.00000000000E+00  0.00000000000E+00  0.45593999997E+02  0.45594000000E+02  0.51100000000E-03 0.  1.
         11   -1    0    0    0    0 -0.00000000000E+00 -0.00000000000E+00 -0.45593999997E+02  0.45594000000E+02  0.51100000000E-03 0. -1.
    9900012    2    1    2    0    0  0.25385258058E+02  0.30495872868E+02 -0.88743930179E+01  0.50528875070E+02  0.30000046261E+02 0.  0.
        -12    1    1    2    0    0 -0.25385258058E+02 -0.30495872868E+02  0.88743930179E+01  0.40659124930E+02  0.00000000000E+00 0.  1.
         11    1    3    3    0    0  0.22702090467E+02  0.84541848211E+01 -0.45133944935E+01  0.24642014582E+02  0.51100000000E-03 0. -1.
        -11    1    3    3    0    0 -0.19494500588E+01 -0.65042977914E+00 -0.15135624390E+01  0.25523099238E+01  0.51100000000E-03 0.  1.
        -12    1    3    3    0    0  0.46326176500E+01  0.22692117826E+02 -0.28474360855E+01  0.23334550563E+02  0.00000000000E+00 0.  1.
</event>
<event>
 7    1  0.2817603E-011  0.5052886E+02  0.7816164E-02  0.1300439E+00
        -11   -1    0    0    0    0  0.00000000000E+00  0.00000000000E+00  0.45593999997E+02  0.45594000000E+02  0.51100000000E-03 0.  1.
         11   -1    0    0    0    0 -0.00000000000E+00 -0.00000000000E+00 -0.45593999997E+02  0.45594000000E+02  0.51100000000E-03 0. -1.
    9900012    2    1    2    0    0 -0.73714667059E+01  0.22330511760E+02 -0.33168892835E+02  0.50528859223E+02  0.29999998093E+02 0.  0.
        -12    1    1    2    0    0  0.73714667059E+01 -0.22330511760E+02  0.33168892835E+02  0.40659140777E+02  0.00000000000E+00 0.  1.
         11    1    3    3    0    0  0.68265459227E+00  0.32563535299E+01 -0.98852912272E+01  0.10430188805E+02  0.51100000000E-03 0. -1.
        -11    1    3    3    0    0 -0.11212584582E+02  0.21274273082E+02 -0.25977964916E+02  0.35400161152E+02  0.51100000000E-03 0.  1.
        -12    1    3    3    0    0  0.31584632838E+01 -0.22001148522E+01  0.26943633083E+01  0.46985092652E+01  0.00000000000E+00 0.  1.
</event>
<event>
 7    1  0.2817603E-011  0.5052888E+02  0.7816164E-02  0.1300439E+00
        -11   -1    0    0    0    0  0.00000000000E+00  0.00000000000E+00  0.45593999997E+02  0.45594000000E+02  0.51100000000E-03 0. -1.
         11   -1    0    0    0    0 -0.00000000000E+00 -0.00000000000E+00 -0.45593999997E+02  0.45594000000E+02  0.51100000000E-03 0.  1.
    9900012    2    1    2    0    0 -0.24380899492E+02  0.27312202771E+02  0.17685566814E+02  0.50528881050E+02  0.30000064439E+02 0.  0.
        -12    1    1    2    0    0  0.24380899492E+02 -0.27312202771E+02 -0.17685566814E+02  0.40659118950E+02  0.00000000000E+00 0.  1.
         11    1    3    3    0    0 -0.86906472857E+01  0.80835380320E+01 -0.43082988375E+01  0.12626653416E+02  0.51100000000E-03 0.  1.
        -11    1    3    3    0    0 -0.15228024730E+02  0.17978679126E+02  0.96079346867E+01  0.25444803978E+02  0.51100000000E-03 0. -1.
         12    1    3    3    0    0 -0.46222747714E+00  0.12499856130E+01  0.12385930964E+02  0.12457423655E+02  0.00000000000E+00 0. -1.
</event>
<event>
 7    1  0.2817603E-011  0.5052884E+02  0.7816164E-02  0.1300439E+00
        -11   -1    0    0    0    0  0.00000000000E+00  0.00000000000E+00  0.45593999997E+02  0.45594000000E+02  0.51100000000E-03 0.  1.
         11   -1    0    0    0    0 -0.00000000000E+00 -0.00000000000E+00 -0.45593999997E+02  0.45594000000E+02  0.51100000000E-03 0. -1.
    9900012    2    1    2    0    0  0.29696315799E+02 -0.27619874931E+02  0.29048722070E+01  0.50528844256E+02  0.29999952602E+02 0.  0.
        -12    1    1    2    0    0 -0.29696315799E+02  0.27619874931E+02 -0.29048722070E+01  0.40659155744E+02  0.00000000000E+00 0.  1.
         11    1    3    3    0    0  0.20613105713E+02 -0.25133864422E+02 -0.32539205761E+01  0.32668015969E+02  0.51100000000E-03 0. -1.
        -11    1    3    3    0    0  0.89473310945E+01 -0.41417064799E+01 -0.15451745365E+01  0.99797811043E+01  0.51100000000E-03 0.  1.
        -12    1    3    3    0    0  0.13587899100E+00  0.16556959708E+01  0.77039673196E+01  0.78810471836E+01  0.00000000000E+00 0.  1.
</event>
<event>
 7    1  0.2817603E-011  0.5052888E+02  0.7816164E-02  0.1300439E+00
        -11   -1    0    0    0    0  0.00000000000E+00  0.00000000000E+00  0.45593999997E+02  0.45594000000E+02  0.51100000000E-03 0.  1.
         11   -1    0    0    0    0 -0.00000000000E+00 -0.00000000000E+00 -0.45593999997E+02  0.45594000000E+02  0.51100000000E-03 0. -1.
    9900012    2    1    2    0    0 -0.36922482785E+02 -0.16114782904E+02  0.54961997256E+01  0.50528878336E+02  0.30000056190E+02 0.  0.
        -12    1    1    2    0    0  0.36922482785E+02  0.16114782904E+02 -0.54961997256E+01  0.40659121664E+02  0.00000000000E+00 0.  1.
         11    1    3    3    0    0 -0.12543088979E+02 -0.90317426145E+01 -0.81129763520E+00  0.15477714944E+02  0.51100000000E-03 0. -1.
        -11    1    3    3    0    0 -0.27937128724E+02 -0.80773613086E+01  0.90425405401E+01  0.30454793821E+02  0.51100000000E-03 0.  1.
        -12    1    3    3    0    0  0.35577349175E+01  0.99432101882E+00 -0.27350431793E+01  0.45963695700E+01  0.00000000000E+00 0.  1.
</event>
<event>
 7    1  0.2817603E-011  0.5052888E+02  0.7816164E-02  0.1300439E+00
        -11   -1    0    0    0    0  0.00000000000E+00  0.00000000000E+00  0.45593999997E+02  0.45594000000E+02  0.51100000000E-03 0.  1.
         11   -1    0    0    0    0 -0.00000000000E+00 -0.00000000000E+00 -0.45593999997E+02  0.45594000000E+02  0.51100000000E-03 0. -1.
    9900012    2    1    2    0    0 -0.15432712433E+02 -0.29995423725E+02 -0.22699554403E+02  0.50528882602E+02  0.30000069158E+02 0.  0.
        -12    1    1    2    0    0  0.15432712433E+02  0.29995423725E+02  0.22699554403E+02  0.40659117398E+02  0.00000000000E+00 0.  1.
         11    1    3    3    0    0  0.23499621996E+01 -0.97679995737E+01  0.20158304514E+01  0.10246936649E+02  0.51100000000E-03 0. -1.
        -11    1    3    3    0    0  0.22233999585E+01  0.11688658345E+01 -0.17771243875E+01  0.30769995229E+01  0.51100000000E-03 0.  1.
         12    1    3    3    0    0 -0.20006074591E+02 -0.21396289986E+02 -0.22938260466E+02  0.37204946431E+02  0.00000000000E+00 0. -1.
</event>
<event>
 7    1  0.2817603E-011  0.5052886E+02  0.7816164E-02  0.1300439E+00
        -11   -1    0    0    0    0  0.00000000000E+00  0.00000000000E+00  0.45593999997E+02  0.45594000000E+02  0.51100000000E-03 0.  1.
         11   -1    0    0    0    0 -0.00000000000E+00 -0.00000000000E+00 -0.45593999997E+02  0.45594000000E+02  0.51100000000E-03 0. -1.
    9900012    2    1    2    0    0 -0.17992370914E+02  0.84801153355E+01 -0.35461643419E+02  0.50528856856E+02  0.29999990900E+02 0.  0.
        -12    1    1    2    0    0  0.17992370914E+02 -0.84801153355E+01  0.35461643419E+02  0.40659143144E+02  0.00000000000E+00 0.  1.
         11    1    3    3    0    0 -0.64555450576E+00 -0.54955710902E+01 -0.31371500955E+01  0.63607981583E+01  0.51100000000E-03 0. -1.
        -11    1    3    3    0    0 -0.95047128310E+01  0.71923887558E+01 -0.19566500266E+01  0.12078845210E+02  0.51100000000E-03 0.  1.
         12    1    3    3    0    0 -0.78421035775E+01  0.67832976699E+01 -0.30367843297E+02  0.32089213488E+02  0.00000000000E+00 0. -1.
</event>
<event>
 7    1  0.2817603E-011  0.5052885E+02  0.7816164E-02  0.1300439E+00
        -11   -1    0    0    0    0  0.00000000000E+00  0.00000000000E+00  0.45593999997E+02  0.45594000000E+02  0.51100000000E-03 0. -1.
         11   -1    0    0    0    0 -0.00000000000E+00 -0.00000000000E+00 -0.45593999997E+02  0.45594000000E+02  0.51100000000E-03 0.  1.
    9900012    2    1    2    0    0 -0.14289121068E+02 -0.36704357239E+02  0.10088490157E+02  0.50528850294E+02  0.29999970953E+02 0.  0.
        -12    1    1    2    0    0  0.14289121068E+02  0.36704357239E+02 -0.10088490157E+02  0.40659149706E+02  0.00000000000E+00 0.  1.
         11    1    3    3    0    0 -0.81473592716E-01 -0.48579780225E+01  0.35399568272E+01  0.60114792700E+01  0.51100000000E-03 0. -1.
        -11    1    3    3    0    0 -0.59256710339E+01 -0.32281514864E+02 -0.16410977155E+01  0.32861877321E+02  0.51100000000E-03 0.  1.
        -12    1    3    3    0    0 -0.82819764410E+01  0.43513564766E+00  0.81896310449E+01  0.11655493703E+02  0.00000000000E+00 0.  1.
</event>
<event>
 7    1  0.2817603E-011  0.5052886E+02  0.7816164E-02  0.1300439E+00
        -11   -1    0    0    0    0  0.00000000000E+00  0.00000000000E+00  0.45593999997E+02  0.45594000000E+02  0.51100000000E-03 0.  1.
         11   -1    0    0    0    0 -0.00000000000E+00 -0.00000000000E+00 -0.45593999997E+02  0.45594000000E+02  0.51100000000E-03 0. -1.
    9900012    2    1    2    0    0  0.15458013077E+02 -0.19526631670E+02 -0.32139169174E+02  0.50528859479E+02  0.29999998873E+02 0.  0.
        -12    1    1    2    0    0 -0.15458013077E+02  0.19526631670E+02  0.32139169174E+02  0.40659140521E+02  0.00000000000E+00 0.  1.
         11    1    3    3    0    0  0.28816158093E+01 -0.17113010668E+01 -0.58737621062E+01  0.67626431633E+01  0.51100000000E-03 0. -1.
        -11    1    3    3    0    0  0.12300331009E+02 -0.24077801632E+02 -0.15118290113E+02  0.30977433247E+02  0.51100000000E-03 0.  1.
        -12    1    3    3    0    0  0.27606625890E+00  0.62624710289E+01 -0.11147116955E+02  0.12788783069E+02  0.00000000000E+00 0.  1.
</event>
<event>
 7    1  0.2817603E-011  0.5052886E+02  0.7816164E-02  0.1300439E+00
        -11   -1    0    0    0    0  0.00000000000E+00  0.00000000000E+00  0.45593999997E+02  0.45594000000E+02  0.51100000000E-03 0. -1.
         11   -1    0    0    0    0 -0.00000000000E+00 -0.00000000000E+00 -0.45593999997E+02  0.45594000000E+02  0.51100000000E-03 0.  1.
    9900012    2    1    2    0    0  0.31539250922E+02 -0.14945780858E+02  0.20858206548E+02  0.50528862102E+02  0.30000006845E+02 0.  0.
        -12    1    1    2    0    0 -0.31539250922E+02  0.14945780858E+02 -0.20858206548E+02  0.40659137898E+02  0.00000000000E+00 0.  1.
         11    1    3    3    0    0  0.14558584112E+02 -0.36283024664E+01  0.87387999236E+01  0.17363282365E+02  0.51100000000E-03 0. -1.
        -11    1    3    3    0    0  0.18900494830E+02 -0.16096167037E+02  0.12866435706E+02  0.27961767937E+02  0.51100000000E-03 0.  1.
        -12    1    3    3    0    0 -0.19198280196E+01  0.47786886461E+01 -0.74702908127E+00  0.52038118000E+01  0.00000000000E+00 0.  1.
</event>
<event>
 7    1  0.2817603E-011  0.5052886E+02  0.7816164E-02  0.1300439E+00
        -11   -1    0    0    0    0  0.00000000000E+00  0.00000000000E+00  0.45593999997E+02  0.45594000000E+02  0.51100000000E-03 0.  1.
         11   -1    0    0    0    0 -0.00000000000E+00 -0.00000000000E+00 -0.45593999997E+02  0.45594000000E+02  0.51100000000E-03 0. -1.
    9900012    2    1    2    0    0 -0.32769842473E+02 -0.23802127486E+02 -0.35723466787E+01  0.50528861921E+02  0.30000006294E+02 0.  0.
        -12    1    1    2    0    0  0.32769842473E+02  0.23802127486E+02  0.35723466787E+01  0.40659138079E+02  0.00000000000E+00 0.  1.
         11    1    3    3    0    0 -0.63228214843E+00 -0.33885082669E+01 -0.82858472096E+01  0.89742427665E+01  0.51100000000E-03 0. -1.
        -11    1    3    3    0    0 -0.60939710382E+01 -0.45993066177E+01 -0.55108075563E+01  0.94158963759E+01  0.51100000000E-03 0.  1.
         12    1    3    3    0    0 -0.26043589286E+02 -0.15814312601E+02  0.10224308087E+02  0.32138722778E+02  0.00000000000E+00 0. -1.
</event>
<event>
 7    1  0.2817603E-011  0.5052885E+02  0.7816164E-02  0.1300439E+00
        -11   -1    0    0    0    0  0.00000000000E+00  0.00000000000E+00  0.45593999997E+02  0.45594000000E+02  0.51100000000E-03 0. -1.
         11   -1    0    0    0    0 -0.00000000000E+00 -0.00000000000E+00 -0.45593999997E+02  0.45594000000E+02  0.51100000000E-03 0.  1.
    9900012    2    1    2    0    0  0.29456181772E+02  0.19175850779E+02 -0.20439821537E+02  0.50528853401E+02  0.29999980398E+02 0.  0.
        -12    1    1    2    0    0 -0.29456181772E+02 -0.19175850779E+02  0.20439821537E+02  0.40659146599E+02  0.00000000000E+00 0.  1.
         11    1    3    3    0    0  0.15098786046E+02  0.22579112015E+01 -0.10042657072E+02  0.18273654927E+02  0.51100000000E-03 0. -1.
        -11    1    3    3    0    0  0.13046441943E+02 -0.40508621442E+00 -0.31225424895E+01  0.13421028800E+02  0.51100000000E-03 0.  1.
        -12    1    3    3    0    0  0.13109537837E+01  0.17323025792E+02 -0.72746219749E+01  0.18834169674E+02  0.00000000000E+00 0.  1.
</event>
<event>
 7    1  0.2817603E-011  0.5052885E+02  0.7816164E-02  0.1300439E+00
        -11   -1    0    0    0    0  0.00000000000E+00  0.00000000000E+00  0.45593999997E+02  0.45594000000E+02  0.51100000000E-03 0. -1.
         11   -1    0    0    0    0 -0.00000000000E+00 -0.00000000000E+00 -0.45593999997E+02  0.45594000000E+02  0.51100000000E-03 0.  1.
    9900012    2    1    2    0    0 -0.18634972863E+02  0.27634453964E+02  0.23286068291E+02  0.50528852985E+02  0.29999979134E+02 0.  0.
        -12    1    1    2    0    0  0.18634972863E+02 -0.27634453964E+02 -0.23286068291E+02  0.40659147015E+02  0.00000000000E+00 0.  1.
         11    1    3    3    0    0 -0.52968079621E+01  0.38406310581E+01  0.11727729037E+02  0.13429305646E+02  0.51100000000E-03 0. -1.
        -11    1    3    3    0    0  0.11926803512E+00 -0.17804666355E+01 -0.39268615716E+01  0.43132966937E+01  0.51100000000E-03 0.  1.
        -12    1    3    3    0    0 -0.13457432936E+02  0.25574289541E+02  0.15485200825E+02  0.32786250646E+02  0.00000000000E+00 0.  1.
</event>
<event>
 7    1  0.2817603E-011  0.5052883E+02  0.7816164E-02  0.1300439E+00
        -11   -1    0    0    0    0  0.00000000000E+00  0.00000000000E+00  0.45593999997E+02  0.45594000000E+02  0.51100000000E-03 0.  1.
         11   -1    0    0    0    0 -0.00000000000E+00 -0.00000000000E+00 -0.45593999997E+02  0.45594000000E+02  0.51100000000E-03 0. -1.
    9900012    2    1    2    0    0  0.29956851527E+02 -0.22653629782E+02 -0.15574594131E+02  0.50528832792E+02  0.29999917755E+02 0.  0.
        -12    1    1    2    0    0 -0.29956851527E+02  0.22653629782E+02  0.15574594131E+02  0.40659167208E+02  0.00000000000E+00 0.  1.
         11    1    3    3    0    0  0.31918905987E+01 -0.54858144141E+01  0.44729511933E+01  0.77646389497E+01  0.51100000000E-03 0.  1.
        -11    1    3    3    0    0  0.71956732049E+01 -0.14058373627E+02 -0.19214020072E+01  0.15909348442E+02  0.51100000000E-03 0. -1.
         12    1    3    3    0    0  0.19569287723E+02 -0.31094417407E+01 -0.18126143317E+02  0.26854845401E+02  0.00000000000E+00 0. -1.
</event>
<event>
 7    1  0.2817603E-011  0.5052885E+02  0.7816164E-02  0.1300439E+00
        -11   -1    0    0    0    0  0.00000000000E+00  0.00000000000E+00  0.45593999997E+02  0.45594000000E+02  0.51100000000E-03 0.  1.
         11   -1    0    0    0    0 -0.00000000000E+00 -0.00000000000E+00 -0.45593999997E+02  0.45594000000E+02  0.51100000000E-03 0. -1.
    9900012    2    1    2    0    0  0.10631847187E+02  0.33354135028E+02 -0.20679267082E+02  0.50528848692E+02  0.29999966083E+02 0.  0.
        -12    1    1    2    0    0 -0.10631847187E+02 -0.33354135028E+02  0.20679267082E+02  0.40659151308E+02  0.00000000000E+00 0.  1.
         11    1    3    3    0    0  0.12255337190E+02  0.22537018878E+02 -0.12021942914E+02  0.28330859875E+02  0.51100000000E-03 0. -1.
        -11    1    3    3    0    0  0.77975946557E+01  0.50966835311E+01 -0.50774320001E+01  0.10609381764E+02  0.51100000000E-03 0.  1.
         12    1    3    3    0    0 -0.94210846589E+01  0.57204326181E+01 -0.35798921682E+01  0.11588607053E+02  0.00000000000E+00 0. -1.
</event>
<event>
 7    1  0.2817603E-011  0.5052884E+02  0.7816164E-02  0.1300439E+00
        -11   -1    0    0    0    0  0.00000000000E+00  0.00000000000E+00  0.45593999997E+02  0.45594000000E+02  0.51100000000E-03 0.  1.
         11   -1    0    0    0    0 -0.00000000000E+00 -0.00000000000E+00 -0.45593999997E+02  0.45594000000E+02  0.51100000000E-03 0. -1.
    9900012    2    1    2    0    0 -0.11474392413E+02 -0.20798081808E+02 -0.32999168667E+02  0.50528843333E+02  0.29999949796E+02 0.  0.
        -12    1    1    2    0    0  0.11474392413E+02  0.20798081808E+02  0.32999168667E+02  0.40659156667E+02  0.00000000000E+00 0.  1.
         11    1    3    3    0    0 -0.99074014333E+01 -0.22606225389E+02 -0.23878053054E+02  0.34341803206E+02  0.51100000000E-03 0. -1.
        -11    1    3    3    0    0 -0.38116751989E+01 -0.42019114944E+00 -0.11568691829E+02  0.12187701150E+02  0.51100000000E-03 0.  1.
        -12    1    3    3    0    0  0.22446842195E+01  0.22283347311E+01  0.24475762166E+01  0.39993389773E+01  0.00000000000E+00 0.  1.
</event>
<event>
 7    1  0.2817603E-011  0.5052887E+02  0.7816164E-02  0.1300439E+00
        -11   -1    0    0    0    0  0.00000000000E+00  0.00000000000E+00  0.45593999997E+02  0.45594000000E+02  0.51100000000E-03 0.  1.
         11   -1    0    0    0    0 -0.00000000000E+00 -0.00000000000E+00 -0.45593999997E+02  0.45594000000E+02  0.51100000000E-03 0. -1.
    9900012    2    1    2    0    0  0.59959851149E+01  0.14035022173E+02 -0.37685949548E+02  0.50528874600E+02  0.30000044836E+02 0.  0.
        -12    1    1    2    0    0 -0.59959851149E+01 -0.14035022173E+02  0.37685949548E+02  0.40659125400E+02  0.00000000000E+00 0.  1.
         11    1    3    3    0    0  0.90010833948E+01 -0.29991668866E+01 -0.14001498697E+02  0.16913204023E+02  0.51100000000E-03 0. -1.
        -11    1    3    3    0    0  0.14593297723E-01 -0.21725404944E+01  0.83118723990E+00  0.23261594212E+01  0.51100000000E-03 0.  1.
         12    1    3    3    0    0 -0.30196915776E+01  0.19206729554E+02 -0.24515638091E+02  0.31289511156E+02  0.00000000000E+00 0. -1.
</event>
<event>
 7    1  0.2817603E-011  0.5052888E+02  0.7816164E-02  0.1300439E+00
        -11   -1    0    0    0    0  0.00000000000E+00  0.00000000000E+00  0.45593999997E+02  0.45594000000E+02  0.51100000000E-03 0.  1.
         11   -1    0    0    0    0 -0.00000000000E+00 -0.00000000000E+00 -0.45593999997E+02  0.45594000000E+02  0.51100000000E-03 0. -1.
    9900012    2    1    2    0    0  0.16255661618E+02  0.96911916088E+01 -0.35986082588E+02  0.50528882087E+02  0.30000067590E+02 0.  0.
        -12    1    1    2    0    0 -0.16255661618E+02 -0.96911916088E+01  0.35986082588E+02  0.40659117913E+02  0.00000000000E+00 0.  1.
         11    1    3    3    0    0 -0.47346322139E+01 -0.10719233362E+01 -0.38045462545E+01  0.61676846793E+01  0.51100000000E-03 0.  1.
        -11    1    3    3    0    0 -0.29329610541E+01  0.52002791684E+01 -0.64464453699E+01  0.87864567456E+01  0.51100000000E-03 0. -1.
        -12    1    3    3    0    0  0.23923254886E+02  0.55628357766E+01 -0.25735090964E+02  0.35574740662E+02  0.00000000000E+00 0.  1.
</event>
<event>
 7    1  0.2817603E-011  0.5052884E+02  0.7816164E-02  0.1300439E+00
        -11   -1    0    0    0    0  0.00000000000E+00  0.00000000000E+00  0.45593999997E+02  0.45594000000E+02  0.51100000000E-03 0.  1.
         11   -1    0    0    0    0 -0.00000000000E+00 -0.00000000000E+00 -0.45593999997E+02  0.45594000000E+02  0.51100000000E-03 0. -1.
    9900012    2    1    2    0    0 -0.61184287685E+01 -0.24130977154E+02 -0.32146979331E+02  0.50528837329E+02  0.29999931544E+02 0.  0.
        -12    1    1    2    0    0  0.61184287685E+01  0.24130977154E+02  0.32146979331E+02  0.40659162671E+02  0.00000000000E+00 0.  1.
         11    1    3    3    0    0  0.33782210423E+01 -0.40137343214E+01 -0.10862148201E+02  0.12062698886E+02  0.51100000000E-03 0. -1.
        -11    1    3    3    0    0  0.50335527705E+01 -0.21495150635E+01 -0.12675520377E+02  0.13806733342E+02  0.51100000000E-03 0.  1.
         12    1    3    3    0    0 -0.14530202581E+02 -0.17967727770E+02 -0.86093107529E+01  0.24659405100E+02  0.00000000000E+00 0. -1.
</event>
<event>
 7    1  0.2817603E-011  0.5052886E+02  0.7816164E-02  0.1300439E+00
        -11   -1    0    0    0    0  0.00000000000E+00  0.00000000000E+00  0.45593999997E+02  0.45594000000E+02  0.51100000000E-03 0.  1.
         11   -1    0    0    0    0 -0.00000000000E+00 -0.00000000000E+00 -0.45593999997E+02  0.45594000000E+02  0.51100000000E-03 0. -1.
    9900012    2    1    2    0    0 -0.50945106127E+01  0.89652792248E+01 -0.39329829020E+02  0.50528859322E+02  0.29999998394E+02 0.  0.
        -12    1    1    2    0    0  0.50945106127E+01 -0.89652792248E+01  0.39329829020E+02  0.40659140678E+02  0.00000000000E+00 0.  1.
         11    1    3    3    0    0  0.49007786286E+01 -0.32171078669E+01 -0.84281755021E+01  0.10266526031E+02  0.51100000000E-03 0. -1.
        -11    1    3    3    0    0  0.14425982458E+01 -0.46408900092E+01 -0.29283633461E+01  0.56739987596E+01  0.51100000000E-03 0.  1.
        -12    1    3    3    0    0 -0.11437887487E+02  0.16823277101E+02 -0.27973290172E+02  0.34588334531E+02  0.00000000000E+00 0.  1.
</event>
<event>
 7    1  0.2817603E-011  0.5052886E+02  0.7816164E-02  0.1300439E+00
        -11   -1    0    0    0    0  0.00000000000E+00  0.00000000000E+00  0.45593999997E+02  0.45594000000E+02  0.51100000000E-03 0.  1.
         11   -1    0    0    0    0 -0.00000000000E+00 -0.00000000000E+00 -0.45593999997E+02  0.45594000000E+02  0.51100000000E-03 0. -1.
    9900012    2    1    2    0    0 -0.26554904798E+02 -0.26039685202E+02 -0.16429782097E+02  0.50528856945E+02  0.29999991170E+02 0.  0.
        -12    1    1    2    0    0  0.26554904798E+02  0.26039685202E+02  0.16429782097E+02  0.40659143055E+02  0.00000000000E+00 0.  1.
         11    1    3    3    0    0 -0.11433392377E+02 -0.11068565219E+02 -0.15085593584E+02  0.21927396820E+02  0.51100000000E-03 0. -1.
        -11    1    3    3    0    0 -0.64956565593E+01 -0.85896663138E+01 -0.10091028757E+02  0.14758210703E+02  0.51100000000E-03 0.  1.
        -12    1    3    3    0    0 -0.86258558613E+01 -0.63814536687E+01  0.87468402450E+01  0.13843249421E+02  0.00000000000E+00 0.  1.
</event>
<event>
 7    1  0.2817603E-011  0.5052885E+02  0.7816164E-02  0.1300439E+00
        -11   -1    0    0    0    0  0.00000000000E+00  0.00000000000E+00  0.45593999997E+02  0.45594000000E+02  0.51100000000E-03 0. -1.
         11   -1    0    0    0    0 -0.00000000000E+00 -0.00000000000E+00 -0.45593999997E+02  0.45594000000E+02  0.51100000000E-03 0.  1.
    9900012    2    1    2    0    0 -0.14495232171E+02  0.36380271312E+02  0.10932998755E+02  0.50528851482E+02  0.29999974564E+02 0.  0.
        -12    1    1    2    0    0  0.14495232171E+02 -0.36380271312E+02 -0.10932998755E+02  0.40659148518E+02  0.00000000000E+00 0.  1.
         11    1    3    3    0    0 -0.10365172047E+02  0.12923568276E+02  0.10922986424E+02  0.19843564227E+02  0.51100000000E-03 0. -1.
        -11    1    3    3    0    0 -0.90973590062E+01  0.87801104164E+01  0.60989321485E+01  0.14037423319E+02  0.51100000000E-03 0.  1.
        -12    1    3    3    0    0  0.49672988818E+01  0.14676592620E+02 -0.60889198171E+01  0.16647863937E+02  0.00000000000E+00 0.  1.
</event>
<event>
 7    1  0.2817603E-011  0.5052886E+02  0.7816164E-02  0.1300439E+00
        -11   -1    0    0    0    0  0.00000000000E+00  0.00000000000E+00  0.45593999997E+02  0.45594000000E+02  0.51100000000E-03 0.  1.
         11   -1    0    0    0    0 -0.00000000000E+00 -0.00000000000E+00 -0.45593999997E+02  0.45594000000E+02  0.51100000000E-03 0. -1.
    9900012    2    1    2    0    0  0.14306731949E+02 -0.26554312460E+02 -0.27264475439E+02  0.50528859450E+02  0.29999998785E+02 0.  0.
        -12    1    1    2    0    0 -0.14306731949E+02  0.26554312460E+02  0.27264475439E+02  0.40659140550E+02  0.00000000000E+00 0.  1.
         11    1    3    3    0    0  0.41766731460E+01 -0.22738562445E+02 -0.22105825014E+02  0.31986783528E+02  0.51100000000E-03 0. -1.
        -11    1    3    3    0    0 -0.10604928039E+01  0.35196570707E+01 -0.34707717061E+01  0.50555798262E+01  0.51100000000E-03 0.  1.
         12    1    3    3    0    0  0.11190551607E+02 -0.73354070856E+01 -0.16878787183E+01  0.13486496096E+02  0.00000000000E+00 0. -1.
</event>
<event>
 7    1  0.2817603E-011  0.5052884E+02  0.7816164E-02  0.1300439E+00
        -11   -1    0    0    0    0  0.00000000000E+00  0.00000000000E+00  0.45593999997E+02  0.45594000000E+02  0.51100000000E-03 0. -1.
         11   -1    0    0    0    0 -0.00000000000E+00 -0.00000000000E+00 -0.45593999997E+02  0.45594000000E+02  0.51100000000E-03 0.  1.
    9900012    2    1    2    0    0  0.18429131782E+02 -0.28363683586E+02  0.22561814990E+02  0.50528844323E+02  0.29999952803E+02 0.  0.
        -12    1    1    2    0    0 -0.18429131782E+02  0.28363683586E+02 -0.22561814990E+02  0.40659155677E+02  0.00000000000E+00 0.  1.
         11    1    3    3    0    0 -0.35403265358E+01 -0.24045428299E+01 -0.23524912483E+01  0.48836414216E+01  0.51100000000E-03 0. -1.
        -11    1    3    3    0    0 -0.82841455443E+00 -0.78230664948E+01  0.95144039073E+00  0.79241327055E+01  0.51100000000E-03 0.  1.
         12    1    3    3    0    0  0.22797872872E+02 -0.18136074261E+02  0.23962865847E+02  0.37721070196E+02  0.00000000000E+00 0. -1.
</event>
<event>
 7    1  0.2817603E-011  0.5052887E+02  0.7816164E-02  0.1300439E+00
        -11   -1    0    0    0    0  0.00000000000E+00  0.00000000000E+00  0.45593999997E+02  0.45594000000E+02  0.51100000000E-03 0.  1.
         11   -1    0    0    0    0 -0.00000000000E+00 -0.00000000000E+00 -0.45593999997E+02  0.45594000000E+02  0.51100000000E-03 0. -1.
    9900012    2    1    2    0    0  0.15529404422E+02 -0.34633357680E+02 -0.14578523743E+02  0.50528865474E+02  0.30000017094E+02 0.  0.
        -12    1    1    2    0    0 -0.15529404422E+02  0.34633357680E+02  0.14578523743E+02  0.40659134526E+02  0.00000000000E+00 0.  1.
         11    1    3    3    0    0  0.14437928998E+02 -0.38770458804E+02 -0.95959992186E+01  0.42469818353E+02  0.51100000000E-03 0. -1.
        -11    1    3    3    0    0  0.21197675422E+01  0.14298386191E+01 -0.32901132074E+00  0.25780034173E+01  0.51100000000E-03 0.  1.
        -12    1    3    3    0    0 -0.10282921174E+01  0.27072625053E+01 -0.46535132033E+01  0.54810437040E+01  0.00000000000E+00 0.  1.
</event>
<event>
 7    1  0.2817603E-011  0.5052884E+02  0.7816164E-02  0.1300439E+00
        -11   -1    0    0    0    0  0.00000000000E+00  0.00000000000E+00  0.45593999997E+02  0.45594000000E+02  0.51100000000E-03 0.  1.
         11   -1    0    0    0    0 -0.00000000000E+00 -0.00000000000E+00 -0.45593999997E+02  0.45594000000E+02  0.51100000000E-03 0. -1.
    9900012    2    1    2    0    0  0.25256909616E+02 -0.25183963647E+02 -0.19519831730E+02  0.50528839420E+02  0.29999937901E+02 0.  0.
        -12    1    1    2    0    0 -0.25256909616E+02  0.25183963647E+02  0.19519831730E+02  0.40659160580E+02  0.00000000000E+00 0.  1.
         11    1    3    3    0    0  0.13911959488E+01 -0.25416399339E+01 -0.62812205735E+01  0.69173038010E+01  0.51100000000E-03 0. -1.
        -11    1    3    3    0    0  0.22034886221E+02 -0.60054456949E+01 -0.14120061935E+02  0.26851028622E+02  0.51100000000E-03 0.  1.
        -12    1    3    3    0    0  0.18308274460E+01 -0.16636878018E+02  0.88145077793E+00  0.16760506997E+02  0.00000000000E+00 0.  1.
</event>
<event>
 7    1  0.2817603E-011  0.5052885E+02  0.7816164E-02  0.1300439E+00
        -11   -1    0    0    0    0  0.00000000000E+00  0.00000000000E+00  0.45593999997E+02  0.45594000000E+02  0.51100000000E-03 0. -1.
         11   -1    0    0    0    0 -0.00000000000E+00 -0.00000000000E+00 -0.45593999997E+02  0.45594000000E+02  0.51100000000E-03 0.  1.
    9900012    2    1    2    0    0 -0.29874364908E+02 -0.27317235128E+02 -0.38022644719E+01  0.50528853073E+02  0.29999979402E+02 0.  0.
        -12    1    1    2    0    0  0.29874364908E+02  0.27317235128E+02  0.38022644719E+01  0.40659146927E+02  0.00000000000E+00 0.  1.
         11    1    3    3    0    0 -0.15704973911E+00 -0.58957052655E+01  0.36051500900E+00  0.59088050003E+01  0.51100000000E-03 0. -1.
        -11    1    3    3    0    0  0.28089154297E+01 -0.15809392750E+01 -0.56349457427E+01  0.64916861189E+01  0.51100000000E-03 0.  1.
        -12    1    3    3    0    0 -0.32526230598E+02 -0.19840590588E+02  0.14721662618E+01  0.38128361954E+02  0.00000000000E+00 0.  1.
</event>
<event>
 7    1  0.2817603E-011  0.5052886E+02  0.7816164E-02  0.1300439E+00
        -11   -1    0    0    0    0  0.00000000000E+00  0.00000000000E+00  0.45593999997E+02  0.45594000000E+02  0.51100000000E-03 0.  1.
         11   -1    0    0    0    0 -0.00000000000E+00 -0.00000000000E+00 -0.45593999997E+02  0.45594000000E+02  0.51100000000E-03 0. -1.
    9900012    2    1    2    0    0  0.13744305817E+02  0.97993336105E+01 -0.36989626872E+02  0.50528863539E+02  0.30000011214E+02 0.  0.
        -12    1    1    2    0    0 -0.13744305817E+02 -0.97993336105E+01  0.36989626872E+02  0.40659136461E+02  0.00000000000E+00 0.  1.
         11    1    3    3    0    0 -0.33309490588E+01 -0.11502859746E+01  0.21272081730E+01  0.41162354558E+01  0.51100000000E-03 0. -1.
        -11    1    3    3    0    0 -0.20060001986E+01 -0.11571305419E+01 -0.47070001316E+01  0.52458401032E+01  0.51100000000E-03 0.  1.
         12    1    3    3    0    0  0.19081255075E+02  0.12106750127E+02 -0.34409834913E+02  0.41166787980E+02  0.00000000000E+00 0. -1.
</event>
<event>
 7    1  0.2817603E-011  0.5052886E+02  0.7816164E-02  0.1300439E+00
        -11   -1    0    0    0    0  0.00000000000E+00  0.00000000000E+00  0.45593999997E+02  0.45594000000E+02  0.51100000000E-03 0. -1.
         11   -1    0    0    0    0 -0.00000000000E+00 -0.00000000000E+00 -0.45593999997E+02  0.45594000000E+02  0.51100000000E-03 0.  1.
    9900012    2    1    2    0    0 -0.29370037052E+02 -0.21914330588E+02  0.17616159129E+02  0.50528855592E+02  0.29999987058E+02 0.  0.
        -12    1    1    2    0    0  0.29370037052E+02  0.21914330588E+02 -0.17616159129E+02  0.40659144408E+02  0.00000000000E+00 0.  1.
         11    1    3    3    0    0 -0.98091504329E+01 -0.24765478069E+00  0.39927329412E+01  0.10593520742E+02  0.51100000000E-03 0. -1.
        -11    1    3    3    0    0 -0.17744957251E+02 -0.58606445686E+01 -0.45142799177E+00  0.18693165866E+02  0.51100000000E-03 0.  1.
         12    1    3    3    0    0 -0.18159293673E+01 -0.15806031238E+02  0.14074854179E+02  0.21242168984E+02  0.00000000000E+00 0. -1.
</event>
<event>
 7    1  0.2817603E-011  0.5052886E+02  0.7816164E-02  0.1300439E+00
        -11   -1    0    0    0    0  0.00000000000E+00  0.00000000000E+00  0.45593999997E+02  0.45594000000E+02  0.51100000000E-03 0. -1.
         11   -1    0    0    0    0 -0.00000000000E+00 -0.00000000000E+00 -0.45593999997E+02  0.45594000000E+02  0.51100000000E-03 0.  1.
    9900012    2    1    2    0    0  0.26448759957E+02  0.25362490028E+02  0.17617395289E+02  0.50528863014E+02  0.30000009617E+02 0.  0.
        -12    1    1    2    0    0 -0.26448759957E+02 -0.25362490028E+02 -0.17617395289E+02  0.40659136986E+02  0.00000000000E+00 0.  1.
         11    1    3    3    0    0  0.13050254204E+02  0.89936669323E-01  0.39113515985E+01  0.13624092446E+02  0.51100000000E-03 0. -1.
        -11    1    3    3    0    0  0.13861711864E+02  0.25178517562E+02  0.17122539935E+02  0.33455734583E+02  0.51100000000E-03 0.  1.
         12    1    3    3    0    0 -0.46320611104E+00  0.94035796763E-01 -0.34164962443E+01  0.34490359841E+01  0.00000000000E+00 0. -1.
</event>
<event>
 7    1  0.2817603E-011  0.5052888E+02  0.7816164E-02  0.1300439E+00
        -11   -1    0    0    0    0  0.00000000000E+00  0.00000000000E+00  0.45593999997E+02  0.45594000000E+02  0.51100000000E-03 0.  1.
         11   -1    0    0    0    0 -0.00000000000E+00 -0.00000000000E+00 -0.45593999997E+02  0.45594000000E+02  0.51100000000E-03 0. -1.
    9900012    2    1    2    0    0  0.36922128301E+02 -0.14530572096E+02 -0.88759968006E+01  0.50528875526E+02  0.30000047650E+02 0.  0.
        -12    1    1    2    0    0 -0.36922128301E+02  0.14530572096E+02  0.88759968006E+01  0.40659124474E+02  0.00000000000E+00 0.  1.
         11    1    3    3    0    0  0.61915402263E+01 -0.36189252158E+01  0.22045520435E+01  0.75027888192E+01  0.51100000000E-03 0. -1.
        -11    1    3    3    0    0  0.10223633306E+01 -0.28261526239E+01  0.67909818482E+01  0.74262911441E+01  0.51100000000E-03 0.  1.
         12    1    3    3    0    0  0.29708224745E+02 -0.80854942565E+01 -0.17871530692E+02  0.35599795563E+02  0.00000000000E+00 0. -1.
</event>
<event>
 7    1  0.2817603E-011  0.5052886E+02  0.7816164E-02  0.1300439E+00
        -11   -1    0    0    0    0  0.00000000000E+00  0.00000000000E+00  0.45593999997E+02  0.45594000000E+02  0.51100000000E-03 0. -1.
         11   -1    0    0    0    0 -0.00000000000E+00 -0.00000000000E+00 -0.45593999997E+02  0.45594000000E+02  0.51100000000E-03 0.  1.
    9900012    2    1    2    0    0 -0.21568944344E+02  0.18370242285E+02  0.29162995941E+02  0.50528862110E+02  0.30000006870E+02 0.  0.
        -12    1    1    2    0    0  0.21568944344E+02 -0.18370242285E+02 -0.29162995941E+02  0.40659137890E+02  0.00000000000E+00 0.  1.
         11    1    3    3    0    0 -0.58687102985E+01  0.35332212524E+00  0.26456141263E+01  0.64471599529E+01  0.51100000000E-03 0. -1.
        -11    1    3    3    0    0 -0.51809655423E+01 -0.45055888893E+01 -0.10679078716E+01  0.69486086861E+01  0.51100000000E-03 0.  1.
         12    1    3    3    0    0 -0.10519268503E+02  0.22522509049E+02  0.27585289686E+02  0.37133093471E+02  0.00000000000E+00 0. -1.
</event>
<event>
 7    1  0.2817603E-011  0.5052885E+02  0.7816164E-02  0.1300439E+00
        -11   -1    0    0    0    0  0.00000000000E+00  0.00000000000E+00  0.45593999997E+02  0.45594000000E+02  0.51100000000E-03 0.  1.
         11   -1    0    0    0    0 -0.00000000000E+00 -0.00000000000E+00 -0.45593999997E+02  0.45594000000E+02  0.51100000000E-03 0. -1.
    9900012    2    1    2    0    0  0.28250151621E+02 -0.16024032126E+02 -0.24460701748E+02  0.50528848482E+02  0.29999965445E+02 0.  0.
        -12    1    1    2    0    0 -0.28250151621E+02  0.16024032126E+02  0.24460701748E+02  0.40659151518E+02  0.00000000000E+00 0.  1.
         11    1    3    3    0    0  0.16710585812E+02 -0.81349039815E+01 -0.67524887022E+01  0.19774135756E+02  0.51100000000E-03 0. -1.
        -11    1    3    3    0    0  0.87112888540E+01  0.62497201490E+01 -0.72553943101E+01  0.12945512825E+02  0.51100000000E-03 0.  1.
        -12    1    3    3    0    0  0.28282769552E+01 -0.14138848293E+02 -0.10452818735E+02  0.17809199901E+02  0.00000000000E+00 0.  1.
</event>
<event>
 7    1  0.2817603E-011  0.5052888E+02  0.7816164E-02  0.1300439E+00
        -11   -1    0    0    0    0  0.00000000000E+00  0.00000000000E+00  0.45593999997E+02  0.45594000000E+02  0.51100000000E-03 0.  1.
         11   -1    0    0    0    0 -0.00000000000E+00 -0.00000000000E+00 -0.45593999997E+02  0.45594000000E+02  0.51100000000E-03 0. -1.
    9900012    2    1    2    0    0  0.89341682007E+01  0.36021211710E+02 -0.16607746314E+02  0.50528876889E+02  0.30000051792E+02 0.  0.
        -12    1    1    2    0    0 -0.89341682007E+01 -0.36021211710E+02  0.16607746314E+02  0.40659123111E+02  0.00000000000E+00 0.  1.
         11    1    3    3    0    0 -0.16945894913E+01  0.20887811432E+02 -0.65372600469E+01  0.21952404632E+02  0.51100000000E-03 0.  1.
        -11    1    3    3    0    0  0.89290974343E+01  0.17183947721E+02 -0.13952844940E+02  0.23868362374E+02  0.51100000000E-03 0. -1.
        -12    1    3    3    0    0  0.16996602578E+01 -0.20505474421E+01  0.38823586725E+01  0.47081098825E+01  0.00000000000E+00 0.  1.
</event>
<event>
 7    1  0.2817603E-011  0.5052886E+02  0.7816164E-02  0.1300439E+00
        -11   -1    0    0    0    0  0.00000000000E+00  0.00000000000E+00  0.45593999997E+02  0.45594000000E+02  0.51100000000E-03 0.  1.
         11   -1    0    0    0    0 -0.00000000000E+00 -0.00000000000E+00 -0.45593999997E+02  0.45594000000E+02  0.51100000000E-03 0. -1.
    9900012    2    1    2    0    0 -0.42271926167E+01 -0.23501951312E+02 -0.32908280936E+02  0.50528858014E+02  0.29999994419E+02 0.  0.
        -12    1    1    2    0    0  0.42271926167E+01  0.23501951312E+02  0.32908280936E+02  0.40659141986E+02  0.00000000000E+00 0.  1.
         11    1    3    3    0    0  0.82490306348E+01 -0.99780332129E+01 -0.21706322031E+02  0.25273940523E+02  0.51100000000E-03 0. -1.
        -11    1    3    3    0    0 -0.28705046726E+00 -0.62657827509E+01 -0.88919324359E+01  0.10881585094E+02  0.51100000000E-03 0.  1.
        -12    1    3    3    0    0 -0.12189172784E+02 -0.72581353481E+01 -0.23100264693E+01  0.14373332397E+02  0.00000000000E+00 0.  1.
</event>
<event>
 7    1  0.2817603E-011  0.5052886E+02  0.7816164E-02  0.1300439E+00
        -11   -1    0    0    0    0  0.00000000000E+00  0.00000000000E+00  0.45593999997E+02  0.45594000000E+02  0.51100000000E-03 0.  1.
         11   -1    0    0    0    0 -0.00000000000E+00 -0.00000000000E+00 -0.45593999997E+02  0.45594000000E+02  0.51100000000E-03 0. -1.
    9900012    2    1    2    0    0 -0.23844459710E+02  0.18834134586E+02 -0.27016348462E+02  0.50528856272E+02  0.29999989125E+02 0.  0.
        -12    1    1    2    0    0  0.23844459710E+02 -0.18834134586E+02  0.27016348462E+02  0.40659143728E+02  0.00000000000E+00 0.  1.
         11    1    3    3    0    0  0.32429136172E+01  0.26133838225E+01 -0.82444728568E+01  0.92367524964E+01  0.51100000000E-03 0. -1.
        -11    1    3    3    0    0 -0.63554567114E+00  0.92642687244E+01 -0.32193289524E+01  0.98282588724E+01  0.51100000000E-03 0.  1.
         12    1    3    3    0    0 -0.26451827656E+02  0.69564820390E+01 -0.15552546653E+02  0.31463844903E+02  0.00000000000E+00 0. -1.
</event>
<event>
 7    1  0.2817603E-011  0.5052886E+02  0.7816164E-02  0.1300439E+00
        -11   -1    0    0    0    0  0.00000000000E+00  0.00000000000E+00  0.45593999997E+02  0.45594000000E+02  0.51100000000E-03 0. -1.
         11   -1    0    0    0    0 -0.00000000000E+00 -0.00000000000E+00 -0.45593999997E+02  0.45594000000E+02  0.51100000000E-03 0.  1.
    9900012    2    1    2    0    0  0.50716508968E+01  0.39352358423E+02  0.88789521830E+01  0.50528861444E+02  0.30000004844E+02 0.  0.
        -12    1    1    2    0    0 -0.50716508968E+01 -0.39352358423E+02 -0.88789521830E+01  0.40659138556E+02  0.00000000000E+00 0.  1.
         11    1    3    3    0    0  0.92092910480E+00  0.47898541170E+00 -0.40039445843E+01  0.41363159860E+01  0.51100000000E-03 0. -1.
        -11    1    3    3    0    0  0.28779379411E+01  0.18333308970E+02 -0.49005057843E+01  0.19193949614E+02  0.51100000000E-03 0.  1.
         12    1    3    3    0    0  0.12727838509E+01  0.20540064042E+02  0.17783402552E+02  0.27198595844E+02  0.00000000000E+00 0. -1.
</event>
<event>
 7    1  0.2817603E-011  0.5052886E+02  0.7816164E-02  0.1300439E+00
        -11   -1    0    0    0    0  0.00000000000E+00  0.00000000000E+00  0.45593999997E+02  0.45594000000E+02  0.51100000000E-03 0.  1.
         11   -1    0    0    0    0 -0.00000000000E+00 -0.00000000000E+00 -0.45593999997E+02  0.45594000000E+02  0.51100000000E-03 0. -1.
    9900012    2    1    2    0    0 -0.28185154873E+02  0.25273101674E+02  0.14833506745E+02  0.50528861473E+02  0.30000004933E+02 0.  0.
        -12    1    1    2    0    0  0.28185154873E+02 -0.25273101674E+02 -0.14833506745E+02  0.40659138527E+02  0.00000000000E+00 0.  1.
         11    1    3    3    0    0 -0.88584803259E+01  0.18449505634E+00 -0.12159884712E+01  0.89434523721E+01  0.51100000000E-03 0. -1.
        -11    1    3    3    0    0 -0.21356987709E+00  0.18298135433E+01  0.10886610158E+02  0.11041381738E+02  0.51100000000E-03 0.  1.
         12    1    3    3    0    0 -0.19113104670E+02  0.23258793074E+02  0.51628850577E+01  0.30544027362E+02  0.00000000000E+00 0. -1.
</event>
<event>
 7    1  0.2817603E-011  0.5052886E+02  0.7816164E-02  0.1300439E+00
        -11   -1    0    0    0    0  0.00000000000E+00  0.00000000000E+00  0.45593999997E+02  0.45594000000E+02  0.51100000000E-03 0. -1.
         11   -1    0    0    0    0 -0.00000000000E+00 -0.00000000000E+00 -0.45593999997E+02  0.45594000000E+02  0.51100000000E-03 0.  1.
    9900012    2    1    2    0    0  0.16630381711E+02  0.10362471253E+02  0.35626042465E+02  0.50528864396E+02  0.30000013819E+02 0.  0.
        -12    1    1    2    0    0 -0.16630381711E+02 -0.10362471253E+02 -0.35626042465E+02  0.40659135604E+02  0.00000000000E+00 0.  1.
         11    1    3    3    0    0  0.11977066097E+02  0.24011701672E+00  0.18398502772E+01  0.12119934727E+02  0.51100000000E-03 0.  1.
        -11    1    3    3    0    0  0.21578958745E+00 -0.40536094930E+00 -0.13689745090E+01  0.14439439438E+01  0.51100000000E-03 0. -1.
         12    1    3    3    0    0  0.44375260269E+01  0.10527715185E+02  0.35155166697E+02  0.36964985726E+02  0.00000000000E+00 0. -1.
</event>
<event>
 7    1  0.2817603E-011  0.5052886E+02  0.7816164E-02  0.1300439E+00
        -11   -1    0    0    0    0  0.00000000000E+00  0.00000000000E+00  0.45593999997E+02  0.45594000000E+02  0.51100000000E-03 0.  1.
         11   -1    0    0    0    0 -0.00000000000E+00 -0.00000000000E+00 -0.45593999997E+02  0.45594000000E+02  0.51100000000E-03 0. -1.
    9900012    2    1    2    0    0  0.33693536888E+02 -0.11880284597E+02 -0.19410567899E+02  0.50528859130E+02  0.29999997810E+02 0.  0.
        -12    1    1    2    0    0 -0.33693536888E+02  0.11880284597E+02  0.19410567899E+02  0.40659140870E+02  0.00000000000E+00 0.  1.
         11    1    3    3    0    0 -0.35461545365E+01  0.17715535693E+01 -0.19711389106E+01  0.44270761131E+01  0.51100000000E-03 0. -1.
        -11    1    3    3    0    0  0.10345246679E+02  0.40245799156E+00  0.13035287831E+01  0.10434811394E+02  0.51100000000E-03 0.  1.
         12    1    3    3    0    0  0.26894444746E+02 -0.14054296158E+02 -0.18742957772E+02  0.35666971623E+02  0.00000000000E+00 0. -1.
</event>
<event>
 7    1  0.2817603E-011  0.5052888E+02  0.7816164E-02  0.1300439E+00
        -11   -1    0    0    0    0  0.00000000000E+00  0.00000000000E+00  0.45593999997E+02  0.45594000000E+02  0.51100000000E-03 0.  1.
         11   -1    0    0    0    0 -0.00000000000E+00 -0.00000000000E+00 -0.45593999997E+02  0.45594000000E+02  0.51100000000E-03 0. -1.
    9900012    2    1    2    0    0 -0.40334930953E+02  0.50772468303E+01 -0.69218374786E+00  0.50528877915E+02  0.30000054910E+02 0.  0.
        -12    1    1    2    0    0  0.40334930953E+02 -0.50772468303E+01  0.69218374786E+00  0.40659122085E+02  0.00000000000E+00 0.  1.
         11    1    3    3    0    0 -0.15863685466E+02  0.11837995593E+02 -0.42360081876E+01  0.20241996489E+02  0.51100000000E-03 0. -1.
        -11    1    3    3    0    0 -0.79998689847E+01  0.45471137902E+01  0.45841107470E+01  0.10280477576E+02  0.51100000000E-03 0.  1.
        -12    1    3    3    0    0 -0.16471376503E+02 -0.11307862553E+02 -0.10402863073E+01  0.20006403850E+02  0.00000000000E+00 0.  1.
</event>
<event>
 7    1  0.2817603E-011  0.5052886E+02  0.7816164E-02  0.1300439E+00
        -11   -1    0    0    0    0  0.00000000000E+00  0.00000000000E+00  0.45593999997E+02  0.45594000000E+02  0.51100000000E-03 0.  1.
         11   -1    0    0    0    0 -0.00000000000E+00 -0.00000000000E+00 -0.45593999997E+02  0.45594000000E+02  0.51100000000E-03 0. -1.
    9900012    2    1    2    0    0 -0.84666456579E+01  0.20448299592E+02 -0.34107900783E+02  0.50528856615E+02  0.29999990168E+02 0.  0.
        -12    1    1    2    0    0  0.84666456579E+01 -0.20448299592E+02  0.34107900783E+02  0.40659143385E+02  0.00000000000E+00 0.  1.
         11    1    3    3    0    0  0.74902322295E+01  0.55661618604E+01 -0.45390460292E+01  0.10377315444E+02  0.51100000000E-03 0. -1.
        -11    1    3    3    0    0 -0.73019220987E+01  0.16739234639E+02 -0.18772130226E+02  0.26189939216E+02  0.51100000000E-03 0.  1.
         12    1    3    3    0    0 -0.86549557887E+01 -0.18570969074E+01 -0.10796724528E+02  0.13961601955E+02  0.00000000000E+00 0. -1.
</event>
<event>
 7    1  0.2817603E-011  0.5052887E+02  0.7816164E-02  0.1300439E+00
        -11   -1    0    0    0    0  0.00000000000E+00  0.00000000000E+00  0.45593999997E+02  0.45594000000E+02  0.51100000000E-03 0. -1.
         11   -1    0    0    0    0 -0.00000000000E+00 -0.00000000000E+00 -0.45593999997E+02  0.45594000000E+02  0.51100000000E-03 0.  1.
    9900012    2    1    2    0    0 -0.38538722496E+02 -0.33568539159E+00  0.12954511297E+02  0.50528865980E+02  0.30000018633E+02 0.  0.
        -12    1    1    2    0    0  0.38538722496E+02  0.33568539159E+00 -0.12954511297E+02  0.40659134020E+02  0.00000000000E+00 0.  1.
         11    1    3    3    0    0 -0.14476508416E+02  0.79337934926E+00  0.69200850399E+00  0.14514738121E+02  0.51100000000E-03 0. -1.
        -11    1    3    3    0    0 -0.20308429940E+02 -0.69807877341E+01 -0.50038379031E+00  0.21480551860E+02  0.51100000000E-03 0.  1.
         12    1    3    3    0    0 -0.37537841401E+01  0.58517229932E+01  0.12762886583E+02  0.14533575998E+02  0.00000000000E+00 0. -1.
</event>
<event>
 7    1  0.2817603E-011  0.5052886E+02  0.7816164E-02  0.1300439E+00
        -11   -1    0    0    0    0  0.00000000000E+00  0.00000000000E+00  0.45593999997E+02  0.45594000000E+02  0.51100000000E-03 0. -1.
         11   -1    0    0    0    0 -0.00000000000E+00 -0.00000000000E+00 -0.45593999997E+02  0.45594000000E+02  0.51100000000E-03 0.  1.
    9900012    2    1    2    0    0  0.37245482892E+02 -0.14092687804E+02  0.82058494411E+01  0.50528858218E+02  0.29999995040E+02 0.  0.
        -12    1    1    2    0    0 -0.37245482892E+02  0.14092687804E+02 -0.82058494411E+01  0.40659141782E+02  0.00000000000E+00 0.  1.
         11    1    3    3    0    0 -0.28875666457E+01 -0.25643788736E+01  0.30335645462E+01  0.49108649195E+01  0.51100000000E-03 0.  1.
        -11    1    3    3    0    0  0.20037189110E+02 -0.13814753022E+02  0.69600913670E+01  0.25313617295E+02  0.51100000000E-03 0. -1.
         12    1    3    3    0    0  0.20095860427E+02  0.22864440914E+01 -0.17878064721E+01  0.20304376003E+02  0.00000000000E+00 0. -1.
</event>
<event>
 7    1  0.2817603E-011  0.5052887E+02  0.7816164E-02  0.1300439E+00
        -11   -1    0    0    0    0  0.00000000000E+00  0.00000000000E+00  0.45593999997E+02  0.45594000000E+02  0.51100000000E-03 0.  1.
         11   -1    0    0    0    0 -0.00000000000E+00 -0.00000000000E+00 -0.45593999997E+02  0.45594000000E+02  0.51100000000E-03 0. -1.
    9900012    2    1    2    0    0  0.35195654977E+02 -0.58236248509E+01 -0.19506829877E+02  0.50528866370E+02  0.30000019818E+02 0.  0.
        -12    1    1    2    0    0 -0.35195654977E+02  0.58236248509E+01  0.19506829877E+02  0.40659133630E+02  0.00000000000E+00 0.  1.
         11    1    3    3    0    0  0.28675102096E+02 -0.29648181426E+01 -0.92922372534E+01  0.30288567155E+02  0.51100000000E-03 0. -1.
        -11    1    3    3    0    0  0.43446000140E+01 -0.44285047523E+01  0.29042123905E+01  0.68499382109E+01  0.51100000000E-03 0.  1.
        -12    1    3    3    0    0  0.21759528672E+01  0.15696980440E+01 -0.13118805014E+02  0.13390361005E+02  0.00000000000E+00 0.  1.
</event>
<event>
 7    1  0.2817603E-011  0.5052886E+02  0.7816164E-02  0.1300439E+00
        -11   -1    0    0    0    0  0.00000000000E+00  0.00000000000E+00  0.45593999997E+02  0.45594000000E+02  0.51100000000E-03 0.  1.
         11   -1    0    0    0    0 -0.00000000000E+00 -0.00000000000E+00 -0.45593999997E+02  0.45594000000E+02  0.51100000000E-03 0. -1.
    9900012    2    1    2    0    0 -0.28622841054E+02  0.25198109667E+02 -0.14105090360E+02  0.50528864066E+02  0.30000012815E+02 0.  0.
        -12    1    1    2    0    0  0.28622841054E+02 -0.25198109667E+02  0.14105090360E+02  0.40659135934E+02  0.00000000000E+00 0.  1.
         11    1    3    3    0    0 -0.91568209280E+01  0.99793301244E+01 -0.98402241372E+01  0.16741099443E+02  0.51100000000E-03 0. -1.
        -11    1    3    3    0    0 -0.13576666247E+02  0.20823385037E+02 -0.57710089639E+01  0.25519478355E+02  0.51100000000E-03 0.  1.
        -12    1    3    3    0    0 -0.58893538789E+01 -0.56046054938E+01  0.15061427409E+01  0.82682862679E+01  0.00000000000E+00 0.  1.
</event>
<event>
 7    1  0.2817603E-011  0.5052888E+02  0.7816164E-02  0.1300439E+00
        -11   -1    0    0    0    0  0.00000000000E+00  0.00000000000E+00  0.45593999997E+02  0.45594000000E+02  0.51100000000E-03 0.  1.
         11   -1    0    0    0    0 -0.00000000000E+00 -0.00000000000E+00 -0.45593999997E+02  0.45594000000E+02  0.51100000000E-03 0. -1.
    9900012    2    1    2    0    0 -0.16729123323E+00  0.10005705707E+02 -0.39408402695E+02  0.50528876349E+02  0.30000050151E+02 0.  0.
        -12    1    1    2    0    0  0.16729123323E+00 -0.10005705707E+02  0.39408402695E+02  0.40659123651E+02  0.00000000000E+00 0.  1.
         11    1    3    3    0    0 -0.37994936473E+01  0.16672253129E+02 -0.14883120397E+02  0.22669526889E+02  0.51100000000E-03 0. -1.
        -11    1    3    3    0    0  0.59235485736E+01 -0.38511657925E+01 -0.69413862661E+01  0.99046831964E+01  0.51100000000E-03 0.  1.
        -12    1    3    3    0    0 -0.22913461595E+01 -0.28153816297E+01 -0.17583896033E+02  0.17954666263E+02  0.00000000000E+00 0.  1.
</event>
<event>
 7    1  0.2817603E-011  0.5052886E+02  0.7816164E-02  0.1300439E+00
        -11   -1    0    0    0    0  0.00000000000E+00  0.00000000000E+00  0.45593999997E+02  0.45594000000E+02  0.51100000000E-03 0.  1.
         11   -1    0    0    0    0 -0.00000000000E+00 -0.00000000000E+00 -0.45593999997E+02  0.45594000000E+02  0.51100000000E-03 0. -1.
    9900012    2    1    2    0    0 -0.14344098540E+02 -0.16050018298E+02 -0.34493615384E+02  0.50528858930E+02  0.29999997202E+02 0.  0.
        -12    1    1    2    0    0  0.14344098540E+02  0.16050018298E+02  0.34493615384E+02  0.40659141070E+02  0.00000000000E+00 0.  1.
         11    1    3    3    0    0 -0.56779063489E+01 -0.73380732699E+01 -0.40288250666E+01  0.10115204966E+02  0.51100000000E-03 0. -1.
        -11    1    3    3    0    0 -0.37381196651E+01 -0.13126468718E+02 -0.57180920762E+01  0.14797780134E+02  0.51100000000E-03 0.  1.
        -12    1    3    3    0    0 -0.49280725256E+01  0.44145236894E+01 -0.24746698242E+02  0.25615873830E+02  0.00000000000E+00 0.  1.
</event>
<event>
 7    1  0.2817603E-011  0.5052886E+02  0.7816164E-02  0.1300439E+00
        -11   -1    0    0    0    0  0.00000000000E+00  0.00000000000E+00  0.45593999997E+02  0.45594000000E+02  0.51100000000E-03 0.  1.
         11   -1    0    0    0    0 -0.00000000000E+00 -0.00000000000E+00 -0.45593999997E+02  0.45594000000E+02  0.51100000000E-03 0. -1.
    9900012    2    1    2    0    0  0.13104835928E+02  0.19655639117E+02 -0.33092066957E+02  0.50528858724E+02  0.29999996578E+02 0.  0.
        -12    1    1    2    0    0 -0.13104835928E+02 -0.19655639117E+02  0.33092066957E+02  0.40659141276E+02  0.00000000000E+00 0.  1.
         11    1    3    3    0    0  0.68738431393E+01  0.20870884717E+02 -0.18403811331E+02  0.28662585720E+02  0.51100000000E-03 0. -1.
        -11    1    3    3    0    0 -0.14909111846E+01  0.46730239387E+01 -0.98792586733E+01  0.11029946559E+02  0.51100000000E-03 0.  1.
        -12    1    3    3    0    0  0.77219039737E+01 -0.58882695387E+01 -0.48089969520E+01  0.10836326445E+02  0.00000000000E+00 0.  1.
</event>
<event>
 7    1  0.2817603E-011  0.5052884E+02  0.7816164E-02  0.1300439E+00
        -11   -1    0    0    0    0  0.00000000000E+00  0.00000000000E+00  0.45593999997E+02  0.45594000000E+02  0.51100000000E-03 0.  1.
         11   -1    0    0    0    0 -0.00000000000E+00 -0.00000000000E+00 -0.45593999997E+02  0.45594000000E+02  0.51100000000E-03 0. -1.
    9900012    2    1    2    0    0 -0.63695210526E+01  0.39665570821E+02  0.62640750385E+01  0.50528844290E+02  0.29999952703E+02 0.  0.
        -12    1    1    2    0    0  0.63695210526E+01 -0.39665570821E+02 -0.62640750385E+01  0.40659155710E+02  0.00000000000E+00 0.  1.
         11    1    3    3    0    0  0.28243919404E+01  0.16974565813E+02 -0.22252264170E+01  0.17351216305E+02  0.51100000000E-03 0.  1.
        -11    1    3    3    0    0  0.63347121041E+01  0.49457384977E+01 -0.22155050500E+00  0.80397755949E+01  0.51100000000E-03 0. -1.
        -12    1    3    3    0    0 -0.15528625097E+02  0.17745266510E+02  0.87108519605E+01  0.25137852390E+02  0.00000000000E+00 0.  1.
</event>
<event>
 7    1  0.2817603E-011  0.5052887E+02  0.7816164E-02  0.1300439E+00
        -11   -1    0    0    0    0  0.00000000000E+00  0.00000000000E+00  0.45593999997E+02  0.45594000000E+02  0.51100000000E-03 0. -1.
         11   -1    0    0    0    0 -0.00000000000E+00 -0.00000000000E+00 -0.45593999997E+02  0.45594000000E+02  0.51100000000E-03 0.  1.
    9900012    2    1    2    0    0  0.32209401952E+02  0.10203328198E+01  0.24792709639E+02  0.50528866901E+02  0.30000021431E+02 0.  0.
        -12    1    1    2    0    0 -0.32209401952E+02 -0.10203328198E+01 -0.24792709639E+02  0.40659133099E+02  0.00000000000E+00 0.  1.
         11    1    3    3    0    0 -0.14471639450E+00  0.35496949998E+01  0.46092709842E+01  0.58195065678E+01  0.51100000000E-03 0. -1.
        -11    1    3    3    0    0  0.76348307504E+01  0.96127149985E+01  0.75298723604E+01  0.14401177322E+02  0.51100000000E-03 0.  1.
         12    1    3    3    0    0  0.24719287596E+02 -0.12142077179E+02  0.12653566294E+02  0.30308183011E+02  0.00000000000E+00 0. -1.
</event>
<event>
 7    1  0.2817603E-011  0.5052886E+02  0.7816164E-02  0.1300439E+00
        -11   -1    0    0    0    0  0.00000000000E+00  0.00000000000E+00  0.45593999997E+02  0.45594000000E+02  0.51100000000E-03 0.  1.
         11   -1    0    0    0    0 -0.00000000000E+00 -0.00000000000E+00 -0.45593999997E+02  0.45594000000E+02  0.51100000000E-03 0. -1.
    9900012    2    1    2    0    0 -0.20534330034E+02 -0.34525381191E+02 -0.62852941084E+01  0.50528861072E+02  0.30000003715E+02 0.  0.
        -12    1    1    2    0    0  0.20534330034E+02  0.34525381191E+02  0.62852941084E+01  0.40659138928E+02  0.00000000000E+00 0.  1.
         11    1    3    3    0    0 -0.16370931989E+02 -0.84796332490E+01 -0.11186891120E+01  0.18470599877E+02  0.51100000000E-03 0.  1.
        -11    1    3    3    0    0 -0.38052559701E+01  0.14999112544E+01 -0.75381918249E+00  0.41590804741E+01  0.51100000000E-03 0. -1.
         12    1    3    3    0    0 -0.35814207533E+00 -0.27545659196E+02 -0.44127858139E+01  0.27899180721E+02  0.00000000000E+00 0. -1.
</event>
<event>
 7    1  0.2817603E-011  0.5052884E+02  0.7816164E-02  0.1300439E+00
        -11   -1    0    0    0    0  0.00000000000E+00  0.00000000000E+00  0.45593999997E+02  0.45594000000E+02  0.51100000000E-03 0.  1.
         11   -1    0    0    0    0 -0.00000000000E+00 -0.00000000000E+00 -0.45593999997E+02  0.45594000000E+02  0.51100000000E-03 0. -1.
    9900012    2    1    2    0    0  0.25906330413E+02 -0.23849327738E+02 -0.20328276980E+02  0.50528840712E+02  0.29999941827E+02 0.  0.
        -12    1    1    2    0    0 -0.25906330413E+02  0.23849327738E+02  0.20328276980E+02  0.40659159288E+02  0.00000000000E+00 0.  1.
         11    1    3    3    0    0 -0.37756960831E+01 -0.94602355427E+01 -0.18782755785E+01  0.10357598990E+02  0.51100000000E-03 0. -1.
        -11    1    3    3    0    0  0.36717866653E+00 -0.49852284758E+00  0.18181431517E+01  0.19206743565E+01  0.51100000000E-03 0.  1.
         12    1    3    3    0    0  0.29314847830E+02 -0.13890569348E+02 -0.20268144553E+02  0.38250567365E+02  0.00000000000E+00 0. -1.
</event>
<event>
 7    1  0.2817603E-011  0.5052886E+02  0.7816164E-02  0.1300439E+00
        -11   -1    0    0    0    0  0.00000000000E+00  0.00000000000E+00  0.45593999997E+02  0.45594000000E+02  0.51100000000E-03 0.  1.
         11   -1    0    0    0    0 -0.00000000000E+00 -0.00000000000E+00 -0.45593999997E+02  0.45594000000E+02  0.51100000000E-03 0. -1.
    9900012    2    1    2    0    0  0.21552235564E+02 -0.26809827612E+02 -0.21677184016E+02  0.50528855626E+02  0.29999987160E+02 0.  0.
        -12    1    1    2    0    0 -0.21552235564E+02  0.26809827612E+02  0.21677184016E+02  0.40659144374E+02  0.00000000000E+00 0.  1.
         11    1    3    3    0    0  0.16568509788E+02 -0.19088714103E+02 -0.84213046704E+01  0.26642314001E+02  0.51100000000E-03 0. -1.
        -11    1    3    3    0    0 -0.29085244273E+01 -0.80347788168E+01 -0.10456830615E+00  0.85456491719E+01  0.51100000000E-03 0.  1.
        -12    1    3    3    0    0  0.78922502029E+01  0.31366530791E+00 -0.13151311039E+02  0.15340892453E+02  0.00000000000E+00 0.  1.
</event>
<event>
 7    1  0.2817603E-011  0.5052886E+02  0.7816164E-02  0.1300439E+00
        -11   -1    0    0    0    0  0.00000000000E+00  0.00000000000E+00  0.45593999997E+02  0.45594000000E+02  0.51100000000E-03 0.  1.
         11   -1    0    0    0    0 -0.00000000000E+00 -0.00000000000E+00 -0.45593999997E+02  0.45594000000E+02  0.51100000000E-03 0. -1.
    9900012    2    1    2    0    0 -0.23608283888E+02  0.17501704782E+02 -0.28098136422E+02  0.50528855779E+02  0.29999987625E+02 0.  0.
        -12    1    1    2    0    0  0.23608283888E+02 -0.17501704782E+02  0.28098136422E+02  0.40659144221E+02  0.00000000000E+00 0.  1.
         11    1    3    3    0    0 -0.55140914882E+00 -0.19931475708E-01 -0.18230466222E+02  0.18238814332E+02  0.51100000000E-03 0. -1.
        -11    1    3    3    0    0 -0.36694274597E+01  0.84773039831E+01 -0.42699039143E+01  0.10176515140E+02  0.51100000000E-03 0.  1.
        -12    1    3    3    0    0 -0.19387447279E+02  0.90443322744E+01 -0.55977662859E+01  0.22113526306E+02  0.00000000000E+00 0.  1.
</event>
<event>
 7    1  0.2817603E-011  0.5052882E+02  0.7816164E-02  0.1300439E+00
        -11   -1    0    0    0    0  0.00000000000E+00  0.00000000000E+00  0.45593999997E+02  0.45594000000E+02  0.51100000000E-03 0. -1.
         11   -1    0    0    0    0 -0.00000000000E+00 -0.00000000000E+00 -0.45593999997E+02  0.45594000000E+02  0.51100000000E-03 0.  1.
    9900012    2    1    2    0    0  0.50510847382E+01  0.34751866723E+02  0.20493014005E+02  0.50528815050E+02  0.29999863827E+02 0.  0.
        -12    1    1    2    0    0 -0.50510847382E+01 -0.34751866723E+02 -0.20493014005E+02  0.40659184950E+02  0.00000000000E+00 0.  1.
         11    1    3    3    0    0 -0.30188337581E+01  0.38513335924E+01  0.27593855040E+01  0.56178586952E+01  0.51100000000E-03 0. -1.
        -11    1    3    3    0    0  0.12789416440E+02  0.32490230331E+02  0.11145779784E+02  0.36652594002E+02  0.51100000000E-03 0.  1.
         12    1    3    3    0    0 -0.47194979434E+01 -0.15896972005E+01  0.65878487177E+01  0.82583623530E+01  0.00000000000E+00 0. -1.
</event>
<event>
 7    1  0.2817603E-011  0.5052887E+02  0.7816164E-02  0.1300439E+00
        -11   -1    0    0    0    0  0.00000000000E+00  0.00000000000E+00  0.45593999997E+02  0.45594000000E+02  0.51100000000E-03 0.  1.
         11   -1    0    0    0    0 -0.00000000000E+00 -0.00000000000E+00 -0.45593999997E+02  0.45594000000E+02  0.51100000000E-03 0. -1.
    9900012    2    1    2    0    0  0.31299987932E+02  0.23744405039E+02  0.10472781229E+02  0.50528866194E+02  0.30000019284E+02 0.  0.
        -12    1    1    2    0    0 -0.31299987932E+02 -0.23744405039E+02 -0.10472781229E+02  0.40659133806E+02  0.00000000000E+00 0.  1.
         11    1    3    3    0    0  0.65824987941E+01  0.10429520532E+02  0.10620023306E+02  0.16275413487E+02  0.51100000000E-03 0. -1.
        -11    1    3    3    0    0  0.17896094837E+02  0.18449812535E+02  0.27569419024E+00  0.25704898376E+02  0.51100000000E-03 0.  1.
         12    1    3    3    0    0  0.68213943002E+01 -0.51349280283E+01 -0.42293626677E+00  0.85485543305E+01  0.00000000000E+00 0. -1.
</event>
<event>
 7    1  0.2817603E-011  0.5052886E+02  0.7816164E-02  0.1300439E+00
        -11   -1    0    0    0    0  0.00000000000E+00  0.00000000000E+00  0.45593999997E+02  0.45594000000E+02  0.51100000000E-03 0. -1.
         11   -1    0    0    0    0 -0.00000000000E+00 -0.00000000000E+00 -0.45593999997E+02  0.45594000000E+02  0.51100000000E-03 0.  1.
    9900012    2    1    2    0    0  0.10546117711E+02  0.23308107255E+02  0.31601854198E+02  0.50528860175E+02  0.30000000987E+02 0.  0.
        -12    1    1    2    0    0 -0.10546117711E+02 -0.23308107255E+02 -0.31601854198E+02  0.40659139825E+02  0.00000000000E+00 0.  1.
         11    1    3    3    0    0  0.50355002830E+01  0.14194379135E+02  0.27607868142E+02  0.31448863982E+02  0.51100000000E-03 0. -1.
        -11    1    3    3    0    0 -0.38249380729E+01 -0.17320848893E+01  0.19316961891E+01  0.46218740521E+01  0.51100000000E-03 0.  1.
         12    1    3    3    0    0  0.93355555014E+01  0.10845813009E+02  0.20622898666E+01  0.14458122141E+02  0.00000000000E+00 0. -1.
</event>
<event>
 7    1  0.2817603E-011  0.5052885E+02  0.7816164E-02  0.1300439E+00
        -11   -1    0    0    0    0  0.00000000000E+00  0.00000000000E+00  0.45593999997E+02  0.45594000000E+02  0.51100000000E-03 0.  1.
         11   -1    0    0    0    0 -0.00000000000E+00 -0.00000000000E+00 -0.45593999997E+02  0.45594000000E+02  0.51100000000E-03 0. -1.
    9900012    2    1    2    0    0  0.24182938829E+02  0.28677618559E+02 -0.15682662867E+02  0.50528852798E+02  0.29999978563E+02 0.  0.
        -12    1    1    2    0    0 -0.24182938829E+02 -0.28677618559E+02  0.15682662867E+02  0.40659147202E+02  0.00000000000E+00 0.  1.
         11    1    3    3    0    0  0.41336366826E+01 -0.67410293223E-01  0.12506098219E+01  0.43192038108E+01  0.51100000000E-03 0. -1.
        -11    1    3    3    0    0  0.33824373516E+00  0.12770173373E+02  0.39257401448E+01  0.13364249801E+02  0.51100000000E-03 0.  1.
         12    1    3    3    0    0  0.19711058412E+02  0.15974855479E+02 -0.20859012833E+02  0.32845399186E+02  0.00000000000E+00 0. -1.
</event>
<event>
 7    1  0.2817603E-011  0.5052887E+02  0.7816164E-02  0.1300439E+00
        -11   -1    0    0    0    0  0.00000000000E+00  0.00000000000E+00  0.45593999997E+02  0.45594000000E+02  0.51100000000E-03 0.  1.
         11   -1    0    0    0    0 -0.00000000000E+00 -0.00000000000E+00 -0.45593999997E+02  0.45594000000E+02  0.51100000000E-03 0. -1.
    9900012    2    1    2    0    0 -0.38904034732E+02 -0.35890003636E+01 -0.11258784464E+02  0.50528867328E+02  0.30000022729E+02 0.  0.
        -12    1    1    2    0    0  0.38904034732E+02  0.35890003636E+01  0.11258784464E+02  0.40659132672E+02  0.00000000000E+00 0.  1.
         11    1    3    3    0    0 -0.32612175543E+02 -0.56910487194E+01 -0.16660898642E+02  0.37061132915E+02  0.51100000000E-03 0. -1.
        -11    1    3    3    0    0 -0.51754392967E+00 -0.37422386965E+01  0.32281808254E+01  0.49692407753E+01  0.51100000000E-03 0.  1.
        -12    1    3    3    0    0 -0.57743152600E+01  0.58442870523E+01  0.21739333526E+01  0.84984936367E+01  0.00000000000E+00 0.  1.
</event>
<event>
 7    1  0.2817603E-011  0.5052888E+02  0.7816164E-02  0.1300439E+00
        -11   -1    0    0    0    0  0.00000000000E+00  0.00000000000E+00  0.45593999997E+02  0.45594000000E+02  0.51100000000E-03 0. -1.
         11   -1    0    0    0    0 -0.00000000000E+00 -0.00000000000E+00 -0.45593999997E+02  0.45594000000E+02  0.51100000000E-03 0.  1.
    9900012    2    1    2    0    0  0.23658453342E+02 -0.79222256259E+01  0.32104205960E+02  0.50528879083E+02  0.30000058461E+02 0.  0.
        -12    1    1    2    0    0 -0.23658453342E+02  0.79222256259E+01 -0.32104205960E+02  0.40659120917E+02  0.00000000000E+00 0.  1.
         11    1    3    3    0    0  0.16199517587E+02  0.42862202205E+01  0.16327476629E+02  0.23396207965E+02  0.51100000000E-03 0. -1.
        -11    1    3    3    0    0  0.12109257442E+02 -0.55625742046E+01  0.12842622572E+02  0.18507006845E+02  0.51100000000E-03 0.  1.
        -12    1    3    3    0    0 -0.46503216868E+01 -0.66458716419E+01  0.29341067586E+01  0.86256642725E+01  0.00000000000E+00 0.  1.
</event>
<event>
 7    1  0.2817603E-011  0.5052887E+02  0.7816164E-02  0.1300439E+00
        -11   -1    0    0    0    0  0.00000000000E+00  0.00000000000E+00  0.45593999997E+02  0.45594000000E+02  0.51100000000E-03 0.  1.
         11   -1    0    0    0    0 -0.00000000000E+00 -0.00000000000E+00 -0.45593999997E+02  0.45594000000E+02  0.51100000000E-03 0. -1.
    9900012    2    1    2    0    0  0.16725525331E+02  0.36319155941E+02 -0.73716311222E+01  0.50528865341E+02  0.30000016689E+02 0.  0.
        -12    1    1    2    0    0 -0.16725525331E+02 -0.36319155941E+02  0.73716311222E+01  0.40659134659E+02  0.00000000000E+00 0.  1.
         11    1    3    3    0    0  0.28123512428E+01  0.13796373700E+02 -0.56728508253E+01  0.15179936875E+02  0.51100000000E-03 0. -1.
        -11    1    3    3    0    0  0.19864291801E+02  0.21016303938E+02 -0.30002824059E+01  0.29073644676E+02  0.51100000000E-03 0.  1.
        -12    1    3    3    0    0 -0.59511177122E+01  0.15064783026E+01  0.13015021090E+01  0.62752837896E+01  0.00000000000E+00 0.  1.
</event>
<event>
 7    1  0.2817603E-011  0.5052885E+02  0.7816164E-02  0.1300439E+00
        -11   -1    0    0    0    0  0.00000000000E+00  0.00000000000E+00  0.45593999997E+02  0.45594000000E+02  0.51100000000E-03 0.  1.
         11   -1    0    0    0    0 -0.00000000000E+00 -0.00000000000E+00 -0.45593999997E+02  0.45594000000E+02  0.51100000000E-03 0. -1.
    9900012    2    1    2    0    0 -0.21486555759E+01 -0.40197721673E+02 -0.57178066811E+01  0.50528845291E+02  0.29999955745E+02 0.  0.
        -12    1    1    2    0    0  0.21486555759E+01  0.40197721673E+02  0.57178066811E+01  0.40659154709E+02  0.00000000000E+00 0.  1.
         11    1    3    3    0    0 -0.24661510285E+01 -0.69955878785E+01 -0.58931093512E+01  0.94735890109E+01  0.51100000000E-03 0. -1.
        -11    1    3    3    0    0  0.10641045206E+01 -0.27222853468E+01 -0.87999435942E+01  0.92726567640E+01  0.51100000000E-03 0.  1.
        -12    1    3    3    0    0 -0.74660906805E+00 -0.30479848447E+02  0.89752462643E+01  0.31782599516E+02  0.00000000000E+00 0.  1.
</event>
<event>
 7    1  0.2817603E-011  0.5052886E+02  0.7816164E-02  0.1300439E+00
        -11   -1    0    0    0    0  0.00000000000E+00  0.00000000000E+00  0.45593999997E+02  0.45594000000E+02  0.51100000000E-03 0.  1.
         11   -1    0    0    0    0 -0.00000000000E+00 -0.00000000000E+00 -0.45593999997E+02  0.45594000000E+02  0.51100000000E-03 0. -1.
    9900012    2    1    2    0    0 -0.19129497580E+02  0.16460018811E+02 -0.31879397600E+02  0.50528857261E+02  0.29999992130E+02 0.  0.
        -12    1    1    2    0    0  0.19129497580E+02 -0.16460018811E+02  0.31879397600E+02  0.40659142739E+02  0.00000000000E+00 0.  1.
         11    1    3    3    0    0 -0.98660809901E+01  0.15158354438E+02 -0.13777170418E+02  0.22735999832E+02  0.51100000000E-03 0. -1.
        -11    1    3    3    0    0 -0.87105491446E+01  0.88283135909E+01 -0.66360865066E+01  0.14065931595E+02  0.51100000000E-03 0.  1.
        -12    1    3    3    0    0 -0.55286744583E+00 -0.75266492173E+01 -0.11466140675E+02  0.13726925833E+02  0.00000000000E+00 0.  1.
</event>
<event>
 7    1  0.2817603E-011  0.5052884E+02  0.7816164E-02  0.1300439E+00
        -11   -1    0    0    0    0  0.00000000000E+00  0.00000000000E+00  0.45593999997E+02  0.45594000000E+02  0.51100000000E-03 0.  1.
         11   -1    0    0    0    0 -0.00000000000E+00 -0.00000000000E+00 -0.45593999997E+02  0.45594000000E+02  0.51100000000E-03 0. -1.
    9900012    2    1    2    0    0  0.33424552226E+02 -0.12273922468E+02 -0.19629498889E+02  0.50528842472E+02  0.29999947178E+02 0.  0.
        -12    1    1    2    0    0 -0.33424552226E+02  0.12273922468E+02  0.19629498889E+02  0.40659157528E+02  0.00000000000E+00 0.  1.
         11    1    3    3    0    0  0.99768117727E+01 -0.16770628301E+02 -0.17194567323E+02  0.26008534992E+02  0.51100000000E-03 0. -1.
        -11    1    3    3    0    0  0.37575040051E+00  0.98304953862E+00  0.27352545451E-01  0.10527692918E+01  0.51100000000E-03 0.  1.
        -12    1    3    3    0    0  0.23071990053E+02  0.35136562942E+01 -0.24622841110E+01  0.23467538188E+02  0.00000000000E+00 0.  1.
</event>
<event>
 7    1  0.2817603E-011  0.5052881E+02  0.7816164E-02  0.1300439E+00
        -11   -1    0    0    0    0  0.00000000000E+00  0.00000000000E+00  0.45593999997E+02  0.45594000000E+02  0.51100000000E-03 0.  1.
         11   -1    0    0    0    0 -0.00000000000E+00 -0.00000000000E+00 -0.45593999997E+02  0.45594000000E+02  0.51100000000E-03 0. -1.
    9900012    2    1    2    0    0  0.32906179161E+02 -0.16137835568E+01 -0.23827486590E+02  0.50528806187E+02  0.29999836885E+02 0.  0.
        -12    1    1    2    0    0 -0.32906179161E+02  0.16137835568E+01  0.23827486590E+02  0.40659193813E+02  0.00000000000E+00 0.  1.
         11    1    3    3    0    0  0.17251239375E+02  0.17757071440E+01 -0.11469196841E+02  0.20791846294E+02  0.51100000000E-03 0. -1.
        -11    1    3    3    0    0  0.13232007725E+02  0.75631559421E+00  0.30480848845E+01  0.13599590562E+02  0.51100000000E-03 0.  1.
        -12    1    3    3    0    0  0.24229320603E+01 -0.41458062950E+01 -0.15406374633E+02  0.16137369331E+02  0.00000000000E+00 0.  1.
</event>
<event>
 7    1  0.2817603E-011  0.5052887E+02  0.7816164E-02  0.1300439E+00
        -11   -1    0    0    0    0  0.00000000000E+00  0.00000000000E+00  0.45593999997E+02  0.45594000000E+02  0.51100000000E-03 0.  1.
         11   -1    0    0    0    0 -0.00000000000E+00 -0.00000000000E+00 -0.45593999997E+02  0.45594000000E+02  0.51100000000E-03 0. -1.
    9900012    2    1    2    0    0  0.15134504606E+02  0.12843134583E+02 -0.35484722526E+02  0.50528869803E+02  0.30000030254E+02 0.  0.
        -12    1    1    2    0    0 -0.15134504606E+02 -0.12843134583E+02  0.35484722526E+02  0.40659130197E+02  0.00000000000E+00 0.  1.
         11    1    3    3    0    0  0.11109404506E+02 -0.15593320422E+01 -0.19461309678E+02  0.22463146697E+02  0.51100000000E-03 0. -1.
        -11    1    3    3    0    0  0.33084998198E+00  0.10966719762E+02  0.30474750486E+00  0.10975940750E+02  0.51100000000E-03 0.  1.
         12    1    3    3    0    0  0.36942501186E+01  0.34357468633E+01 -0.16328160353E+02  0.17089782356E+02  0.00000000000E+00 0. -1.
</event>
<event>
 7    1  0.2817603E-011  0.5052887E+02  0.7816164E-02  0.1300439E+00
        -11   -1    0    0    0    0  0.00000000000E+00  0.00000000000E+00  0.45593999997E+02  0.45594000000E+02  0.51100000000E-03 0. -1.
         11   -1    0    0    0    0 -0.00000000000E+00 -0.00000000000E+00 -0.45593999997E+02  0.45594000000E+02  0.51100000000E-03 0.  1.
    9900012    2    1    2    0    0  0.11965785287E+02 -0.29834331299E+02  0.24897738255E+02  0.50528871729E+02  0.30000036107E+02 0.  0.
        -12    1    1    2    0    0 -0.11965785287E+02  0.29834331299E+02 -0.24897738255E+02  0.40659128271E+02  0.00000000000E+00 0.  1.
         11    1    3    3    0    0  0.37025407797E+01 -0.27442345319E+01  0.48215952964E+01  0.66698885189E+01  0.51100000000E-03 0. -1.
        -11    1    3    3    0    0  0.58435083100E+01 -0.11252843528E+02  0.24195724721E+02  0.27316774551E+02  0.51100000000E-03 0.  1.
        -12    1    3    3    0    0  0.24197361970E+01 -0.15837253239E+02 -0.41195817627E+01  0.16542208659E+02  0.00000000000E+00 0.  1.
</event>
<event>
 7    1  0.2817603E-011  0.5052885E+02  0.7816164E-02  0.1300439E+00
        -11   -1    0    0    0    0  0.00000000000E+00  0.00000000000E+00  0.45593999997E+02  0.45594000000E+02  0.51100000000E-03 0. -1.
         11   -1    0    0    0    0 -0.00000000000E+00 -0.00000000000E+00 -0.45593999997E+02  0.45594000000E+02  0.51100000000E-03 0.  1.
    9900012    2    1    2    0    0  0.39671125827E+02  0.61784578202E+01 -0.64183107870E+01  0.50528852459E+02  0.29999977535E+02 0.  0.
        -12    1    1    2    0    0 -0.39671125827E+02 -0.61784578202E+01  0.64183107870E+01  0.40659147541E+02  0.00000000000E+00 0.  1.
         11    1    3    3    0    0  0.87796763091E+01 -0.13421362001E+01  0.40423695854E+01  0.97583194147E+01  0.51100000000E-03 0. -1.
        -11    1    3    3    0    0  0.18600576100E+02 -0.68643551305E+01 -0.90580927685E+01  0.21797932184E+02  0.51100000000E-03 0.  1.
        -12    1    3    3    0    0  0.12290873417E+02  0.14384949151E+02 -0.14025876039E+01  0.18972600861E+02  0.00000000000E+00 0.  1.
</event>
<event>
 7    1  0.2817603E-011  0.5052886E+02  0.7816164E-02  0.1300439E+00
        -11   -1    0    0    0    0  0.00000000000E+00  0.00000000000E+00  0.45593999997E+02  0.45594000000E+02  0.51100000000E-03 0.  1.
         11   -1    0    0    0    0 -0.00000000000E+00 -0.00000000000E+00 -0.45593999997E+02  0.45594000000E+02  0.51100000000E-03 0. -1.
    9900012    2    1    2    0    0 -0.32690613370E+02 -0.31506013777E+01 -0.23970049871E+02  0.50528858564E+02  0.29999996090E+02 0.  0.
        -12    1    1    2    0    0  0.32690613370E+02  0.31506013777E+01  0.23970049871E+02  0.40659141436E+02  0.00000000000E+00 0.  1.
         11    1    3    3    0    0 -0.99996425397E+01 -0.14338148523E+02 -0.62302338597E+01  0.18557779183E+02  0.51100000000E-03 0. -1.
        -11    1    3    3    0    0 -0.37035310334E+01  0.10872704127E+01  0.33961014654E+00  0.38747431371E+01  0.51100000000E-03 0.  1.
        -12    1    3    3    0    0 -0.18987439797E+02  0.10100276733E+02 -0.18079426158E+02  0.28096336244E+02  0.00000000000E+00 0.  1.
</event>
<event>
 7    1  0.2817603E-011  0.5052885E+02  0.7816164E-02  0.1300439E+00
        -11   -1    0    0    0    0  0.00000000000E+00  0.00000000000E+00  0.45593999997E+02  0.45594000000E+02  0.51100000000E-03 0. -1.
         11   -1    0    0    0    0 -0.00000000000E+00 -0.00000000000E+00 -0.45593999997E+02  0.45594000000E+02  0.51100000000E-03 0.  1.
    9900012    2    1    2    0    0 -0.91884692665E+01  0.39498060923E+02  0.29396128432E+01  0.50528854561E+02  0.29999983924E+02 0.  0.
        -12    1    1    2    0    0  0.91884692665E+01 -0.39498060923E+02 -0.29396128432E+01  0.40659145439E+02  0.00000000000E+00 0.  1.
         11    1    3    3    0    0 -0.29534393069E+01  0.25532869681E+01  0.69255725128E+01  0.79501970399E+01  0.51100000000E-03 0. -1.
        -11    1    3    3    0    0  0.66346288442E+01  0.18061071124E+02  0.68788704136E+00  0.19253409539E+02  0.51100000000E-03 0.  1.
        -12    1    3    3    0    0 -0.12869658804E+02  0.18883702831E+02 -0.46738467109E+01  0.23325247982E+02  0.00000000000E+00 0.  1.
</event>
<event>
 7    1  0.2817603E-011  0.5052887E+02  0.7816164E-02  0.1300439E+00
        -11   -1    0    0    0    0  0.00000000000E+00  0.00000000000E+00  0.45593999997E+02  0.45594000000E+02  0.51100000000E-03 0. -1.
         11   -1    0    0    0    0 -0.00000000000E+00 -0.00000000000E+00 -0.45593999997E+02  0.45594000000E+02  0.51100000000E-03 0.  1.
    9900012    2    1    2    0    0 -0.14588803281E+02  0.37850085935E+02  0.27753957273E+01  0.50528868087E+02  0.30000025037E+02 0.  0.
        -12    1    1    2    0    0  0.14588803281E+02 -0.37850085935E+02 -0.27753957273E+01  0.40659131913E+02  0.00000000000E+00 0.  1.
         11    1    3    3    0    0 -0.54184320030E+01  0.74658573007E+01  0.33821764473E+01  0.98253523289E+01  0.51100000000E-03 0.  1.
        -11    1    3    3    0    0  0.27229971415E+01  0.15514444970E+02 -0.10806965929E+02  0.19102440394E+02  0.51100000000E-03 0. -1.
         12    1    3    3    0    0 -0.11893368419E+02  0.14869783664E+02  0.10200185209E+02  0.21601075364E+02  0.00000000000E+00 0. -1.
</event>
<event>
 7    1  0.2817603E-011  0.5052886E+02  0.7816164E-02  0.1300439E+00
        -11   -1    0    0    0    0  0.00000000000E+00  0.00000000000E+00  0.45593999997E+02  0.45594000000E+02  0.51100000000E-03 0. -1.
         11   -1    0    0    0    0 -0.00000000000E+00 -0.00000000000E+00 -0.45593999997E+02  0.45594000000E+02  0.51100000000E-03 0.  1.
    9900012    2    1    2    0    0  0.11442766488E+02  0.35511872594E+02  0.16159689452E+02  0.50528861258E+02  0.30000004281E+02 0.  0.
        -12    1    1    2    0    0 -0.11442766488E+02 -0.35511872594E+02 -0.16159689452E+02  0.40659138742E+02  0.00000000000E+00 0.  1.
         11    1    3    3    0    0  0.69764640866E+01  0.14235171968E+02  0.98826953997E+01  0.18680975369E+02  0.51100000000E-03 0. -1.
        -11    1    3    3    0    0  0.12155461352E+02  0.19843741742E+02  0.34193246720E+01  0.23520652807E+02  0.51100000000E-03 0.  1.
        -12    1    3    3    0    0 -0.76891589503E+01  0.14329588846E+01  0.28576693801E+01  0.83272330827E+01  0.00000000000E+00 0.  1.
</event>
<event>
 7    1  0.2817603E-011  0.5052886E+02  0.7816164E-02  0.1300439E+00
        -11   -1    0    0    0    0  0.00000000000E+00  0.00000000000E+00  0.45593999997E+02  0.45594000000E+02  0.51100000000E-03 0. -1.
         11   -1    0    0    0    0 -0.00000000000E+00 -0.00000000000E+00 -0.45593999997E+02  0.45594000000E+02  0.51100000000E-03 0.  1.
    9900012    2    1    2    0    0  0.21320977208E+02 -0.33216068776E+02 -0.97608760672E+01  0.50528855940E+02  0.29999988116E+02 0.  0.
        -12    1    1    2    0    0 -0.21320977208E+02  0.33216068776E+02  0.97608760672E+01  0.40659144060E+02  0.00000000000E+00 0.  1.
         11    1    3    3    0    0 -0.58000085775E+00 -0.57568468254E+01  0.51035717707E+00  0.58084551367E+01  0.51100000000E-03 0. -1.
        -11    1    3    3    0    0 -0.30445692479E+01 -0.69299235747E+01 -0.98351406139E+01  0.12410609728E+02  0.51100000000E-03 0.  1.
        -12    1    3    3    0    0  0.24945547313E+02 -0.20529298376E+02 -0.43609263033E+00  0.32309791076E+02  0.00000000000E+00 0.  1.
</event>
<event>
 7    1  0.2817603E-011  0.5052885E+02  0.7816164E-02  0.1300439E+00
        -11   -1    0    0    0    0  0.00000000000E+00  0.00000000000E+00  0.45593999997E+02  0.45594000000E+02  0.51100000000E-03 0.  1.
         11   -1    0    0    0    0 -0.00000000000E+00 -0.00000000000E+00 -0.45593999997E+02  0.45594000000E+02  0.51100000000E-03 0. -1.
    9900012    2    1    2    0    0  0.23319450639E+02 -0.12788124607E+02 -0.30754405287E+02  0.50528851538E+02  0.29999974735E+02 0.  0.
        -12    1    1    2    0    0 -0.23319450639E+02  0.12788124607E+02  0.30754405287E+02  0.40659148462E+02  0.00000000000E+00 0.  1.
         11    1    3    3    0    0  0.14803547838E+02  0.50633140693E+01 -0.13399412511E+02  0.20599185272E+02  0.51100000000E-03 0.  1.
        -11    1    3    3    0    0  0.35009688235E+01 -0.66470305491E+00 -0.99256375958E+01  0.10545942101E+02  0.51100000000E-03 0. -1.
        -12    1    3    3    0    0  0.50149339783E+01 -0.17186735622E+02 -0.74293551800E+01  0.19383724166E+02  0.00000000000E+00 0.  1.
</event>
<event>
 7    1  0.2817603E-011  0.5052896E+02  0.7816164E-02  0.1300438E+00
        -11   -1    0    0    0    0  0.00000000000E+00  0.00000000000E+00  0.45593999997E+02  0.45594000000E+02  0.51100000000E-03 0. -1.
         11   -1    0    0    0    0 -0.00000000000E+00 -0.00000000000E+00 -0.45593999997E+02  0.45594000000E+02  0.51100000000E-03 0.  1.
    9900012    2    1    2    0    0  0.18036563843E+02 -0.30479453531E+02  0.19971050642E+02  0.50528959351E+02  0.30000302441E+02 0.  0.
        -12    1    1    2    0    0 -0.18036563843E+02  0.30479453531E+02 -0.19971050642E+02  0.40659040649E+02  0.00000000000E+00 0.  1.
         11    1    3    3    0    0  0.32152786277E+01  0.92638770409E+00 -0.19965890461E+01  0.38964828900E+01  0.51100000000E-03 0. -1.
        -11    1    3    3    0    0  0.34850246696E+00 -0.45724675569E+01 -0.43770611319E+01  0.63393673140E+01  0.51100000000E-03 0.  1.
         12    1    3    3    0    0  0.14472782748E+02 -0.26833373678E+02  0.26344700820E+02  0.40293109147E+02  0.00000000000E+00 0. -1.
</event>
<event>
 7    1  0.2817603E-011  0.5052886E+02  0.7816164E-02  0.1300439E+00
        -11   -1    0    0    0    0  0.00000000000E+00  0.00000000000E+00  0.45593999997E+02  0.45594000000E+02  0.51100000000E-03 0.  1.
         11   -1    0    0    0    0 -0.00000000000E+00 -0.00000000000E+00 -0.45593999997E+02  0.45594000000E+02  0.51100000000E-03 0. -1.
    9900012    2    1    2    0    0 -0.32020438092E+02 -0.17685924072E+02 -0.17750084159E+02  0.50528857688E+02  0.29999993430E+02 0.  0.
        -12    1    1    2    0    0  0.32020438092E+02  0.17685924072E+02  0.17750084159E+02  0.40659142312E+02  0.00000000000E+00 0.  1.
         11    1    3    3    0    0 -0.14182208645E+02 -0.16290391503E+02 -0.41420538731E+01  0.21992464799E+02  0.51100000000E-03 0. -1.
        -11    1    3    3    0    0 -0.10290787351E+02  0.46004785321E+01  0.68906252596E+00  0.11293339384E+02  0.51100000000E-03 0.  1.
         12    1    3    3    0    0 -0.75474420958E+01 -0.59960111012E+01 -0.14297092812E+02  0.17243053506E+02  0.00000000000E+00 0. -1.
</event>
<event>
 7    1  0.2817603E-011  0.5052887E+02  0.7816164E-02  0.1300439E+00
        -11   -1    0    0    0    0  0.00000000000E+00  0.00000000000E+00  0.45593999997E+02  0.45594000000E+02  0.51100000000E-03 0. -1.
         11   -1    0    0    0    0 -0.00000000000E+00 -0.00000000000E+00 -0.45593999997E+02  0.45594000000E+02  0.51100000000E-03 0.  1.
    9900012    2    1    2    0    0 -0.17801444782E+02  0.80078706292E+01  0.35667180920E+02  0.50528865441E+02  0.30000016993E+02 0.  0.
        -12    1    1    2    0    0  0.17801444782E+02 -0.80078706292E+01 -0.35667180920E+02  0.40659134559E+02  0.00000000000E+00 0.  1.
         11    1    3    3    0    0  0.14676229593E+01  0.13414895161E+01  0.35036643281E+01  0.40285450547E+01  0.51100000000E-03 0. -1.
        -11    1    3    3    0    0 -0.10524928217E+00  0.12643904266E+02  0.17724697571E+02  0.21772558342E+02  0.51100000000E-03 0.  1.
         12    1    3    3    0    0 -0.19163818459E+02 -0.59775231531E+01  0.14438819021E+02  0.24727762044E+02  0.00000000000E+00 0. -1.
</event>
<event>
 7    1  0.2817603E-011  0.5052887E+02  0.7816164E-02  0.1300439E+00
        -11   -1    0    0    0    0  0.00000000000E+00  0.00000000000E+00  0.45593999997E+02  0.45594000000E+02  0.51100000000E-03 0.  1.
         11   -1    0    0    0    0 -0.00000000000E+00 -0.00000000000E+00 -0.45593999997E+02  0.45594000000E+02  0.51100000000E-03 0. -1.
    9900012    2    1    2    0    0  0.23221787693E+02  0.10036984119E+02 -0.31830370369E+02  0.50528868778E+02  0.30000027139E+02 0.  0.
        -12    1    1    2    0    0 -0.23221787693E+02 -0.10036984119E+02  0.31830370369E+02  0.40659131222E+02  0.00000000000E+00 0.  1.
         11    1    3    3    0    0  0.23997462655E+01  0.50582694175E+01 -0.13859181010E+02  0.14947299762E+02  0.51100000000E-03 0. -1.
        -11    1    3    3    0    0  0.92284316037E+01  0.12130226442E+02 -0.15498088789E+02  0.21736998407E+02  0.51100000000E-03 0.  1.
         12    1    3    3    0    0  0.11593609824E+02 -0.71515117403E+01 -0.24731005701E+01  0.13844570609E+02  0.00000000000E+00 0. -1.
</event>
<event>
 7    1  0.2817603E-011  0.5052894E+02  0.7816164E-02  0.1300438E+00
        -11   -1    0    0    0    0  0.00000000000E+00  0.00000000000E+00  0.45593999997E+02  0.45594000000E+02  0.51100000000E-03 0.  1.
         11   -1    0    0    0    0 -0.00000000000E+00 -0.00000000000E+00 -0.45593999997E+02  0.45594000000E+02  0.51100000000E-03 0. -1.
    9900012    2    1    2    0    0  0.73803429909E+01 -0.27127302351E+02 -0.29373437945E+02  0.50528943786E+02  0.30000255132E+02 0.  0.
        -12    1    1    2    0    0 -0.73803429909E+01  0.27127302351E+02  0.29373437945E+02  0.40659056214E+02  0.00000000000E+00 0.  1.
         11    1    3    3    0    0  0.11248550283E+02 -0.11882786665E+02 -0.17763700768E+02  0.24151181495E+02  0.51100000000E-03 0. -1.
        -11    1    3    3    0    0  0.69969993207E+01 -0.79490006166E+01 -0.48454667498E+01  0.11645735639E+02  0.51100000000E-03 0.  1.
        -12    1    3    3    0    0 -0.10865206613E+02 -0.72955150693E+01 -0.67642704270E+01  0.14732026652E+02  0.00000000000E+00 0.  1.
</event>
<event>
 7    1  0.2817603E-011  0.5052886E+02  0.7816164E-02  0.1300439E+00
        -11   -1    0    0    0    0  0.00000000000E+00  0.00000000000E+00  0.45593999997E+02  0.45594000000E+02  0.51100000000E-03 0.  1.
         11   -1    0    0    0    0 -0.00000000000E+00 -0.00000000000E+00 -0.45593999997E+02  0.45594000000E+02  0.51100000000E-03 0. -1.
    9900012    2    1    2    0    0  0.48307396421E+01  0.79074030558E+01 -0.39589173572E+02  0.50528859174E+02  0.29999997945E+02 0.  0.
        -12    1    1    2    0    0 -0.48307396421E+01 -0.79074030558E+01  0.39589173572E+02  0.40659140826E+02  0.00000000000E+00 0.  1.
         11    1    3    3    0    0  0.14275424255E+01  0.10274427309E+01 -0.28275979970E+02  0.28330629352E+02  0.51100000000E-03 0. -1.
        -11    1    3    3    0    0  0.38184076303E+01  0.29917474281E+01 -0.15634854374E+02  0.16370078224E+02  0.51100000000E-03 0.  1.
        -12    1    3    3    0    0 -0.41521041357E+00  0.38882128967E+01  0.43216607720E+01  0.58281515977E+01  0.00000000000E+00 0.  1.
</event>
<event>
 7    1  0.2817603E-011  0.5052886E+02  0.7816164E-02  0.1300439E+00
        -11   -1    0    0    0    0  0.00000000000E+00  0.00000000000E+00  0.45593999997E+02  0.45594000000E+02  0.51100000000E-03 0.  1.
         11   -1    0    0    0    0 -0.00000000000E+00 -0.00000000000E+00 -0.45593999997E+02  0.45594000000E+02  0.51100000000E-03 0. -1.
    9900012    2    1    2    0    0  0.11350391796E+02  0.13550482005E+02 -0.36615825569E+02  0.50528860331E+02  0.30000001463E+02 0.  0.
        -12    1    1    2    0    0 -0.11350391796E+02 -0.13550482005E+02  0.36615825569E+02  0.40659139669E+02  0.00000000000E+00 0.  1.
         11    1    3    3    0    0  0.19680725339E+01 -0.40886709739E+01 -0.58213778052E+00  0.45748687946E+01  0.51100000000E-03 0. -1.
        -11    1    3    3    0    0 -0.39763364086E+01  0.57726077176E+01 -0.22421261855E+02  0.23491428958E+02  0.51100000000E-03 0.  1.
         12    1    3    3    0    0  0.13358655671E+02  0.11866545261E+02 -0.13612425934E+02  0.22462562578E+02  0.00000000000E+00 0. -1.
</event>
<event>
 7    1  0.2817603E-011  0.5052886E+02  0.7816164E-02  0.1300439E+00
        -11   -1    0    0    0    0  0.00000000000E+00  0.00000000000E+00  0.45593999997E+02  0.45594000000E+02  0.51100000000E-03 0. -1.
         11   -1    0    0    0    0 -0.00000000000E+00 -0.00000000000E+00 -0.45593999997E+02  0.45594000000E+02  0.51100000000E-03 0.  1.
    9900012    2    1    2    0    0  0.10615144820E+01 -0.38883368195E+02  0.11837347017E+02  0.50528856876E+02  0.29999990961E+02 0.  0.
        -12    1    1    2    0    0 -0.10615144820E+01  0.38883368195E+02 -0.11837347017E+02  0.40659143124E+02  0.00000000000E+00 0.  1.
         11    1    3    3    0    0  0.46935873670E+01 -0.12858175724E+01  0.49964644675E+01  0.69747936627E+01  0.51100000000E-03 0. -1.
        -11    1    3    3    0    0 -0.90761955937E+01 -0.17510655515E+02  0.10622441409E+02  0.22401710755E+02  0.51100000000E-03 0.  1.
        -12    1    3    3    0    0  0.54441227087E+01 -0.20086895107E+02 -0.37815588594E+01  0.21152352458E+02  0.00000000000E+00 0.  1.
</event>
<event>
 7    1  0.2817603E-011  0.5052886E+02  0.7816164E-02  0.1300439E+00
        -11   -1    0    0    0    0  0.00000000000E+00  0.00000000000E+00  0.45593999997E+02  0.45594000000E+02  0.51100000000E-03 0.  1.
         11   -1    0    0    0    0 -0.00000000000E+00 -0.00000000000E+00 -0.45593999997E+02  0.45594000000E+02  0.51100000000E-03 0. -1.
    9900012    2    1    2    0    0  0.12750198773E+02 -0.45370895129E+01 -0.38340748739E+02  0.50528858791E+02  0.29999996780E+02 0.  0.
        -12    1    1    2    0    0 -0.12750198773E+02  0.45370895129E+01  0.38340748739E+02  0.40659141209E+02  0.00000000000E+00 0.  1.
         11    1    3    3    0    0  0.43955561030E+01  0.48749786620E+01 -0.26986467591E+01  0.70971138501E+01  0.51100000000E-03 0. -1.
        -11    1    3    3    0    0  0.20179272157E+01  0.17597443551E+01  0.22025604051E+01  0.34669876035E+01  0.51100000000E-03 0.  1.
         12    1    3    3    0    0  0.63367154539E+01 -0.11171812530E+02 -0.37844662385E+02  0.39964757337E+02  0.00000000000E+00 0. -1.
</event>
<event>
 7    1  0.2817603E-011  0.5052886E+02  0.7816164E-02  0.1300439E+00
        -11   -1    0    0    0    0  0.00000000000E+00  0.00000000000E+00  0.45593999997E+02  0.45594000000E+02  0.51100000000E-03 0. -1.
         11   -1    0    0    0    0 -0.00000000000E+00 -0.00000000000E+00 -0.45593999997E+02  0.45594000000E+02  0.51100000000E-03 0.  1.
    9900012    2    1    2    0    0  0.29609864644E+02 -0.11105974032E+02  0.25555411361E+02  0.50528858429E+02  0.29999995681E+02 0.  0.
        -12    1    1    2    0    0 -0.29609864644E+02  0.11105974032E+02 -0.25555411361E+02  0.40659141571E+02  0.00000000000E+00 0.  1.
         11    1    3    3    0    0  0.25683543660E+02 -0.84435090980E+01  0.22455532664E+02  0.35145244462E+02  0.51100000000E-03 0. -1.
        -11    1    3    3    0    0 -0.14026258711E+01 -0.23727276161E+01  0.77996778690E+01  0.82723739517E+01  0.51100000000E-03 0.  1.
        -12    1    3    3    0    0  0.53289468555E+01 -0.28973731816E+00 -0.46997991717E+01  0.71112400154E+01  0.00000000000E+00 0.  1.
</event>
<event>
 7    1  0.2817603E-011  0.5052886E+02  0.7816164E-02  0.1300439E+00
        -11   -1    0    0    0    0  0.00000000000E+00  0.00000000000E+00  0.45593999997E+02  0.45594000000E+02  0.51100000000E-03 0.  1.
         11   -1    0    0    0    0 -0.00000000000E+00 -0.00000000000E+00 -0.45593999997E+02  0.45594000000E+02  0.51100000000E-03 0. -1.
    9900012    2    1    2    0    0 -0.71027273988E+01 -0.50271198330E+01 -0.39717064206E+02  0.50528857615E+02  0.29999993206E+02 0.  0.
        -12    1    1    2    0    0  0.71027273988E+01  0.50271198330E+01  0.39717064206E+02  0.40659142385E+02  0.00000000000E+00 0.  1.
         11    1    3    3    0    0 -0.66744001351E+01 -0.24680941164E+01 -0.87229328774E+01  0.11257382643E+02  0.51100000000E-03 0. -1.
        -11    1    3    3    0    0 -0.64116927519E+01 -0.14949854230E+01  0.10405850994E+01  0.66654034364E+01  0.51100000000E-03 0.  1.
         12    1    3    3    0    0  0.59833654882E+01 -0.10640402936E+01 -0.32034716428E+02  0.32606071535E+02  0.00000000000E+00 0. -1.
</event>
<event>
 7    1  0.2817603E-011  0.5052891E+02  0.7816164E-02  0.1300439E+00
        -11   -1    0    0    0    0  0.00000000000E+00  0.00000000000E+00  0.45593999997E+02  0.45594000000E+02  0.51100000000E-03 0. -1.
         11   -1    0    0    0    0 -0.00000000000E+00 -0.00000000000E+00 -0.45593999997E+02  0.45594000000E+02  0.51100000000E-03 0.  1.
    9900012    2    1    2    0    0  0.37059546581E+02  0.16501258277E+02 -0.27313820227E+01  0.50528905504E+02  0.30000138769E+02 0.  0.
        -12    1    1    2    0    0 -0.37059546581E+02 -0.16501258277E+02  0.27313820227E+01  0.40659094496E+02  0.00000000000E+00 0.  1.
         11    1    3    3    0    0  0.83021514052E+01  0.68094775884E+01  0.67549462701E+01  0.12685582460E+02  0.51100000000E-03 0. -1.
        -11    1    3    3    0    0  0.22129587134E+02  0.16028042097E+02 -0.56417564274E+01  0.27900648309E+02  0.51100000000E-03 0.  1.
         12    1    3    3    0    0  0.66278080410E+01 -0.63362614078E+01 -0.38445718654E+01  0.99426747349E+01  0.00000000000E+00 0. -1.
</event>
<event>
 7    1  0.2817603E-011  0.5052886E+02  0.7816164E-02  0.1300439E+00
        -11   -1    0    0    0    0  0.00000000000E+00  0.00000000000E+00  0.45593999997E+02  0.45594000000E+02  0.51100000000E-03 0.  1.
         11   -1    0    0    0    0 -0.00000000000E+00 -0.00000000000E+00 -0.45593999997E+02  0.45594000000E+02  0.51100000000E-03 0. -1.
    9900012    2    1    2    0    0  0.27110438475E+02  0.24687387434E+01 -0.30200911155E+02  0.50528861053E+02  0.30000003657E+02 0.  0.
        -12    1    1    2    0    0 -0.27110438475E+02 -0.24687387434E+01  0.30200911155E+02  0.40659138947E+02  0.00000000000E+00 0.  1.
         11    1    3    3    0    0  0.23435283789E+01  0.12660827045E+01  0.17207770128E+01  0.31711456079E+01  0.51100000000E-03 0. -1.
        -11    1    3    3    0    0 -0.50419027834E+01  0.70127839898E+00 -0.58302440638E+01  0.77397881867E+01  0.51100000000E-03 0.  1.
        -12    1    3    3    0    0  0.29808812880E+02  0.50137763999E+00 -0.26091444104E+02  0.39617927259E+02  0.00000000000E+00 0.  1.
</event>
<event>
 7    1  0.2817603E-011  0.5052885E+02  0.7816164E-02  0.1300439E+00
        -11   -1    0    0    0    0  0.00000000000E+00  0.00000000000E+00  0.45593999997E+02  0.45594000000E+02  0.51100000000E-03 0. -1.
         11   -1    0    0    0    0 -0.00000000000E+00 -0.00000000000E+00 -0.45593999997E+02  0.45594000000E+02  0.51100000000E-03 0.  1.
    9900012    2    1    2    0    0 -0.31574629003E+02 -0.10163311289E+02 -0.23514166227E+02  0.50528854579E+02  0.29999983978E+02 0.  0.
        -12    1    1    2    0    0  0.31574629003E+02  0.10163311289E+02  0.23514166227E+02  0.40659145421E+02  0.00000000000E+00 0.  1.
         11    1    3    3    0    0 -0.18327873408E+02  0.47890157741E+01 -0.77939764444E+01  0.20483937240E+02  0.51100000000E-03 0. -1.
        -11    1    3    3    0    0 -0.10497128042E+02 -0.18224278116E+01 -0.19696078293E+01  0.10834680222E+02  0.51100000000E-03 0.  1.
        -12    1    3    3    0    0 -0.27496275524E+01 -0.13129899252E+02 -0.13750581954E+02  0.19210237117E+02  0.00000000000E+00 0.  1.
</event>
<event>
 7    1  0.2817603E-011  0.5052885E+02  0.7816164E-02  0.1300439E+00
        -11   -1    0    0    0    0  0.00000000000E+00  0.00000000000E+00  0.45593999997E+02  0.45594000000E+02  0.51100000000E-03 0. -1.
         11   -1    0    0    0    0 -0.00000000000E+00 -0.00000000000E+00 -0.45593999997E+02  0.45594000000E+02  0.51100000000E-03 0.  1.
    9900012    2    1    2    0    0 -0.10527807465E+02 -0.36780842143E+02  0.13765945603E+02  0.50528851741E+02  0.29999975353E+02 0.  0.
        -12    1    1    2    0    0  0.10527807465E+02  0.36780842143E+02 -0.13765945603E+02  0.40659148259E+02  0.00000000000E+00 0.  1.
         11    1    3    3    0    0 -0.14899758350E+02 -0.21484861958E+02  0.17344725630E+02  0.31375812334E+02  0.51100000000E-03 0. -1.
        -11    1    3    3    0    0  0.75171687364E+00 -0.12888531446E+02  0.86093121745E+00  0.12939108312E+02  0.51100000000E-03 0.  1.
        -12    1    3    3    0    0  0.36202340106E+01 -0.24074487393E+01 -0.44397112440E+01  0.62139310950E+01  0.00000000000E+00 0.  1.
</event>
<event>
 7    1  0.2817603E-011  0.5052886E+02  0.7816164E-02  0.1300439E+00
        -11   -1    0    0    0    0  0.00000000000E+00  0.00000000000E+00  0.45593999997E+02  0.45594000000E+02  0.51100000000E-03 0.  1.
         11   -1    0    0    0    0 -0.00000000000E+00 -0.00000000000E+00 -0.45593999997E+02  0.45594000000E+02  0.51100000000E-03 0. -1.
    9900012    2    1    2    0    0 -0.22590296167E+02  0.32994356014E+02 -0.73632042247E+01  0.50528858517E+02  0.29999995948E+02 0.  0.
        -12    1    1    2    0    0  0.22590296167E+02 -0.32994356014E+02  0.73632042247E+01  0.40659141483E+02  0.00000000000E+00 0.  1.
         11    1    3    3    0    0 -0.43363556169E+01  0.71038705812E+01 -0.30000108183E+01  0.88469781531E+01  0.51100000000E-03 0. -1.
        -11    1    3    3    0    0 -0.35499906571E+01  0.42187189608E+01 -0.12987373285E+02  0.14109283768E+02  0.51100000000E-03 0.  1.
        -12    1    3    3    0    0 -0.14703949893E+02  0.21671766472E+02  0.86241798786E+01  0.27572596596E+02  0.00000000000E+00 0.  1.
</event>
<event>
 7    1  0.2817603E-011  0.5052888E+02  0.7816164E-02  0.1300439E+00
        -11   -1    0    0    0    0  0.00000000000E+00  0.00000000000E+00  0.45593999997E+02  0.45594000000E+02  0.51100000000E-03 0.  1.
         11   -1    0    0    0    0 -0.00000000000E+00 -0.00000000000E+00 -0.45593999997E+02  0.45594000000E+02  0.51100000000E-03 0. -1.
    9900012    2    1    2    0    0 -0.40560184652E+01 -0.13209999327E+02 -0.38238841344E+02  0.50528876112E+02  0.30000049430E+02 0.  0.
        -12    1    1    2    0    0  0.40560184652E+01  0.13209999327E+02  0.38238841344E+02  0.40659123888E+02  0.00000000000E+00 0.  1.
         11    1    3    3    0    0 -0.16116062509E+01  0.53441683956E+01 -0.86401522287E+01  0.10286381353E+02  0.51100000000E-03 0. -1.
        -11    1    3    3    0    0 -0.10258370631E+02 -0.59057945912E+01 -0.17222430138E+02  0.20897958701E+02  0.51100000000E-03 0.  1.
         12    1    3    3    0    0  0.78139584172E+01 -0.12648373131E+02 -0.12376258977E+02  0.19344536058E+02  0.00000000000E+00 0. -1.
</event>
<event>
 7    1  0.2817603E-011  0.5052886E+02  0.7816164E-02  0.1300439E+00
        -11   -1    0    0    0    0  0.00000000000E+00  0.00000000000E+00  0.45593999997E+02  0.45594000000E+02  0.51100000000E-03 0.  1.
         11   -1    0    0    0    0 -0.00000000000E+00 -0.00000000000E+00 -0.45593999997E+02  0.45594000000E+02  0.51100000000E-03 0. -1.
    9900012    2    1    2    0    0  0.70252821884E+01  0.16795842299E+02 -0.36355338043E+02  0.50528861881E+02  0.30000006173E+02 0.  0.
        -12    1    1    2    0    0 -0.70252821884E+01 -0.16795842299E+02  0.36355338043E+02  0.40659138119E+02  0.00000000000E+00 0.  1.
         11    1    3    3    0    0 -0.53853083682E+01  0.63670862487E+01 -0.15314073651E+02  0.17437378976E+02  0.51100000000E-03 0. -1.
        -11    1    3    3    0    0 -0.34940550720E+01 -0.30914665841E+01 -0.37815167376E+01  0.60054521549E+01  0.51100000000E-03 0.  1.
        -12    1    3    3    0    0  0.15904645629E+02  0.13520222634E+02 -0.17259747655E+02  0.27086030749E+02  0.00000000000E+00 0.  1.
</event>
<event>
 7    1  0.2817603E-011  0.5052885E+02  0.7816164E-02  0.1300439E+00
        -11   -1    0    0    0    0  0.00000000000E+00  0.00000000000E+00  0.45593999997E+02  0.45594000000E+02  0.51100000000E-03 0.  1.
         11   -1    0    0    0    0 -0.00000000000E+00 -0.00000000000E+00 -0.45593999997E+02  0.45594000000E+02  0.51100000000E-03 0. -1.
    9900012    2    1    2    0    0  0.29511771160E+02 -0.25544537972E+02  0.11388527102E+02  0.50528848425E+02  0.29999965273E+02 0.  0.
        -12    1    1    2    0    0 -0.29511771160E+02  0.25544537972E+02 -0.11388527102E+02  0.40659151575E+02  0.00000000000E+00 0.  1.
         11    1    3    3    0    0 -0.22741607083E+01 -0.57025660872E+01 -0.96326913249E+00  0.62144150641E+01  0.51100000000E-03 0. -1.
        -11    1    3    3    0    0  0.13798156016E+02 -0.33722928138E+01 -0.42322298505E+01  0.14821377737E+02  0.51100000000E-03 0.  1.
        -12    1    3    3    0    0  0.17987775853E+02 -0.16469679071E+02  0.16584026085E+02  0.29493055624E+02  0.00000000000E+00 0.  1.
</event>
<event>
 7    1  0.2817603E-011  0.5052886E+02  0.7816164E-02  0.1300439E+00
        -11   -1    0    0    0    0  0.00000000000E+00  0.00000000000E+00  0.45593999997E+02  0.45594000000E+02  0.51100000000E-03 0.  1.
         11   -1    0    0    0    0 -0.00000000000E+00 -0.00000000000E+00 -0.45593999997E+02  0.45594000000E+02  0.51100000000E-03 0. -1.
    9900012    2    1    2    0    0 -0.13886244810E+02  0.21068506462E+02 -0.31881906919E+02  0.50528858983E+02  0.29999997366E+02 0.  0.
        -12    1    1    2    0    0  0.13886244810E+02 -0.21068506462E+02  0.31881906919E+02  0.40659141017E+02  0.00000000000E+00 0.  1.
         11    1    3    3    0    0 -0.20673068049E+01  0.10536173067E+02 -0.46530077777E+01  0.11701930694E+02  0.51100000000E-03 0. -1.
        -11    1    3    3    0    0 -0.41164851192E+01  0.10492414865E+02 -0.80103627924E+00  0.11299463652E+02  0.51100000000E-03 0.  1.
        -12    1    3    3    0    0 -0.77024528857E+01  0.39918529761E-01 -0.26427862862E+02  0.27527464638E+02  0.00000000000E+00 0.  1.
</event>
<event>
 7    1  0.2817603E-011  0.5052886E+02  0.7816164E-02  0.1300439E+00
        -11   -1    0    0    0    0  0.00000000000E+00  0.00000000000E+00  0.45593999997E+02  0.45594000000E+02  0.51100000000E-03 0.  1.
         11   -1    0    0    0    0 -0.00000000000E+00 -0.00000000000E+00 -0.45593999997E+02  0.45594000000E+02  0.51100000000E-03 0. -1.
    9900012    2    1    2    0    0  0.19122355111E+02  0.30709941452E+02 -0.18558038296E+02  0.50528858907E+02  0.29999997135E+02 0.  0.
        -12    1    1    2    0    0 -0.19122355111E+02 -0.30709941452E+02  0.18558038296E+02  0.40659141093E+02  0.00000000000E+00 0.  1.
         11    1    3    3    0    0  0.15257948174E+01  0.30979952120E+01 -0.61257042486E+01  0.70320606483E+01  0.51100000000E-03 0.  1.
        -11    1    3    3    0    0  0.10087319035E+01  0.12457024661E+02  0.65257005482E+01  0.14098928021E+02  0.51100000000E-03 0. -1.
         12    1    3    3    0    0  0.16587828390E+02  0.15154921580E+02 -0.18958034595E+02  0.29397870238E+02  0.00000000000E+00 0. -1.
</event>
<event>
 7    1  0.2817603E-011  0.5052886E+02  0.7816164E-02  0.1300439E+00
        -11   -1    0    0    0    0  0.00000000000E+00  0.00000000000E+00  0.45593999997E+02  0.45594000000E+02  0.51100000000E-03 0. -1.
         11   -1    0    0    0    0 -0.00000000000E+00 -0.00000000000E+00 -0.45593999997E+02  0.45594000000E+02  0.51100000000E-03 0.  1.
    9900012    2    1    2    0    0  0.26723793758E+02  0.72711353546E+00  0.30634552348E+02  0.50528860259E+02  0.30000001242E+02 0.  0.
        -12    1    1    2    0    0 -0.26723793758E+02 -0.72711353546E+00 -0.30634552348E+02  0.40659139741E+02  0.00000000000E+00 0.  1.
         11    1    3    3    0    0  0.26985201528E+02  0.83928365154E+01  0.25912967683E+02  0.38342179133E+02  0.51100000000E-03 0. -1.
        -11    1    3    3    0    0 -0.24164268859E+01 -0.17428718780E+00  0.35588294132E+01  0.43052017342E+01  0.51100000000E-03 0.  1.
        -12    1    3    3    0    0  0.21550191164E+01 -0.74914357922E+01  0.11627552519E+01  0.78814793913E+01  0.00000000000E+00 0.  1.
</event>
<event>
 7    1  0.2817603E-011  0.5052885E+02  0.7816164E-02  0.1300439E+00
        -11   -1    0    0    0    0  0.00000000000E+00  0.00000000000E+00  0.45593999997E+02  0.45594000000E+02  0.51100000000E-03 0. -1.
         11   -1    0    0    0    0 -0.00000000000E+00 -0.00000000000E+00 -0.45593999997E+02  0.45594000000E+02  0.51100000000E-03 0.  1.
    9900012    2    1    2    0    0  0.33021208291E+02  0.12169339469E+02  0.20363528334E+02  0.50528852120E+02  0.29999976503E+02 0.  0.
        -12    1    1    2    0    0 -0.33021208291E+02 -0.12169339469E+02 -0.20363528334E+02  0.40659147880E+02  0.00000000000E+00 0.  1.
         11    1    3    3    0    0  0.24864349902E+02  0.96180074254E+01  0.16723302110E+02  0.31470792755E+02  0.51100000000E-03 0. -1.
        -11    1    3    3    0    0  0.73414331664E+01  0.72654845767E+01  0.76196314168E+01  0.12835212903E+02  0.51100000000E-03 0.  1.
         12    1    3    3    0    0  0.81542522320E+00 -0.47141525332E+01 -0.39794051928E+01  0.62228464620E+01  0.00000000000E+00 0. -1.
</event>
<event>
 7    1  0.2817603E-011  0.5052885E+02  0.7816164E-02  0.1300439E+00
        -11   -1    0    0    0    0  0.00000000000E+00  0.00000000000E+00  0.45593999997E+02  0.45594000000E+02  0.51100000000E-03 0.  1.
         11   -1    0    0    0    0 -0.00000000000E+00 -0.00000000000E+00 -0.45593999997E+02  0.45594000000E+02  0.51100000000E-03 0. -1.
    9900012    2    1    2    0    0 -0.18503651535E+02 -0.36657310939E+01 -0.36018662572E+02  0.50528846565E+02  0.29999959618E+02 0.  0.
        -12    1    1    2    0    0  0.18503651535E+02  0.36657310939E+01  0.36018662572E+02  0.40659153435E+02  0.00000000000E+00 0.  1.
         11    1    3    3    0    0 -0.16872660870E+02 -0.66226752635E+01 -0.24855160668E+02  0.30762404402E+02  0.51100000000E-03 0. -1.
        -11    1    3    3    0    0 -0.37497054052E+01 -0.46381160372E+01 -0.10209400850E+02  0.11823885867E+02  0.51100000000E-03 0.  1.
        -12    1    3    3    0    0  0.21187147404E+01  0.75950602068E+01 -0.95410105324E+00  0.79425562961E+01  0.00000000000E+00 0.  1.
</event>
<event>
 7    1  0.2817603E-011  0.5052886E+02  0.7816164E-02  0.1300439E+00
        -11   -1    0    0    0    0  0.00000000000E+00  0.00000000000E+00  0.45593999997E+02  0.45594000000E+02  0.51100000000E-03 0. -1.
         11   -1    0    0    0    0 -0.00000000000E+00 -0.00000000000E+00 -0.45593999997E+02  0.45594000000E+02  0.51100000000E-03 0.  1.
    9900012    2    1    2    0    0 -0.32795257739E+02  0.59794090600E+01  0.23278386802E+02  0.50528861359E+02  0.30000004587E+02 0.  0.
        -12    1    1    2    0    0  0.32795257739E+02 -0.59794090600E+01 -0.23278386802E+02  0.40659138641E+02  0.00000000000E+00 0.  1.
         11    1    3    3    0    0 -0.14417794095E+02 -0.38742997604E+01  0.92491480552E+01  0.17562167441E+02  0.51100000000E-03 0. -1.
        -11    1    3    3    0    0 -0.10755388520E+02 -0.99191900364E+00  0.16263729404E+02  0.19523605710E+02  0.51100000000E-03 0.  1.
        -12    1    3    3    0    0 -0.76220751242E+01  0.10845627824E+02 -0.22344906567E+01  0.13443088209E+02  0.00000000000E+00 0.  1.
</event>
<event>
 7    1  0.2817603E-011  0.5052885E+02  0.7816164E-02  0.1300439E+00
        -11   -1    0    0    0    0  0.00000000000E+00  0.00000000000E+00  0.45593999997E+02  0.45594000000E+02  0.51100000000E-03 0.  1.
         11   -1    0    0    0    0 -0.00000000000E+00 -0.00000000000E+00 -0.45593999997E+02  0.45594000000E+02  0.51100000000E-03 0. -1.
    9900012    2    1    2    0    0 -0.23144914040E+02 -0.32895989036E+02  0.59441816765E+01  0.50528850521E+02  0.29999971644E+02 0.  0.
        -12    1    1    2    0    0  0.23144914040E+02  0.32895989036E+02 -0.59441816765E+01  0.40659149479E+02  0.00000000000E+00 0.  1.
         11    1    3    3    0    0 -0.12764351152E+02 -0.64860226883E+01  0.66784966265E+01  0.15798717293E+02  0.51100000000E-03 0. -1.
        -11    1    3    3    0    0  0.57714659145E+01 -0.71968000077E+01  0.21266995287E+01  0.94671326334E+01  0.51100000000E-03 0.  1.
         12    1    3    3    0    0 -0.16152028802E+02 -0.19213166340E+02 -0.28610144787E+01  0.25263000595E+02  0.00000000000E+00 0. -1.
</event>
<event>
 7    1  0.2817603E-011  0.5052884E+02  0.7816164E-02  0.1300439E+00
        -11   -1    0    0    0    0  0.00000000000E+00  0.00000000000E+00  0.45593999997E+02  0.45594000000E+02  0.51100000000E-03 0.  1.
         11   -1    0    0    0    0 -0.00000000000E+00 -0.00000000000E+00 -0.45593999997E+02  0.45594000000E+02  0.51100000000E-03 0. -1.
    9900012    2    1    2    0    0  0.18918701631E+02  0.50828931125E+01 -0.35628835134E+02  0.50528843998E+02  0.29999951816E+02 0.  0.
        -12    1    1    2    0    0 -0.18918701631E+02 -0.50828931125E+01  0.35628835134E+02  0.40659156002E+02  0.00000000000E+00 0.  1.
         11    1    3    3    0    0  0.74291646265E+01 -0.46498943794E+01 -0.28853772629E+01  0.92271017659E+01  0.51100000000E-03 0. -1.
        -11    1    3    3    0    0 -0.25092695834E+01 -0.86701494659E+00 -0.18507009856E+02  0.18696458564E+02  0.51100000000E-03 0.  1.
        -12    1    3    3    0    0  0.13998806588E+02  0.10599802439E+02 -0.14236448015E+02  0.22605283668E+02  0.00000000000E+00 0.  1.
</event>
<event>
 7    1  0.2817603E-011  0.5052884E+02  0.7816164E-02  0.1300439E+00
        -11   -1    0    0    0    0  0.00000000000E+00  0.00000000000E+00  0.45593999997E+02  0.45594000000E+02  0.51100000000E-03 0.  1.
         11   -1    0    0    0    0 -0.00000000000E+00 -0.00000000000E+00 -0.45593999997E+02  0.45594000000E+02  0.51100000000E-03 0. -1.
    9900012    2    1    2    0    0 -0.17088254083E+02  0.36575314972E+02 -0.48379003049E+01  0.50528839012E+02  0.29999936661E+02 0.  0.
        -12    1    1    2    0    0  0.17088254083E+02 -0.36575314972E+02  0.48379003049E+01  0.40659160988E+02  0.00000000000E+00 0.  1.
         11    1    3    3    0    0 -0.90830859516E+01 -0.76726039426E+00  0.20948028482E+01  0.93530389794E+01  0.51100000000E-03 0.  1.
        -11    1    3    3    0    0  0.26163824287E+01  0.11539985581E+01 -0.22069209357E+00  0.28680786158E+01  0.51100000000E-03 0. -1.
         12    1    3    3    0    0 -0.10621550560E+02  0.36188576808E+02 -0.67120110596E+01  0.38307721417E+02  0.00000000000E+00 0. -1.
</event>
<event>
 7    1  0.2817603E-011  0.5052885E+02  0.7816164E-02  0.1300439E+00
        -11   -1    0    0    0    0  0.00000000000E+00  0.00000000000E+00  0.45593999997E+02  0.45594000000E+02  0.51100000000E-03 0.  1.
         11   -1    0    0    0    0 -0.00000000000E+00 -0.00000000000E+00 -0.45593999997E+02  0.45594000000E+02  0.51100000000E-03 0. -1.
    9900012    2    1    2    0    0 -0.62340887930E+01  0.39420851546E+02  0.77652575698E+01  0.50528848203E+02  0.29999964599E+02 0.  0.
        -12    1    1    2    0    0  0.62340887930E+01 -0.39420851546E+02 -0.77652575698E+01  0.40659151797E+02  0.00000000000E+00 0.  1.
         11    1    3    3    0    0 -0.37161494242E+00  0.41095512782E+01  0.36779505458E+01  0.55275518860E+01  0.51100000000E-03 0. -1.
        -11    1    3    3    0    0  0.60151079593E+01 -0.13663737057E+01 -0.43695858897E+00  0.61838041637E+01  0.51100000000E-03 0.  1.
        -12    1    3    3    0    0 -0.11877581810E+02  0.36677673974E+02  0.45242656129E+01  0.38817492154E+02  0.00000000000E+00 0.  1.
</event>
<event>
 7    1  0.2817603E-011  0.5052887E+02  0.7816164E-02  0.1300439E+00
        -11   -1    0    0    0    0  0.00000000000E+00  0.00000000000E+00  0.45593999997E+02  0.45594000000E+02  0.51100000000E-03 0. -1.
         11   -1    0    0    0    0 -0.00000000000E+00 -0.00000000000E+00 -0.45593999997E+02  0.45594000000E+02  0.51100000000E-03 0.  1.
    9900012    2    1    2    0    0  0.10112250050E+02 -0.17962193966E+02  0.35046632768E+02  0.50528874560E+02  0.30000044714E+02 0.  0.
        -12    1    1    2    0    0 -0.10112250050E+02  0.17962193966E+02 -0.35046632768E+02  0.40659125440E+02  0.00000000000E+00 0.  1.
         11    1    3    3    0    0 -0.80668611211E+01 -0.10847737028E+01  0.44703201172E+01  0.92862664480E+01  0.51100000000E-03 0.  1.
        -11    1    3    3    0    0  0.32094333456E+01 -0.62101199605E+00  0.11799030926E+02  0.12243498249E+02  0.51100000000E-03 0. -1.
        -12    1    3    3    0    0  0.14969677825E+02 -0.16256408267E+02  0.18777281724E+02  0.28999109864E+02  0.00000000000E+00 0.  1.
</event>
<event>
 7    1  0.2817603E-011  0.5052886E+02  0.7816164E-02  0.1300439E+00
        -11   -1    0    0    0    0  0.00000000000E+00  0.00000000000E+00  0.45593999997E+02  0.45594000000E+02  0.51100000000E-03 0. -1.
         11   -1    0    0    0    0 -0.00000000000E+00 -0.00000000000E+00 -0.45593999997E+02  0.45594000000E+02  0.51100000000E-03 0.  1.
    9900012    2    1    2    0    0  0.33045680030E+02 -0.19813036640E+02  0.12984311902E+02  0.50528859022E+02  0.29999997482E+02 0.  0.
        -12    1    1    2    0    0 -0.33045680030E+02  0.19813036640E+02 -0.12984311902E+02  0.40659140978E+02  0.00000000000E+00 0.  1.
         11    1    3    3    0    0  0.17147009803E+02 -0.17094912152E+02  0.14613761722E+02  0.28281053703E+02  0.51100000000E-03 0. -1.
        -11    1    3    3    0    0  0.97694396361E+01 -0.40165294970E+01  0.61783220243E+01  0.12237079852E+02  0.51100000000E-03 0.  1.
        -12    1    3    3    0    0  0.61292305911E+01  0.12984050087E+01 -0.78077718437E+01  0.10010725467E+02  0.00000000000E+00 0.  1.
</event>
<event>
 7    1  0.2817603E-011  0.5052885E+02  0.7816164E-02  0.1300439E+00
        -11   -1    0    0    0    0  0.00000000000E+00  0.00000000000E+00  0.45593999997E+02  0.45594000000E+02  0.51100000000E-03 0. -1.
         11   -1    0    0    0    0 -0.00000000000E+00 -0.00000000000E+00 -0.45593999997E+02  0.45594000000E+02  0.51100000000E-03 0.  1.
    9900012    2    1    2    0    0  0.14218979956E+02  0.33420485538E+02  0.18277250952E+02  0.50528854080E+02  0.29999982461E+02 0.  0.
        -12    1    1    2    0    0 -0.14218979956E+02 -0.33420485538E+02 -0.18277250952E+02  0.40659145920E+02  0.00000000000E+00 0.  1.
         11    1    3    3    0    0  0.71384918275E+01  0.83933205172E+01  0.19141501626E+02  0.22086262238E+02  0.51100000000E-03 0. -1.
        -11    1    3    3    0    0 -0.29642350329E+01  0.65443493771E+01 -0.17267663589E+01  0.73889728934E+01  0.51100000000E-03 0.  1.
        -12    1    3    3    0    0  0.10044723161E+02  0.18482815644E+02  0.86251568419E+00  0.21053618948E+02  0.00000000000E+00 0.  1.
</event>
<event>
 7    1  0.2817603E-011  0.5052885E+02  0.7816164E-02  0.1300439E+00
        -11   -1    0    0    0    0  0.00000000000E+00  0.00000000000E+00  0.45593999997E+02  0.45594000000E+02  0.51100000000E-03 0. -1.
         11   -1    0    0    0    0 -0.00000000000E+00 -0.00000000000E+00 -0.45593999997E+02  0.45594000000E+02  0.51100000000E-03 0.  1.
    9900012    2    1    2    0    0  0.12996023195E+02 -0.38471858430E+02 -0.20458920584E+01  0.50528853621E+02  0.29999981068E+02 0.  0.
        -12    1    1    2    0    0 -0.12996023195E+02  0.38471858430E+02  0.20458920584E+01  0.40659146379E+02  0.00000000000E+00 0.  1.
         11    1    3    3    0    0  0.15544880793E+02 -0.14947887775E+02 -0.51127121791E+01  0.22163539742E+02  0.51100000000E-03 0. -1.
        -11    1    3    3    0    0  0.54511764446E+01 -0.86396298004E+01 -0.26019512507E+01  0.10541758785E+02  0.51100000000E-03 0.  1.
        -12    1    3    3    0    0 -0.80000340424E+01 -0.14884340854E+02  0.56687713714E+01  0.17823555094E+02  0.00000000000E+00 0.  1.
</event>
<event>
 7    1  0.2817603E-011  0.5052886E+02  0.7816164E-02  0.1300439E+00
        -11   -1    0    0    0    0  0.00000000000E+00  0.00000000000E+00  0.45593999997E+02  0.45594000000E+02  0.51100000000E-03 0.  1.
         11   -1    0    0    0    0 -0.00000000000E+00 -0.00000000000E+00 -0.45593999997E+02  0.45594000000E+02  0.51100000000E-03 0. -1.
    9900012    2    1    2    0    0  0.28941048175E+02  0.22423051083E+02 -0.17685819214E+02  0.50528859692E+02  0.29999999520E+02 0.  0.
        -12    1    1    2    0    0 -0.28941048175E+02 -0.22423051083E+02  0.17685819214E+02  0.40659140308E+02  0.00000000000E+00 0.  1.
         11    1    3    3    0    0  0.14569528558E+01  0.87486765227E+01 -0.80286399037E+01  0.11963323597E+02  0.51100000000E-03 0. -1.
        -11    1    3    3    0    0  0.24550187222E+01 -0.18888176152E+01 -0.85253646503E+01  0.90706444970E+01  0.51100000000E-03 0.  1.
        -12    1    3    3    0    0  0.25029076597E+02  0.15563192175E+02 -0.11318146604E+01  0.29494891598E+02  0.00000000000E+00 0.  1.
</event>
<event>
 7    1  0.2817603E-011  0.5052886E+02  0.7816164E-02  0.1300439E+00
        -11   -1    0    0    0    0  0.00000000000E+00  0.00000000000E+00  0.45593999997E+02  0.45594000000E+02  0.51100000000E-03 0. -1.
         11   -1    0    0    0    0 -0.00000000000E+00 -0.00000000000E+00 -0.45593999997E+02  0.45594000000E+02  0.51100000000E-03 0.  1.
    9900012    2    1    2    0    0 -0.35129502074E+02 -0.11229274446E+02 -0.17116869511E+02  0.50528859054E+02  0.29999997581E+02 0.  0.
        -12    1    1    2    0    0  0.35129502074E+02  0.11229274446E+02  0.17116869511E+02  0.40659140946E+02  0.00000000000E+00 0.  1.
         11    1    3    3    0    0 -0.14276484704E+02  0.33306362462E+01 -0.11999735156E+02  0.18944782854E+02  0.51100000000E-03 0. -1.
        -11    1    3    3    0    0  0.30829930873E+01 -0.34279676931E+01 -0.19161625889E+01  0.49927435553E+01  0.51100000000E-03 0.  1.
         12    1    3    3    0    0 -0.23936010458E+02 -0.11131943000E+02 -0.32009717655E+01  0.26591332645E+02  0.00000000000E+00 0. -1.
</event>
<event>
 7    1  0.2817603E-011  0.5052887E+02  0.7816164E-02  0.1300439E+00
        -11   -1    0    0    0    0  0.00000000000E+00  0.00000000000E+00  0.45593999997E+02  0.45594000000E+02  0.51100000000E-03 0. -1.
         11   -1    0    0    0    0 -0.00000000000E+00 -0.00000000000E+00 -0.45593999997E+02  0.45594000000E+02  0.51100000000E-03 0.  1.
    9900012    2    1    2    0    0 -0.32911118344E+02 -0.36452647781E+01  0.23595244209E+02  0.50528865538E+02  0.30000017288E+02 0.  0.
        -12    1    1    2    0    0  0.32911118344E+02  0.36452647781E+01 -0.23595244209E+02  0.40659134462E+02  0.00000000000E+00 0.  1.
         11    1    3    3    0    0 -0.23533622294E+02  0.15622092456E+01  0.24866936510E+01  0.23716144745E+02  0.51100000000E-03 0. -1.
        -11    1    3    3    0    0  0.15503688517E+01  0.26064905219E+01  0.30076526068E+01  0.42712306051E+01  0.51100000000E-03 0.  1.
        -12    1    3    3    0    0 -0.10927864902E+02 -0.78139645457E+01  0.18100897951E+02  0.22541490188E+02  0.00000000000E+00 0.  1.
</event>
<event>
 7    1  0.2817603E-011  0.5052888E+02  0.7816164E-02  0.1300439E+00
        -11   -1    0    0    0    0  0.00000000000E+00  0.00000000000E+00  0.45593999997E+02  0.45594000000E+02  0.51100000000E-03 0.  1.
         11   -1    0    0    0    0 -0.00000000000E+00 -0.00000000000E+00 -0.45593999997E+02  0.45594000000E+02  0.51100000000E-03 0. -1.
    9900012    2    1    2    0    0 -0.10324916555E+02  0.39319048607E+02  0.75683020183E+00  0.50528877073E+02  0.30000052351E+02 0.  0.
        -12    1    1    2    0    0  0.10324916555E+02 -0.39319048607E+02 -0.75683020183E+00  0.40659122927E+02  0.00000000000E+00 0.  1.
         11    1    3    3    0    0 -0.87462641188E+01  0.12841187811E+02  0.66363340722E+00  0.15551001575E+02  0.51100000000E-03 0. -1.
        -11    1    3    3    0    0  0.36867293802E+01 -0.13783901261E+01  0.48350222373E+01  0.62345307088E+01  0.51100000000E-03 0.  1.
         12    1    3    3    0    0 -0.52653818169E+01  0.27856250923E+02 -0.47418254427E+01  0.28743344789E+02  0.00000000000E+00 0. -1.
</event>
<event>
 7    1  0.2817603E-011  0.5052886E+02  0.7816164E-02  0.1300439E+00
        -11   -1    0    0    0    0  0.00000000000E+00  0.00000000000E+00  0.45593999997E+02  0.45594000000E+02  0.51100000000E-03 0.  1.
         11   -1    0    0    0    0 -0.00000000000E+00 -0.00000000000E+00 -0.45593999997E+02  0.45594000000E+02  0.51100000000E-03 0. -1.
    9900012    2    1    2    0    0 -0.39142149161E+02  0.74820239290E+01 -0.80670388030E+01  0.50528860338E+02  0.30000001484E+02 0.  0.
        -12    1    1    2    0    0  0.39142149161E+02 -0.74820239290E+01  0.80670388030E+01  0.40659139662E+02  0.00000000000E+00 0.  1.
         11    1    3    3    0    0 -0.13574854591E+02 -0.61492652572E+01  0.16589112011E+01  0.14994736643E+02  0.51100000000E-03 0. -1.
        -11    1    3    3    0    0 -0.12342556615E+02  0.16753262162E+01 -0.12318821512E+02  0.17518526919E+02  0.51100000000E-03 0.  1.
         12    1    3    3    0    0 -0.13224737955E+02  0.11955962970E+02  0.25928715078E+01  0.18015596776E+02  0.00000000000E+00 0. -1.
</event>
<event>
 7    1  0.2817603E-011  0.5052887E+02  0.7816164E-02  0.1300439E+00
        -11   -1    0    0    0    0  0.00000000000E+00  0.00000000000E+00  0.45593999997E+02  0.45594000000E+02  0.51100000000E-03 0.  1.
         11   -1    0    0    0    0 -0.00000000000E+00 -0.00000000000E+00 -0.45593999997E+02  0.45594000000E+02  0.51100000000E-03 0. -1.
    9900012    2    1    2    0    0  0.94588444664E+01 -0.35947864794E+02 -0.16475633995E+02  0.50528865265E+02  0.30000016459E+02 0.  0.
        -12    1    1    2    0    0 -0.94588444664E+01  0.35947864794E+02  0.16475633995E+02  0.40659134735E+02  0.00000000000E+00 0.  1.
         11    1    3    3    0    0  0.23075674008E+01 -0.25965303323E+01  0.87373697753E-01  0.34748340248E+01  0.51100000000E-03 0.  1.
        -11    1    3    3    0    0 -0.28928341000E+00 -0.24048450663E+02  0.29107560358E+01  0.24225692253E+02  0.51100000000E-03 0. -1.
         12    1    3    3    0    0  0.74405604756E+01 -0.93028837988E+01 -0.19473763729E+02  0.22828338987E+02  0.00000000000E+00 0. -1.
</event>
<event>
 7    1  0.2817603E-011  0.5052885E+02  0.7816164E-02  0.1300439E+00
        -11   -1    0    0    0    0  0.00000000000E+00  0.00000000000E+00  0.45593999997E+02  0.45594000000E+02  0.51100000000E-03 0.  1.
         11   -1    0    0    0    0 -0.00000000000E+00 -0.00000000000E+00 -0.45593999997E+02  0.45594000000E+02  0.51100000000E-03 0. -1.
    9900012    2    1    2    0    0 -0.28257861587E+02 -0.15177655398E+01 -0.29195144230E+02  0.50528846045E+02  0.29999958038E+02 0.  0.
        -12    1    1    2    0    0  0.28257861587E+02  0.15177655398E+01  0.29195144230E+02  0.40659153955E+02  0.00000000000E+00 0.  1.
         11    1    3    3    0    0 -0.52775819431E+01 -0.35400091450E+01 -0.13294756368E+02  0.14735504167E+02  0.51100000000E-03 0. -1.
        -11    1    3    3    0    0  0.34008084090E+01  0.16168809791E+01  0.16436062847E+01  0.41086790840E+01  0.51100000000E-03 0.  1.
         12    1    3    3    0    0 -0.26381088053E+02  0.40536262615E+00 -0.17543994146E+02  0.31684662794E+02  0.00000000000E+00 0. -1.
</event>
<event>
 7    1  0.2817603E-011  0.5052885E+02  0.7816164E-02  0.1300439E+00
        -11   -1    0    0    0    0  0.00000000000E+00  0.00000000000E+00  0.45593999997E+02  0.45594000000E+02  0.51100000000E-03 0.  1.
         11   -1    0    0    0    0 -0.00000000000E+00 -0.00000000000E+00 -0.45593999997E+02  0.45594000000E+02  0.51100000000E-03 0. -1.
    9900012    2    1    2    0    0 -0.32987705263E+02  0.19054739277E+02  0.14208951294E+02  0.50528854850E+02  0.29999984802E+02 0.  0.
        -12    1    1    2    0    0  0.32987705263E+02 -0.19054739277E+02 -0.14208951294E+02  0.40659145150E+02  0.00000000000E+00 0.  1.
         11    1    3    3    0    0 -0.89258865629E+01  0.11777340320E+02  0.54115179016E+00  0.14787496119E+02  0.51100000000E-03 0. -1.
        -11    1    3    3    0    0 -0.13107881708E+02  0.99784671258E+01 -0.18265259362E+01  0.16574756901E+02  0.51100000000E-03 0.  1.
        -12    1    3    3    0    0 -0.10953936992E+02 -0.27010681689E+01  0.15494325440E+02  0.19166601830E+02  0.00000000000E+00 0.  1.
</event>
<event>
 7    1  0.2817603E-011  0.5052886E+02  0.7816164E-02  0.1300439E+00
        -11   -1    0    0    0    0  0.00000000000E+00  0.00000000000E+00  0.45593999997E+02  0.45594000000E+02  0.51100000000E-03 0.  1.
         11   -1    0    0    0    0 -0.00000000000E+00 -0.00000000000E+00 -0.45593999997E+02  0.45594000000E+02  0.51100000000E-03 0. -1.
    9900012    2    1    2    0    0 -0.39027777270E+02 -0.11026757929E+02  0.28998244285E+01  0.50528858706E+02  0.29999996523E+02 0.  0.
        -12    1    1    2    0    0  0.39027777270E+02  0.11026757929E+02 -0.28998244285E+01  0.40659141294E+02  0.00000000000E+00 0.  1.
         11    1    3    3    0    0  0.22311191416E+01 -0.15719347205E+01 -0.51663505133E+01  0.58429486800E+01  0.51100000000E-03 0. -1.
        -11    1    3    3    0    0 -0.37559754841E+01 -0.43466429225E+01 -0.83267431411E+00  0.58046535906E+01  0.51100000000E-03 0.  1.
         12    1    3    3    0    0 -0.37502920927E+02 -0.51081802864E+01  0.88988492559E+01  0.38881256435E+02  0.00000000000E+00 0. -1.
</event>
<event>
 7    1  0.2817603E-011  0.5052886E+02  0.7816164E-02  0.1300439E+00
        -11   -1    0    0    0    0  0.00000000000E+00  0.00000000000E+00  0.45593999997E+02  0.45594000000E+02  0.51100000000E-03 0.  1.
         11   -1    0    0    0    0 -0.00000000000E+00 -0.00000000000E+00 -0.45593999997E+02  0.45594000000E+02  0.51100000000E-03 0. -1.
    9900012    2    1    2    0    0 -0.20919653536E+02 -0.12747198034E+02 -0.32450621307E+02  0.50528858530E+02  0.29999995989E+02 0.  0.
        -12    1    1    2    0    0  0.20919653536E+02  0.12747198034E+02  0.32450621307E+02  0.40659141470E+02  0.00000000000E+00 0.  1.
         11    1    3    3    0    0 -0.21056872108E+02 -0.17637830731E+01 -0.17533879954E+02  0.27457963148E+02  0.51100000000E-03 0. -1.
        -11    1    3    3    0    0 -0.38578550761E+01 -0.55910418687E+01 -0.14882831623E+02  0.16359751598E+02  0.51100000000E-03 0.  1.
        -12    1    3    3    0    0  0.39950736484E+01 -0.53923730927E+01 -0.33909730135E-01  0.67111437845E+01  0.00000000000E+00 0.  1.
</event>
<event>
 7    1  0.3524742E-011  0.5052885E+02  0.7816164E-02  0.1300439E+00
        -11   -1    0    0    0    0  0.00000000000E+00  0.00000000000E+00  0.45593999997E+02  0.45594000000E+02  0.51100000000E-03 0. -1.
         11   -1    0    0    0    0 -0.00000000000E+00 -0.00000000000E+00 -0.45593999997E+02  0.45594000000E+02  0.51100000000E-03 0.  1.
    9900012    2    1    2    0    0 -0.72904967481E+01 -0.29311245847E+02  0.27218852693E+02  0.50528850748E+02  0.29999972334E+02 0.  0.
        -12    1    1    2    0    0  0.72904967481E+01  0.29311245847E+02 -0.27218852693E+02  0.40659149252E+02  0.00000000000E+00 0.  1.
         11    1    3    3    0    0 -0.48739618700E+01 -0.16676904366E+02  0.32482651060E+01  0.17675572693E+02  0.51100000000E-03 0. -1.
        -11    1    3    3    0    0 -0.40222967952E+01 -0.10051301615E+01 -0.18113540439E+01  0.45243963005E+01  0.51100000000E-03 0.  1.
         12    1    3    3    0    0  0.16057619171E+01 -0.11629211320E+02  0.25781941631E+02  0.28328881755E+02  0.00000000000E+00 0. -1.
</event>
<event>
 7    1  0.2817603E-011  0.5052886E+02  0.7816164E-02  0.1300439E+00
        -11   -1    0    0    0    0  0.00000000000E+00  0.00000000000E+00  0.45593999997E+02  0.45594000000E+02  0.51100000000E-03 0.  1.
         11   -1    0    0    0    0 -0.00000000000E+00 -0.00000000000E+00 -0.45593999997E+02  0.45594000000E+02  0.51100000000E-03 0. -1.
    9900012    2    1    2    0    0 -0.33292993127E+02 -0.15100563375E+02 -0.17796491479E+02  0.50528861857E+02  0.30000006101E+02 0.  0.
        -12    1    1    2    0    0  0.33292993127E+02  0.15100563375E+02  0.17796491479E+02  0.40659138143E+02  0.00000000000E+00 0.  1.
         11    1    3    3    0    0 -0.95548837764E+01 -0.10465097900E+02 -0.77834490206E+01  0.16167750522E+02  0.51100000000E-03 0. -1.
        -11    1    3    3    0    0 -0.17501122229E+02 -0.12952085674E+02 -0.33895760833E+01  0.22034859402E+02  0.51100000000E-03 0.  1.
         12    1    3    3    0    0 -0.62369871216E+01  0.83166201992E+01 -0.66234663754E+01  0.12326251933E+02  0.00000000000E+00 0. -1.
</event>
<event>
 7    1  0.2817603E-011  0.5052885E+02  0.7816164E-02  0.1300439E+00
        -11   -1    0    0    0    0  0.00000000000E+00  0.00000000000E+00  0.45593999997E+02  0.45594000000E+02  0.51100000000E-03 0. -1.
         11   -1    0    0    0    0 -0.00000000000E+00 -0.00000000000E+00 -0.45593999997E+02  0.45594000000E+02  0.51100000000E-03 0.  1.
    9900012    2    1    2    0    0  0.39201490513E+00 -0.28444728202E+02 -0.29050138207E+02  0.50528846443E+02  0.29999959248E+02 0.  0.
        -12    1    1    2    0    0 -0.39201490513E+00  0.28444728202E+02  0.29050138207E+02  0.40659153557E+02  0.00000000000E+00 0.  1.
         11    1    3    3    0    0 -0.40897314548E+00  0.42065043618E+01 -0.59064123724E+01  0.72627574208E+01  0.51100000000E-03 0. -1.
        -11    1    3    3    0    0  0.21133039578E+00 -0.26146049243E+00  0.21436825531E+01  0.21698841617E+01  0.51100000000E-03 0.  1.
         12    1    3    3    0    0  0.58965765484E+00 -0.32389772071E+02 -0.25287408387E+02  0.41096204860E+02  0.00000000000E+00 0. -1.
</event>
<event>
 7    1  0.2817603E-011  0.5052883E+02  0.7816164E-02  0.1300439E+00
        -11   -1    0    0    0    0  0.00000000000E+00  0.00000000000E+00  0.45593999997E+02  0.45594000000E+02  0.51100000000E-03 0. -1.
         11   -1    0    0    0    0 -0.00000000000E+00 -0.00000000000E+00 -0.45593999997E+02  0.45594000000E+02  0.51100000000E-03 0.  1.
    9900012    2    1    2    0    0  0.19462473528E+02 -0.36525311717E+01  0.35511111847E+02  0.50528832222E+02  0.29999916023E+02 0.  0.
        -12    1    1    2    0    0 -0.19462473528E+02  0.36525311717E+01 -0.35511111847E+02  0.40659167778E+02  0.00000000000E+00 0.  1.
         11    1    3    3    0    0 -0.12923326650E+01 -0.61057847866E+00 -0.16484099955E+00  0.14387851166E+01  0.51100000000E-03 0. -1.
        -11    1    3    3    0    0  0.43992258801E+01  0.85355101382E+01  0.24113057688E+02  0.25954723520E+02  0.51100000000E-03 0.  1.
         12    1    3    3    0    0  0.16355580313E+02 -0.11577462831E+02  0.11562895158E+02  0.23135323586E+02  0.00000000000E+00 0. -1.
</event>
<event>
 7    1  0.2817603E-011  0.5052886E+02  0.7816164E-02  0.1300439E+00
        -11   -1    0    0    0    0  0.00000000000E+00  0.00000000000E+00  0.45593999997E+02  0.45594000000E+02  0.51100000000E-03 0.  1.
         11   -1    0    0    0    0 -0.00000000000E+00 -0.00000000000E+00 -0.45593999997E+02  0.45594000000E+02  0.51100000000E-03 0. -1.
    9900012    2    1    2    0    0 -0.21648953565E+02 -0.64124534176E+01  0.33813739053E+02  0.50528859601E+02  0.29999999242E+02 0.  0.
        -12    1    1    2    0    0  0.21648953565E+02  0.64124534176E+01 -0.33813739053E+02  0.40659140399E+02  0.00000000000E+00 0.  1.
         11    1    3    3    0    0  0.30193230027E+01  0.22205299559E+01  0.45481756560E+01  0.58934681418E+01  0.51100000000E-03 0. -1.
        -11    1    3    3    0    0  0.98001844696E+00 -0.73990482938E+01  0.10266982368E+02  0.12693198140E+02  0.51100000000E-03 0.  1.
        -12    1    3    3    0    0 -0.25648295015E+02 -0.12339350797E+01  0.18998581028E+02  0.31942193319E+02  0.00000000000E+00 0.  1.
</event>
<event>
 7    1  0.2817603E-011  0.5052886E+02  0.7816164E-02  0.1300439E+00
        -11   -1    0    0    0    0  0.00000000000E+00  0.00000000000E+00  0.45593999997E+02  0.45594000000E+02  0.51100000000E-03 0.  1.
         11   -1    0    0    0    0 -0.00000000000E+00 -0.00000000000E+00 -0.45593999997E+02  0.45594000000E+02  0.51100000000E-03 0. -1.
    9900012    2    1    2    0    0  0.11596343364E+02  0.75177502355E+01 -0.38238378949E+02  0.50528863602E+02  0.30000011404E+02 0.  0.
        -12    1    1    2    0    0 -0.11596343364E+02 -0.75177502355E+01  0.38238378949E+02  0.40659136398E+02  0.00000000000E+00 0.  1.
         11    1    3    3    0    0  0.17280826929E+02 -0.13686419883E+01 -0.16286071891E+02  0.23785211753E+02  0.51100000000E-03 0. -1.
        -11    1    3    3    0    0 -0.37699888842E+01 -0.17313287361E+01 -0.37931312567E+01  0.56212240990E+01  0.51100000000E-03 0.  1.
        -12    1    3    3    0    0 -0.19144946807E+01  0.10617720960E+02 -0.18159175801E+02  0.21122427750E+02  0.00000000000E+00 0.  1.
</event>
<event>
 7    1  0.2817603E-011  0.5052886E+02  0.7816164E-02  0.1300439E+00
        -11   -1    0    0    0    0  0.00000000000E+00  0.00000000000E+00  0.45593999997E+02  0.45594000000E+02  0.51100000000E-03 0.  1.
         11   -1    0    0    0    0 -0.00000000000E+00 -0.00000000000E+00 -0.45593999997E+02  0.45594000000E+02  0.51100000000E-03 0. -1.
    9900012    2    1    2    0    0 -0.13597570927E+02 -0.11411365607E+01 -0.38301039542E+02  0.50528858866E+02  0.29999997009E+02 0.  0.
        -12    1    1    2    0    0  0.13597570927E+02  0.11411365607E+01  0.38301039542E+02  0.40659141134E+02  0.00000000000E+00 0.  1.
         11    1    3    3    0    0 -0.10664135612E+02  0.66224797449E+01 -0.30163015807E+02  0.32670912891E+02  0.51100000000E-03 0. -1.
        -11    1    3    3    0    0 -0.45571846228E+01  0.23971854107E+01 -0.48022421787E+01  0.70410197971E+01  0.51100000000E-03 0.  1.
        -12    1    3    3    0    0  0.16237493082E+01 -0.10160801716E+02 -0.33357815565E+01  0.10816926177E+02  0.00000000000E+00 0.  1.
</event>
<event>
 7    1  0.2817603E-011  0.5052885E+02  0.7816164E-02  0.1300439E+00
        -11   -1    0    0    0    0  0.00000000000E+00  0.00000000000E+00  0.45593999997E+02  0.45594000000E+02  0.51100000000E-03 0.  1.
         11   -1    0    0    0    0 -0.00000000000E+00 -0.00000000000E+00 -0.45593999997E+02  0.45594000000E+02  0.51100000000E-03 0. -1.
    9900012    2    1    2    0    0 -0.26644934893E+01 -0.56846033817E+01 -0.40171530129E+02  0.50528854976E+02  0.29999985187E+02 0.  0.
        -12    1    1    2    0    0  0.26644934893E+01  0.56846033817E+01  0.40171530129E+02  0.40659145024E+02  0.00000000000E+00 0.  1.
         11    1    3    3    0    0  0.29708979935E+01  0.15707789824E+01 -0.10762617136E+02  0.11275083564E+02  0.51100000000E-03 0. -1.
        -11    1    3    3    0    0  0.20977017381E+00  0.79432358404E+01 -0.17051097448E+02  0.18811669878E+02  0.51100000000E-03 0.  1.
        -12    1    3    3    0    0 -0.58451616566E+01 -0.15198618204E+02 -0.12357815544E+02  0.20442101534E+02  0.00000000000E+00 0.  1.
</event>
<event>
 7    1  0.2817603E-011  0.5052887E+02  0.7816164E-02  0.1300439E+00
        -11   -1    0    0    0    0  0.00000000000E+00  0.00000000000E+00  0.45593999997E+02  0.45594000000E+02  0.51100000000E-03 0. -1.
         11   -1    0    0    0    0 -0.00000000000E+00 -0.00000000000E+00 -0.45593999997E+02  0.45594000000E+02  0.51100000000E-03 0.  1.
    9900012    2    1    2    0    0  0.29567209834E+02 -0.17563159746E+02  0.21690562049E+02  0.50528868680E+02  0.30000026841E+02 0.  0.
        -12    1    1    2    0    0 -0.29567209834E+02  0.17563159746E+02 -0.21690562049E+02  0.40659131320E+02  0.00000000000E+00 0.  1.
         11    1    3    3    0    0  0.75240659385E+00  0.10467775768E+01 -0.10461875645E+01  0.16602312065E+01  0.51100000000E-03 0. -1.
        -11    1    3    3    0    0  0.84921670922E+01  0.61492146836E+01  0.97070016228E+01  0.14288303745E+02  0.51100000000E-03 0.  1.
         12    1    3    3    0    0  0.20322636148E+02 -0.24759152007E+02  0.13029747991E+02  0.34580333729E+02  0.00000000000E+00 0. -1.
</event>
<event>
 7    1  0.2817603E-011  0.5052885E+02  0.7816164E-02  0.1300439E+00
        -11   -1    0    0    0    0  0.00000000000E+00  0.00000000000E+00  0.45593999997E+02  0.45594000000E+02  0.51100000000E-03 0.  1.
         11   -1    0    0    0    0 -0.00000000000E+00 -0.00000000000E+00 -0.45593999997E+02  0.45594000000E+02  0.51100000000E-03 0. -1.
    9900012    2    1    2    0    0  0.43541798540E+00 -0.13712234391E+02 -0.38274680440E+02  0.50528854367E+02  0.29999983334E+02 0.  0.
        -12    1    1    2    0    0 -0.43541798540E+00  0.13712234391E+02  0.38274680440E+02  0.40659145633E+02  0.00000000000E+00 0.  1.
         11    1    3    3    0    0  0.44623907073E+01 -0.10801027908E+02 -0.19434304010E+02  0.22677462541E+02  0.51100000000E-03 0. -1.
        -11    1    3    3    0    0  0.69413811006E+01 -0.56741733541E+01 -0.62649382503E+01  0.10937479892E+02  0.51100000000E-03 0.  1.
         12    1    3    3    0    0 -0.10968353823E+02  0.27629668713E+01 -0.12575438180E+02  0.16913911934E+02  0.00000000000E+00 0. -1.
</event>
<event>
 7    1  0.2817603E-011  0.5052894E+02  0.7816164E-02  0.1300439E+00
        -11   -1    0    0    0    0  0.00000000000E+00  0.00000000000E+00  0.45593999997E+02  0.45594000000E+02  0.51100000000E-03 0. -1.
         11   -1    0    0    0    0 -0.00000000000E+00 -0.00000000000E+00 -0.45593999997E+02  0.45594000000E+02  0.51100000000E-03 0.  1.
    9900012    2    1    2    0    0  0.13724079086E+02 -0.23351149990E+02  0.30323796784E+02  0.50528939460E+02  0.30000241981E+02 0.  0.
        -12    1    1    2    0    0 -0.13724079086E+02  0.23351149990E+02 -0.30323796784E+02  0.40659060540E+02  0.00000000000E+00 0.  1.
         11    1    3    3    0    0  0.44306835802E+01 -0.36762490788E+01  0.16333059272E+02  0.17318042318E+02  0.51100000000E-03 0. -1.
        -11    1    3    3    0    0  0.29471399506E+01  0.30785794609E+01 -0.19773062069E+01  0.46981938532E+01  0.51100000000E-03 0.  1.
        -12    1    3    3    0    0  0.63462555550E+01 -0.22753480372E+02  0.15968043719E+02  0.28512703289E+02  0.00000000000E+00 0.  1.
</event>
<event>
 7    1  0.2817603E-011  0.5052886E+02  0.7816164E-02  0.1300439E+00
        -11   -1    0    0    0    0  0.00000000000E+00  0.00000000000E+00  0.45593999997E+02  0.45594000000E+02  0.51100000000E-03 0.  1.
         11   -1    0    0    0    0 -0.00000000000E+00 -0.00000000000E+00 -0.45593999997E+02  0.45594000000E+02  0.51100000000E-03 0. -1.
    9900012    2    1    2    0    0  0.26037855282E+02  0.18025999651E+02 -0.25500177131E+02  0.50528860747E+02  0.30000002726E+02 0.  0.
        -12    1    1    2    0    0 -0.26037855282E+02 -0.18025999651E+02  0.25500177131E+02  0.40659139253E+02  0.00000000000E+00 0.  1.
         11    1    3    3    0    0  0.83373553536E+01 -0.21074872374E+01 -0.16836697272E+02  0.18905749708E+02  0.51100000000E-03 0. -1.
        -11    1    3    3    0    0  0.18008509964E+00  0.77543423217E+01  0.14751962627E+01  0.78954708384E+01  0.51100000000E-03 0.  1.
        -12    1    3    3    0    0  0.17520414829E+02  0.12379144567E+02 -0.10138676122E+02  0.23727640200E+02  0.00000000000E+00 0.  1.
</event>
<event>
 7    1  0.2817603E-011  0.5052885E+02  0.7816164E-02  0.1300439E+00
        -11   -1    0    0    0    0  0.00000000000E+00  0.00000000000E+00  0.45593999997E+02  0.45594000000E+02  0.51100000000E-03 0.  1.
         11   -1    0    0    0    0 -0.00000000000E+00 -0.00000000000E+00 -0.45593999997E+02  0.45594000000E+02  0.51100000000E-03 0. -1.
    9900012    2    1    2    0    0  0.19394517002E+02 -0.22452263806E+02 -0.27801345179E+02  0.50528853015E+02  0.29999979225E+02 0.  0.
        -12    1    1    2    0    0 -0.19394517002E+02  0.22452263806E+02  0.27801345179E+02  0.40659146985E+02  0.00000000000E+00 0.  1.
         11    1    3    3    0    0 -0.28398806050E+01  0.16625685230E+00  0.10385150876E+01  0.30283786157E+01  0.51100000000E-03 0. -1.
        -11    1    3    3    0    0 -0.36325176643E+01 -0.40767427748E+01 -0.71054005375E+01  0.89611234393E+01  0.51100000000E-03 0.  1.
         12    1    3    3    0    0  0.25866915271E+02 -0.18541777884E+02 -0.21734459729E+02  0.38539350960E+02  0.00000000000E+00 0. -1.
</event>
<event>
 7    1  0.2817603E-011  0.5052887E+02  0.7816164E-02  0.1300439E+00
        -11   -1    0    0    0    0  0.00000000000E+00  0.00000000000E+00  0.45593999997E+02  0.45594000000E+02  0.51100000000E-03 0.  1.
         11   -1    0    0    0    0 -0.00000000000E+00 -0.00000000000E+00 -0.45593999997E+02  0.45594000000E+02  0.51100000000E-03 0. -1.
    9900012    2    1    2    0    0  0.24268239157E+02  0.22099038689E+02 -0.23996865156E+02  0.50528874578E+02  0.30000044767E+02 0.  0.
        -12    1    1    2    0    0 -0.24268239157E+02 -0.22099038689E+02  0.23996865156E+02  0.40659125422E+02  0.00000000000E+00 0.  1.
         11    1    3    3    0    0  0.89155487085E+01  0.12240683154E+02 -0.11214194516E+02  0.18843553056E+02  0.51100000000E-03 0. -1.
        -11    1    3    3    0    0 -0.29800909938E+01 -0.89212995915E+00  0.36683068770E+01  0.48097103655E+01  0.51100000000E-03 0.  1.
         12    1    3    3    0    0  0.18332781443E+02  0.10750485494E+02 -0.16450977517E+02  0.26875611157E+02  0.00000000000E+00 0. -1.
</event>
<event>
 7    1  0.2817603E-011  0.5052886E+02  0.7816164E-02  0.1300439E+00
        -11   -1    0    0    0    0  0.00000000000E+00  0.00000000000E+00  0.45593999997E+02  0.45594000000E+02  0.51100000000E-03 0.  1.
         11   -1    0    0    0    0 -0.00000000000E+00 -0.00000000000E+00 -0.45593999997E+02  0.45594000000E+02  0.51100000000E-03 0. -1.
    9900012    2    1    2    0    0  0.13013847356E+02  0.14026228808E+01 -0.38494654760E+02  0.50528855652E+02  0.29999987241E+02 0.  0.
        -12    1    1    2    0    0 -0.13013847356E+02 -0.14026228808E+01  0.38494654760E+02  0.40659144348E+02  0.00000000000E+00 0.  1.
         11    1    3    3    0    0  0.14780247963E+02 -0.17958912758E+01 -0.27455605175E+02  0.31232854675E+02  0.51100000000E-03 0. -1.
        -11    1    3    3    0    0  0.42683442810E+01  0.13014860223E+01 -0.12086529153E+02  0.12883975163E+02  0.51100000000E-03 0.  1.
        -12    1    3    3    0    0 -0.60347448880E+01  0.18970281342E+01  0.10474795681E+01  0.64120258149E+01  0.00000000000E+00 0.  1.
</event>
<event>
 7    1  0.2817603E-011  0.5052886E+02  0.7816164E-02  0.1300439E+00
        -11   -1    0    0    0    0  0.00000000000E+00  0.00000000000E+00  0.45593999997E+02  0.45594000000E+02  0.51100000000E-03 0. -1.
         11   -1    0    0    0    0 -0.00000000000E+00 -0.00000000000E+00 -0.45593999997E+02  0.45594000000E+02  0.51100000000E-03 0.  1.
    9900012    2    1    2    0    0  0.13362947082E+02  0.17528149662E+02  0.34166668413E+02  0.50528860613E+02  0.30000002318E+02 0.  0.
        -12    1    1    2    0    0 -0.13362947082E+02 -0.17528149662E+02 -0.34166668413E+02  0.40659139387E+02  0.00000000000E+00 0.  1.
         11    1    3    3    0    0  0.81994404615E+01  0.11034277115E+02  0.54442141981E+01  0.14785992149E+02  0.51100000000E-03 0.  1.
        -11    1    3    3    0    0 -0.97616876677E+00 -0.66733743897E+01  0.92728118136E+01  0.11466118367E+02  0.51100000000E-03 0. -1.
         12    1    3    3    0    0  0.61396753872E+01  0.13167246936E+02  0.19449642401E+02  0.24276750097E+02  0.00000000000E+00 0. -1.
</event>
<event>
 7    1  0.2817603E-011  0.5052889E+02  0.7816164E-02  0.1300439E+00
        -11   -1    0    0    0    0  0.00000000000E+00  0.00000000000E+00  0.45593999997E+02  0.45594000000E+02  0.51100000000E-03 0. -1.
         11   -1    0    0    0    0 -0.00000000000E+00 -0.00000000000E+00 -0.45593999997E+02  0.45594000000E+02  0.51100000000E-03 0.  1.
    9900012    2    1    2    0    0 -0.23936819588E+02 -0.28407507987E+02  0.16528927049E+02  0.50528889442E+02  0.30000089946E+02 0.  0.
        -12    1    1    2    0    0  0.23936819588E+02  0.28407507987E+02 -0.16528927049E+02  0.40659110558E+02  0.00000000000E+00 0.  1.
         11    1    3    3    0    0 -0.68040588033E+01 -0.57460109192E+01  0.40801875384E+01  0.97959067111E+01  0.51100000000E-03 0.  1.
        -11    1    3    3    0    0 -0.18734910866E+02 -0.33527813338E+01  0.90005952240E+01  0.21053473407E+02  0.51100000000E-03 0. -1.
         12    1    3    3    0    0  0.16021500823E+01 -0.19308715734E+02  0.34481442864E+01  0.19679509324E+02  0.00000000000E+00 0. -1.
</event>
<event>
 7    1  0.2817603E-011  0.5052886E+02  0.7816164E-02  0.1300439E+00
        -11   -1    0    0    0    0  0.00000000000E+00  0.00000000000E+00  0.45593999997E+02  0.45594000000E+02  0.51100000000E-03 0.  1.
         11   -1    0    0    0    0 -0.00000000000E+00 -0.00000000000E+00 -0.45593999997E+02  0.45594000000E+02  0.51100000000E-03 0. -1.
    9900012    2    1    2    0    0 -0.11541557835E+02  0.30976575510E+02 -0.23672984885E+02  0.50528855875E+02  0.29999987919E+02 0.  0.
        -12    1    1    2    0    0  0.11541557835E+02 -0.30976575510E+02  0.23672984885E+02  0.40659144125E+02  0.00000000000E+00 0.  1.
         11    1    3    3    0    0 -0.48049394671E+01  0.19082008106E+01 -0.19620839948E+01  0.55297782487E+01  0.51100000000E-03 0. -1.
        -11    1    3    3    0    0 -0.16194966946E+02  0.23109566226E+02 -0.14951715449E+02  0.31935603966E+02  0.51100000000E-03 0.  1.
        -12    1    3    3    0    0  0.94583485783E+01  0.59588084732E+01 -0.67591854419E+01  0.13063473661E+02  0.00000000000E+00 0.  1.
</event>
<event>
 7    1  0.2817603E-011  0.5052884E+02  0.7816164E-02  0.1300439E+00
        -11   -1    0    0    0    0  0.00000000000E+00  0.00000000000E+00  0.45593999997E+02  0.45594000000E+02  0.51100000000E-03 0. -1.
         11   -1    0    0    0    0 -0.00000000000E+00 -0.00000000000E+00 -0.45593999997E+02  0.45594000000E+02  0.51100000000E-03 0.  1.
    9900012    2    1    2    0    0 -0.13025310342E+02  0.28101935632E+02  0.26339884469E+02  0.50528843471E+02  0.29999950216E+02 0.  0.
        -12    1    1    2    0    0  0.13025310342E+02 -0.28101935632E+02 -0.26339884469E+02  0.40659156529E+02  0.00000000000E+00 0.  1.
         11    1    3    3    0    0 -0.85332828666E+01  0.26347109225E+02  0.20621682676E+02  0.34528841244E+02  0.51100000000E-03 0. -1.
        -11    1    3    3    0    0 -0.26525307523E+01  0.56320551765E+01  0.87550165889E+01  0.10742731526E+02  0.51100000000E-03 0.  1.
        -12    1    3    3    0    0 -0.18394967235E+01 -0.38772287694E+01 -0.30368147960E+01  0.52572707017E+01  0.00000000000E+00 0.  1.
</event>
<event>
 7    1  0.2817603E-011  0.5052887E+02  0.7816164E-02  0.1300439E+00
        -11   -1    0    0    0    0  0.00000000000E+00  0.00000000000E+00  0.45593999997E+02  0.45594000000E+02  0.51100000000E-03 0.  1.
         11   -1    0    0    0    0 -0.00000000000E+00 -0.00000000000E+00 -0.45593999997E+02  0.45594000000E+02  0.51100000000E-03 0. -1.
    9900012    2    1    2    0    0  0.31938444967E+02 -0.24857508652E+02 -0.38993627300E+01  0.50528867779E+02  0.30000024101E+02 0.  0.
        -12    1    1    2    0    0 -0.31938444967E+02  0.24857508652E+02  0.38993627300E+01  0.40659132221E+02  0.00000000000E+00 0.  1.
         11    1    3    3    0    0  0.14347523847E+02 -0.18910273445E+02 -0.53916822113E+01  0.24341736167E+02  0.51100000000E-03 0. -1.
        -11    1    3    3    0    0  0.10630602270E+02 -0.76740927579E+01 -0.71683568582E+01  0.14942782357E+02  0.51100000000E-03 0.  1.
        -12    1    3    3    0    0  0.69603188503E+01  0.17268575509E+01  0.86606763395E+01  0.11244349255E+02  0.00000000000E+00 0.  1.
</event>
<event>
 7    1  0.2817603E-011  0.5052886E+02  0.7816164E-02  0.1300439E+00
        -11   -1    0    0    0    0  0.00000000000E+00  0.00000000000E+00  0.45593999997E+02  0.45594000000E+02  0.51100000000E-03 0.  1.
         11   -1    0    0    0    0 -0.00000000000E+00 -0.00000000000E+00 -0.45593999997E+02  0.45594000000E+02  0.51100000000E-03 0. -1.
    9900012    2    1    2    0    0  0.10257229140E+02  0.21551754407E+02 -0.32916205674E+02  0.50528862483E+02  0.30000008004E+02 0.  0.
        -12    1    1    2    0    0 -0.10257229140E+02 -0.21551754407E+02  0.32916205674E+02  0.40659137517E+02  0.00000000000E+00 0.  1.
         11    1    3    3    0    0  0.20742756024E+01  0.15044578800E+02 -0.17697996210E+02  0.23320828473E+02  0.51100000000E-03 0. -1.
        -11    1    3    3    0    0 -0.59439456304E+01  0.85072244447E+00 -0.48008990888E+00  0.60236786864E+01  0.51100000000E-03 0.  1.
         12    1    3    3    0    0  0.14126899168E+02  0.56564531624E+01 -0.14738119555E+02  0.21184355324E+02  0.00000000000E+00 0. -1.
</event>
<event>
 7    1  0.2817603E-011  0.5052885E+02  0.7816164E-02  0.1300439E+00
        -11   -1    0    0    0    0  0.00000000000E+00  0.00000000000E+00  0.45593999997E+02  0.45594000000E+02  0.51100000000E-03 0.  1.
         11   -1    0    0    0    0 -0.00000000000E+00 -0.00000000000E+00 -0.45593999997E+02  0.45594000000E+02  0.51100000000E-03 0. -1.
    9900012    2    1    2    0    0 -0.27282225201E+02 -0.29791736212E+02  0.46151216974E+01  0.50528847196E+02  0.29999961536E+02 0.  0.
        -12    1    1    2    0    0  0.27282225201E+02  0.29791736212E+02 -0.46151216974E+01  0.40659152804E+02  0.00000000000E+00 0.  1.
         11    1    3    3    0    0 -0.16348376149E+02 -0.16896015222E+01 -0.20112375608E+00  0.16436684795E+02  0.51100000000E-03 0. -1.
        -11    1    3    3    0    0  0.71700968786E+00  0.12723322049E+01 -0.12406378397E+01  0.19162762438E+01  0.51100000000E-03 0.  1.
         12    1    3    3    0    0 -0.11650858740E+02 -0.29374466895E+02  0.60568832932E+01  0.32175886157E+02  0.00000000000E+00 0. -1.
</event>
<event>
 7    1  0.2817603E-011  0.5052885E+02  0.7816164E-02  0.1300439E+00
        -11   -1    0    0    0    0  0.00000000000E+00  0.00000000000E+00  0.45593999997E+02  0.45594000000E+02  0.51100000000E-03 0.  1.
         11   -1    0    0    0    0 -0.00000000000E+00 -0.00000000000E+00 -0.45593999997E+02  0.45594000000E+02  0.51100000000E-03 0. -1.
    9900012    2    1    2    0    0 -0.39249024643E+02  0.13444919041E+01 -0.10529631438E+02  0.50528846884E+02  0.29999960589E+02 0.  0.
        -12    1    1    2    0    0  0.39249024643E+02 -0.13444919041E+01  0.10529631438E+02  0.40659153116E+02  0.00000000000E+00 0.  1.
         11    1    3    3    0    0 -0.40003145308E+01  0.65990291400E+01  0.12522385579E+01  0.78177876412E+01  0.51100000000E-03 0. -1.
        -11    1    3    3    0    0 -0.62126000077E+01  0.71457049344E+01 -0.31553425259E+01  0.99806655380E+01  0.51100000000E-03 0.  1.
         12    1    3    3    0    0 -0.29036110104E+02 -0.12400242170E+02 -0.86265274700E+01  0.32730393705E+02  0.00000000000E+00 0. -1.
</event>
<event>
 7    1  0.2817603E-011  0.5052884E+02  0.7816164E-02  0.1300439E+00
        -11   -1    0    0    0    0  0.00000000000E+00  0.00000000000E+00  0.45593999997E+02  0.45594000000E+02  0.51100000000E-03 0.  1.
         11   -1    0    0    0    0 -0.00000000000E+00 -0.00000000000E+00 -0.45593999997E+02  0.45594000000E+02  0.51100000000E-03 0. -1.
    9900012    2    1    2    0    0  0.70655455557E+01  0.15966581857E+02 -0.36719385669E+02  0.50528844154E+02  0.29999952290E+02 0.  0.
        -12    1    1    2    0    0 -0.70655455557E+01 -0.15966581857E+02  0.36719385669E+02  0.40659155846E+02  0.00000000000E+00 0.  1.
         11    1    3    3    0    0  0.83179623125E+01  0.43933339541E+01 -0.54819471244E+01  0.10887682251E+02  0.51100000000E-03 0. -1.
        -11    1    3    3    0    0  0.60599189568E+01  0.15088963791E+02 -0.19871185007E+02  0.25676125874E+02  0.51100000000E-03 0.  1.
         12    1    3    3    0    0 -0.73123357136E+01 -0.35157158880E+01 -0.11366253538E+02  0.13965036028E+02  0.00000000000E+00 0. -1.
</event>
<event>
 7    1  0.2817603E-011  0.5052885E+02  0.7816164E-02  0.1300439E+00
        -11   -1    0    0    0    0  0.00000000000E+00  0.00000000000E+00  0.45593999997E+02  0.45594000000E+02  0.51100000000E-03 0.  1.
         11   -1    0    0    0    0 -0.00000000000E+00 -0.00000000000E+00 -0.45593999997E+02  0.45594000000E+02  0.51100000000E-03 0. -1.
    9900012    2    1    2    0    0  0.40277439437E+01 -0.18646036516E+02 -0.35906395207E+02  0.50528848314E+02  0.29999964936E+02 0.  0.
        -12    1    1    2    0    0 -0.40277439437E+01  0.18646036516E+02  0.35906395207E+02  0.40659151686E+02  0.00000000000E+00 0.  1.
         11    1    3    3    0    0  0.51473616343E+01 -0.27842239104E+01  0.15661254663E+01  0.60580511565E+01  0.51100000000E-03 0. -1.
        -11    1    3    3    0    0 -0.58468215201E+01 -0.16771086876E+01 -0.27686152437E+01  0.66830566410E+01  0.51100000000E-03 0.  1.
         12    1    3    3    0    0  0.47272038294E+01 -0.14184703918E+02 -0.34703905430E+02  0.37787740517E+02  0.00000000000E+00 0. -1.
</event>
<event>
 7    1  0.2817603E-011  0.5052886E+02  0.7816164E-02  0.1300439E+00
        -11   -1    0    0    0    0  0.00000000000E+00  0.00000000000E+00  0.45593999997E+02  0.45594000000E+02  0.51100000000E-03 0.  1.
         11   -1    0    0    0    0 -0.00000000000E+00 -0.00000000000E+00 -0.45593999997E+02  0.45594000000E+02  0.51100000000E-03 0. -1.
    9900012    2    1    2    0    0  0.43615558234E-01  0.14293742374E+02 -0.38063798132E+02  0.50528859556E+02  0.29999999107E+02 0.  0.
        -12    1    1    2    0    0 -0.43615558234E-01 -0.14293742374E+02  0.38063798132E+02  0.40659140444E+02  0.00000000000E+00 0.  1.
         11    1    3    3    0    0  0.63848496381E+00  0.71003952166E+01 -0.21368598614E+01  0.74424085892E+01  0.51100000000E-03 0. -1.
        -11    1    3    3    0    0 -0.36373268454E+01  0.11354293024E+02 -0.72586460175E+01  0.13958440418E+02  0.51100000000E-03 0.  1.
         12    1    3    3    0    0  0.30424574398E+01 -0.41609458666E+01 -0.28668292254E+02  0.29128010549E+02  0.00000000000E+00 0. -1.
</event>
<event>
 7    1  0.2817603E-011  0.5052887E+02  0.7816164E-02  0.1300439E+00
        -11   -1    0    0    0    0  0.00000000000E+00  0.00000000000E+00  0.45593999997E+02  0.45594000000E+02  0.51100000000E-03 0. -1.
         11   -1    0    0    0    0 -0.00000000000E+00 -0.00000000000E+00 -0.45593999997E+02  0.45594000000E+02  0.51100000000E-03 0.  1.
    9900012    2    1    2    0    0 -0.50780166916E+01  0.74228723247E+01  0.39651983997E+02  0.50528866685E+02  0.30000020775E+02 0.  0.
        -12    1    1    2    0    0  0.50780166916E+01 -0.74228723247E+01 -0.39651983997E+02  0.40659133315E+02  0.00000000000E+00 0.  1.
         11    1    3    3    0    0  0.21256247871E+01 -0.40603399833E+01  0.31657585818E+01  0.55701588105E+01  0.51100000000E-03 0. -1.
        -11    1    3    3    0    0  0.30589389736E+01 -0.31175689516E+01  0.20624795791E+02  0.21082185501E+02  0.51100000000E-03 0.  1.
         12    1    3    3    0    0 -0.10262580452E+02  0.14600781260E+02  0.15861429624E+02  0.23876522373E+02  0.00000000000E+00 0. -1.
</event>
<event>
 7    1  0.2817603E-011  0.5052885E+02  0.7816164E-02  0.1300439E+00
        -11   -1    0    0    0    0  0.00000000000E+00  0.00000000000E+00  0.45593999997E+02  0.45594000000E+02  0.51100000000E-03 0.  1.
         11   -1    0    0    0    0 -0.00000000000E+00 -0.00000000000E+00 -0.45593999997E+02  0.45594000000E+02  0.51100000000E-03 0. -1.
    9900012    2    1    2    0    0 -0.21501367559E+02 -0.23542464675E+02 -0.25231124999E+02  0.50528854429E+02  0.29999983522E+02 0.  0.
        -12    1    1    2    0    0  0.21501367559E+02  0.23542464675E+02  0.25231124999E+02  0.40659145571E+02  0.00000000000E+00 0.  1.
         11    1    3    3    0    0 -0.36463373890E+01 -0.22117150285E+01 -0.69102821138E+01  0.81203115011E+01  0.51100000000E-03 0. -1.
        -11    1    3    3    0    0 -0.11570222327E+02 -0.25079936572E+02 -0.20913627271E+02  0.34644668696E+02  0.51100000000E-03 0.  1.
        -12    1    3    3    0    0 -0.62848078429E+01  0.37491869254E+01  0.25927843855E+01  0.77638742322E+01  0.00000000000E+00 0.  1.
</event>
<event>
 7    1  0.2817603E-011  0.5052886E+02  0.7816164E-02  0.1300439E+00
        -11   -1    0    0    0    0  0.00000000000E+00  0.00000000000E+00  0.45593999997E+02  0.45594000000E+02  0.51100000000E-03 0. -1.
         11   -1    0    0    0    0 -0.00000000000E+00 -0.00000000000E+00 -0.45593999997E+02  0.45594000000E+02  0.51100000000E-03 0.  1.
    9900012    2    1    2    0    0  0.27991563017E+02 -0.28236358492E+02  0.85056352402E+01  0.50528863611E+02  0.30000011433E+02 0.  0.
        -12    1    1    2    0    0 -0.27991563017E+02  0.28236358492E+02 -0.85056352402E+01  0.40659136389E+02  0.00000000000E+00 0.  1.
         11    1    3    3    0    0  0.31879027960E+01  0.11899621344E+01  0.90220309096E+01  0.96423947291E+01  0.51100000000E-03 0. -1.
        -11    1    3    3    0    0 -0.12105479114E+01 -0.97392804758E+00 -0.17168659056E+01  0.23155109342E+01  0.51100000000E-03 0.  1.
        -12    1    3    3    0    0  0.26014208133E+02 -0.28452392579E+02  0.12004702361E+01  0.38570957948E+02  0.00000000000E+00 0.  1.
</event>
<event>
 7    1  0.2817603E-011  0.5052886E+02  0.7816164E-02  0.1300439E+00
        -11   -1    0    0    0    0  0.00000000000E+00  0.00000000000E+00  0.45593999997E+02  0.45594000000E+02  0.51100000000E-03 0.  1.
         11   -1    0    0    0    0 -0.00000000000E+00 -0.00000000000E+00 -0.45593999997E+02  0.45594000000E+02  0.51100000000E-03 0. -1.
    9900012    2    1    2    0    0  0.82202164915E+00  0.29569133086E+02 -0.27895451416E+02  0.50528861289E+02  0.30000004374E+02 0.  0.
        -12    1    1    2    0    0 -0.82202164915E+00 -0.29569133086E+02  0.27895451416E+02  0.40659138711E+02  0.00000000000E+00 0.  1.
         11    1    3    3    0    0 -0.67968952437E+01  0.13098921069E+02 -0.13826441505E+02  0.20222512284E+02  0.51100000000E-03 0. -1.
        -11    1    3    3    0    0  0.98433559183E+01  0.17253792887E+02 -0.17275848927E+02  0.26325652529E+02  0.51100000000E-03 0.  1.
         12    1    3    3    0    0 -0.22244390255E+01 -0.78358087026E+00  0.32068390155E+01  0.39806964754E+01  0.00000000000E+00 0. -1.
</event>
<event>
 7    1  0.2817603E-011  0.5052888E+02  0.7816164E-02  0.1300439E+00
        -11   -1    0    0    0    0  0.00000000000E+00  0.00000000000E+00  0.45593999997E+02  0.45594000000E+02  0.51100000000E-03 0.  1.
         11   -1    0    0    0    0 -0.00000000000E+00 -0.00000000000E+00 -0.45593999997E+02  0.45594000000E+02  0.51100000000E-03 0. -1.
    9900012    2    1    2    0    0  0.40638901664E+02  0.11722709802E+01  0.51890674582E+00  0.50528882795E+02  0.30000069743E+02 0.  0.
        -12    1    1    2    0    0 -0.40638901664E+02 -0.11722709802E+01 -0.51890674582E+00  0.40659117205E+02  0.00000000000E+00 0.  1.
         11    1    3    3    0    0  0.11332005069E+01 -0.56089644271E+01 -0.12752647404E+01  0.58626722364E+01  0.51100000000E-03 0. -1.
        -11    1    3    3    0    0  0.26025218235E+02  0.16514182823E+01  0.10166063951E+02  0.27989069707E+02  0.51100000000E-03 0.  1.
        -12    1    3    3    0    0  0.13480482922E+02  0.51298171250E+01 -0.83718924649E+01  0.16677140852E+02  0.00000000000E+00 0.  1.
</event>
<event>
 7    1  0.2817603E-011  0.5052886E+02  0.7816164E-02  0.1300439E+00
        -11   -1    0    0    0    0  0.00000000000E+00  0.00000000000E+00  0.45593999997E+02  0.45594000000E+02  0.51100000000E-03 0.  1.
         11   -1    0    0    0    0 -0.00000000000E+00 -0.00000000000E+00 -0.45593999997E+02  0.45594000000E+02  0.51100000000E-03 0. -1.
    9900012    2    1    2    0    0 -0.21025964196E+02  0.34556368399E+02 -0.41148461962E+01  0.50528859250E+02  0.29999998177E+02 0.  0.
        -12    1    1    2    0    0  0.21025964196E+02 -0.34556368399E+02  0.41148461962E+01  0.40659140750E+02  0.00000000000E+00 0.  1.
         11    1    3    3    0    0 -0.38248843499E+01 -0.22631848886E+01 -0.50675308315E+01  0.67402978509E+01  0.51100000000E-03 0. -1.
        -11    1    3    3    0    0  0.10061106711E+01 -0.54242698609E-01 -0.23252719582E+01  0.25341844632E+01  0.51100000000E-03 0.  1.
        -12    1    3    3    0    0 -0.18207190517E+02  0.36873795986E+02  0.32779565935E+01  0.41254376936E+02  0.00000000000E+00 0.  1.
</event>
<event>
 7    1  0.2817603E-011  0.5052886E+02  0.7816164E-02  0.1300439E+00
        -11   -1    0    0    0    0  0.00000000000E+00  0.00000000000E+00  0.45593999997E+02  0.45594000000E+02  0.51100000000E-03 0.  1.
         11   -1    0    0    0    0 -0.00000000000E+00 -0.00000000000E+00 -0.45593999997E+02  0.45594000000E+02  0.51100000000E-03 0. -1.
    9900012    2    1    2    0    0  0.16732696334E+02  0.18074590602E+02 -0.32349525684E+02  0.50528858789E+02  0.29999996776E+02 0.  0.
        -12    1    1    2    0    0 -0.16732696334E+02 -0.18074590602E+02  0.32349525684E+02  0.40659141211E+02  0.00000000000E+00 0.  1.
         11    1    3    3    0    0  0.23005024209E+00 -0.62947309908E+00  0.10151115382E+01  0.12163926967E+01  0.51100000000E-03 0. -1.
        -11    1    3    3    0    0  0.33886600736E+01 -0.55852610987E+00  0.40029266130E+01  0.52743141962E+01  0.51100000000E-03 0.  1.
         12    1    3    3    0    0  0.13113986019E+02  0.19262589811E+02 -0.37367563835E+02  0.44038151896E+02  0.00000000000E+00 0. -1.
</event>
<event>
 7    1  0.2817603E-011  0.5052886E+02  0.7816164E-02  0.1300439E+00
        -11   -1    0    0    0    0  0.00000000000E+00  0.00000000000E+00  0.45593999997E+02  0.45594000000E+02  0.51100000000E-03 0.  1.
         11   -1    0    0    0    0 -0.00000000000E+00 -0.00000000000E+00 -0.45593999997E+02  0.45594000000E+02  0.51100000000E-03 0. -1.
    9900012    2    1    2    0    0 -0.35751734746E+02  0.19364044436E+02  0.11271054077E+00  0.50528862553E+02  0.30000008217E+02 0.  0.
        -12    1    1    2    0    0  0.35751734746E+02 -0.19364044436E+02 -0.11271054077E+00  0.40659137447E+02  0.00000000000E+00 0.  1.
         11    1    3    3    0    0  0.65066368404E+00  0.24978868946E+01 -0.57203756665E+00  0.26438663746E+01  0.51100000000E-03 0. -1.
        -11    1    3    3    0    0  0.25493773134E+01  0.24324604854E+01 -0.48319191206E+01  0.59802701735E+01  0.51100000000E-03 0.  1.
         12    1    3    3    0    0 -0.38951775743E+02  0.14433697056E+02  0.55166672280E+01  0.41904726005E+02  0.00000000000E+00 0. -1.
</event>
<event>
 7    1  0.2817603E-011  0.5052886E+02  0.7816164E-02  0.1300439E+00
        -11   -1    0    0    0    0  0.00000000000E+00  0.00000000000E+00  0.45593999997E+02  0.45594000000E+02  0.51100000000E-03 0. -1.
         11   -1    0    0    0    0 -0.00000000000E+00 -0.00000000000E+00 -0.45593999997E+02  0.45594000000E+02  0.51100000000E-03 0.  1.
    9900012    2    1    2    0    0 -0.10018880749E+02 -0.24271098294E+02  0.31043542896E+02  0.50528859092E+02  0.29999997695E+02 0.  0.
        -12    1    1    2    0    0  0.10018880749E+02  0.24271098294E+02 -0.31043542896E+02  0.40659140908E+02  0.00000000000E+00 0.  1.
         11    1    3    3    0    0 -0.40313506410E+01 -0.73129998055E+01  0.13987894596E+02  0.16290885477E+02  0.51100000000E-03 0. -1.
        -11    1    3    3    0    0 -0.19207680776E+01 -0.15944571563E+02  0.22327338277E+02  0.27503249756E+02  0.51100000000E-03 0.  1.
        -12    1    3    3    0    0 -0.40667620304E+01 -0.10135269258E+01 -0.52716899767E+01  0.67347238587E+01  0.00000000000E+00 0.  1.
</event>
<event>
 7    1  0.2817603E-011  0.5052886E+02  0.7816164E-02  0.1300439E+00
        -11   -1    0    0    0    0  0.00000000000E+00  0.00000000000E+00  0.45593999997E+02  0.45594000000E+02  0.51100000000E-03 0.  1.
         11   -1    0    0    0    0 -0.00000000000E+00 -0.00000000000E+00 -0.45593999997E+02  0.45594000000E+02  0.51100000000E-03 0. -1.
    9900012    2    1    2    0    0  0.16227987104E+01 -0.21700598647E+02 -0.34345544282E+02  0.50528857494E+02  0.29999992837E+02 0.  0.
        -12    1    1    2    0    0 -0.16227987104E+01  0.21700598647E+02  0.34345544282E+02  0.40659142506E+02  0.00000000000E+00 0.  1.
         11    1    3    3    0    0  0.75433642909E+00  0.33718828321E+00  0.29473030602E+01  0.30609336773E+01  0.51100000000E-03 0. -1.
        -11    1    3    3    0    0  0.10025651740E+02 -0.11032000602E+02 -0.16677982661E+02  0.22369037440E+02  0.51100000000E-03 0.  1.
         12    1    3    3    0    0 -0.91571894585E+01 -0.11005786329E+02 -0.20614864682E+02  0.25098886377E+02  0.00000000000E+00 0. -1.
</event>
<event>
 7    1  0.2817603E-011  0.5052886E+02  0.7816164E-02  0.1300439E+00
        -11   -1    0    0    0    0  0.00000000000E+00  0.00000000000E+00  0.45593999997E+02  0.45594000000E+02  0.51100000000E-03 0.  1.
         11   -1    0    0    0    0 -0.00000000000E+00 -0.00000000000E+00 -0.45593999997E+02  0.45594000000E+02  0.51100000000E-03 0. -1.
    9900012    2    1    2    0    0  0.24287530325E+02  0.26237089209E+02  0.19362249452E+02  0.50528859782E+02  0.29999999793E+02 0.  0.
        -12    1    1    2    0    0 -0.24287530325E+02 -0.26237089209E+02 -0.19362249452E+02  0.40659140218E+02  0.00000000000E+00 0.  1.
         11    1    3    3    0    0  0.14782302633E+02  0.24025862861E+02  0.14438329174E+02  0.31689492059E+02  0.51100000000E-03 0. -1.
        -11    1    3    3    0    0 -0.30002717745E+01  0.27357918028E+01  0.48465958989E+01  0.63226323297E+01  0.51100000000E-03 0.  1.
        -12    1    3    3    0    0  0.12505499467E+02 -0.52456545547E+00  0.77324378349E-01  0.12516735393E+02  0.00000000000E+00 0.  1.
</event>
<event>
 7    1  0.2817603E-011  0.5052885E+02  0.7816164E-02  0.1300439E+00
        -11   -1    0    0    0    0  0.00000000000E+00  0.00000000000E+00  0.45593999997E+02  0.45594000000E+02  0.51100000000E-03 0.  1.
         11   -1    0    0    0    0 -0.00000000000E+00 -0.00000000000E+00 -0.45593999997E+02  0.45594000000E+02  0.51100000000E-03 0. -1.
    9900012    2    1    2    0    0 -0.17432414247E+02  0.28939659311E+02 -0.22622409544E+02  0.50528851446E+02  0.29999974457E+02 0.  0.
        -12    1    1    2    0    0  0.17432414247E+02 -0.28939659311E+02  0.22622409544E+02  0.40659148554E+02  0.00000000000E+00 0.  1.
         11    1    3    3    0    0 -0.41003065965E+01  0.16487147723E+02 -0.73627895918E+01  0.18516188189E+02  0.51100000000E-03 0. -1.
        -11    1    3    3    0    0 -0.18902673241E+00  0.68852425782E+01 -0.16305707898E+02  0.17700802434E+02  0.51100000000E-03 0.  1.
        -12    1    3    3    0    0 -0.13143080918E+02  0.55672690106E+01  0.10460879464E+01  0.14311860824E+02  0.00000000000E+00 0.  1.
</event>
<event>
 7    1  0.2817603E-011  0.5052886E+02  0.7816164E-02  0.1300439E+00
        -11   -1    0    0    0    0  0.00000000000E+00  0.00000000000E+00  0.45593999997E+02  0.45594000000E+02  0.51100000000E-03 0. -1.
         11   -1    0    0    0    0 -0.00000000000E+00 -0.00000000000E+00 -0.45593999997E+02  0.45594000000E+02  0.51100000000E-03 0.  1.
    9900012    2    1    2    0    0 -0.28532003777E+02  0.28966548299E+02 -0.17267850049E+00  0.50528856161E+02  0.29999988786E+02 0.  0.
        -12    1    1    2    0    0  0.28532003777E+02 -0.28966548299E+02  0.17267850049E+00  0.40659143839E+02  0.00000000000E+00 0.  1.
         11    1    3    3    0    0 -0.43442201834E+01 -0.43781693374E+01  0.17800025883E+00  0.61702755289E+01  0.51100000000E-03 0. -1.
        -11    1    3    3    0    0 -0.40877193442E+01  0.35368890952E+01 -0.58768035246E+01  0.79847262843E+01  0.51100000000E-03 0.  1.
         12    1    3    3    0    0 -0.20100064250E+02  0.29807828541E+02  0.55261247652E+01  0.36373854347E+02  0.00000000000E+00 0. -1.
</event>
<event>
 7    1  0.2817603E-011  0.5052886E+02  0.7816164E-02  0.1300439E+00
        -11   -1    0    0    0    0  0.00000000000E+00  0.00000000000E+00  0.45593999997E+02  0.45594000000E+02  0.51100000000E-03 0.  1.
         11   -1    0    0    0    0 -0.00000000000E+00 -0.00000000000E+00 -0.45593999997E+02  0.45594000000E+02  0.51100000000E-03 0. -1.
    9900012    2    1    2    0    0  0.12171256905E+02 -0.33137864434E+02 -0.20171965021E+02  0.50528859248E+02  0.29999998170E+02 0.  0.
        -12    1    1    2    0    0 -0.12171256905E+02  0.33137864434E+02  0.20171965021E+02  0.40659140752E+02  0.00000000000E+00 0.  1.
         11    1    3    3    0    0  0.88967636184E+01 -0.19015131736E+02 -0.21147606150E+02  0.29798471168E+02  0.51100000000E-03 0. -1.
        -11    1    3    3    0    0  0.65170295553E+01 -0.41520671901E+01  0.53197286534E+01  0.93814097758E+01  0.51100000000E-03 0.  1.
         12    1    3    3    0    0 -0.32425362687E+01 -0.99706655082E+01 -0.43440875239E+01  0.11348978304E+02  0.00000000000E+00 0. -1.
</event>
<event>
 7    1  0.2817603E-011  0.5052886E+02  0.7816164E-02  0.1300439E+00
        -11   -1    0    0    0    0  0.00000000000E+00  0.00000000000E+00  0.45593999997E+02  0.45594000000E+02  0.51100000000E-03 0.  1.
         11   -1    0    0    0    0 -0.00000000000E+00 -0.00000000000E+00 -0.45593999997E+02  0.45594000000E+02  0.51100000000E-03 0. -1.
    9900012    2    1    2    0    0  0.67595203654E+01 -0.66510444121E+01 -0.39537809397E+02  0.50528857372E+02  0.29999992466E+02 0.  0.
        -12    1    1    2    0    0 -0.67595203654E+01  0.66510444121E+01  0.39537809397E+02  0.40659142628E+02  0.00000000000E+00 0.  1.
         11    1    3    3    0    0  0.10395709291E+01  0.25345191771E+01 -0.27421987399E+01  0.38760997622E+01  0.51100000000E-03 0. -1.
        -11    1    3    3    0    0  0.49113248154E+01 -0.18237008683E+02 -0.19694462528E+02  0.27287019838E+02  0.51100000000E-03 0.  1.
         12    1    3    3    0    0  0.80862462091E+00  0.90514450937E+01 -0.17101148130E+02  0.19365737771E+02  0.00000000000E+00 0. -1.
</event>
<event>
 7    1  0.2817603E-011  0.5052885E+02  0.7816164E-02  0.1300439E+00
        -11   -1    0    0    0    0  0.00000000000E+00  0.00000000000E+00  0.45593999997E+02  0.45594000000E+02  0.51100000000E-03 0.  1.
         11   -1    0    0    0    0 -0.00000000000E+00 -0.00000000000E+00 -0.45593999997E+02  0.45594000000E+02  0.51100000000E-03 0. -1.
    9900012    2    1    2    0    0 -0.28386576500E+02  0.20130165781E+01 -0.29039908603E+02  0.50528852778E+02  0.29999978503E+02 0.  0.
        -12    1    1    2    0    0  0.28386576500E+02 -0.20130165781E+01  0.29039908603E+02  0.40659147222E+02  0.00000000000E+00 0.  1.
         11    1    3    3    0    0 -0.58156086174E+01  0.42438260901E+00  0.32687798684E+01  0.66847831887E+01  0.51100000000E-03 0.  1.
        -11    1    3    3    0    0 -0.19550692855E+01 -0.70216400328E+01 -0.75072765792E+01  0.10463504507E+02  0.51100000000E-03 0. -1.
         12    1    3    3    0    0 -0.20615898597E+02  0.86102740019E+01 -0.24801411893E+02  0.33380565082E+02  0.00000000000E+00 0. -1.
</event>
<event>
 7    1  0.2817603E-011  0.5052883E+02  0.7816164E-02  0.1300439E+00
        -11   -1    0    0    0    0  0.00000000000E+00  0.00000000000E+00  0.45593999997E+02  0.45594000000E+02  0.51100000000E-03 0.  1.
         11   -1    0    0    0    0 -0.00000000000E+00 -0.00000000000E+00 -0.45593999997E+02  0.45594000000E+02  0.51100000000E-03 0. -1.
    9900012    2    1    2    0    0  0.47833223921E+01  0.32640547506E+02 -0.23767255527E+02  0.50528831909E+02  0.29999915069E+02 0.  0.
        -12    1    1    2    0    0 -0.47833223921E+01 -0.32640547506E+02  0.23767255527E+02  0.40659168091E+02  0.00000000000E+00 0.  1.
         11    1    3    3    0    0 -0.43932624920E+01  0.12317138189E+01 -0.91294723877E+01  0.10206132499E+02  0.51100000000E-03 0. -1.
        -11    1    3    3    0    0  0.53028494947E-01  0.94111687533E+01  0.38558485505E+01  0.10170569189E+02  0.51100000000E-03 0.  1.
         12    1    3    3    0    0  0.91235563892E+01  0.21997664934E+02 -0.18493631689E+02  0.30152130220E+02  0.00000000000E+00 0. -1.
</event>
<event>
 7    1  0.2817603E-011  0.5052885E+02  0.7816164E-02  0.1300439E+00
        -11   -1    0    0    0    0  0.00000000000E+00  0.00000000000E+00  0.45593999997E+02  0.45594000000E+02  0.51100000000E-03 0.  1.
         11   -1    0    0    0    0 -0.00000000000E+00 -0.00000000000E+00 -0.45593999997E+02  0.45594000000E+02  0.51100000000E-03 0. -1.
    9900012    2    1    2    0    0  0.94196528674E+01  0.30792601207E+02 -0.24824429351E+02  0.50528850454E+02  0.29999971439E+02 0.  0.
        -12    1    1    2    0    0 -0.94196528674E+01 -0.30792601207E+02  0.24824429351E+02  0.40659149546E+02  0.00000000000E+00 0.  1.
         11    1    3    3    0    0  0.72075563542E+01 -0.37672972792E+01 -0.51754392102E+01  0.96398427720E+01  0.51100000000E-03 0. -1.
        -11    1    3    3    0    0 -0.14943675799E+01  0.19524259764E+01  0.31096795888E+00  0.24782661257E+01  0.51100000000E-03 0.  1.
        -12    1    3    3    0    0  0.37064640931E+01  0.32607472510E+02 -0.19959958100E+02  0.38410741556E+02  0.00000000000E+00 0.  1.
</event>
<event>
 7    1  0.2817603E-011  0.5052885E+02  0.7816164E-02  0.1300439E+00
        -11   -1    0    0    0    0  0.00000000000E+00  0.00000000000E+00  0.45593999997E+02  0.45594000000E+02  0.51100000000E-03 0.  1.
         11   -1    0    0    0    0 -0.00000000000E+00 -0.00000000000E+00 -0.45593999997E+02  0.45594000000E+02  0.51100000000E-03 0. -1.
    9900012    2    1    2    0    0 -0.32487346390E+02  0.19480560783E+02 -0.14773159350E+02  0.50528853907E+02  0.29999981935E+02 0.  0.
        -12    1    1    2    0    0  0.32487346390E+02 -0.19480560783E+02  0.14773159350E+02  0.40659146093E+02  0.00000000000E+00 0.  1.
         11    1    3    3    0    0 -0.40226741344E+00  0.24090084713E+01 -0.27179710429E+01  0.36541083369E+01  0.51100000000E-03 0.  1.
        -11    1    3    3    0    0 -0.49733516682E+01 -0.36479538535E+01 -0.11147685024E+02  0.12740199205E+02  0.51100000000E-03 0. -1.
         12    1    3    3    0    0 -0.27111727308E+02  0.20719506165E+02 -0.90750328318E+00  0.34134546365E+02  0.00000000000E+00 0. -1.
</event>
<event>
 7    1  0.2817603E-011  0.5052884E+02  0.7816164E-02  0.1300439E+00
        -11   -1    0    0    0    0  0.00000000000E+00  0.00000000000E+00  0.45593999997E+02  0.45594000000E+02  0.51100000000E-03 0. -1.
         11   -1    0    0    0    0 -0.00000000000E+00 -0.00000000000E+00 -0.45593999997E+02  0.45594000000E+02  0.51100000000E-03 0.  1.
    9900012    2    1    2    0    0 -0.90019230306E+01  0.97673198952E+01  0.38428274547E+02  0.50528838168E+02  0.29999934096E+02 0.  0.
        -12    1    1    2    0    0  0.90019230306E+01 -0.97673198952E+01 -0.38428274547E+02  0.40659161832E+02  0.00000000000E+00 0.  1.
         11    1    3    3    0    0 -0.37473076574E+01 -0.28685506949E+00  0.88025904044E+01  0.95713216746E+01  0.51100000000E-03 0. -1.
        -11    1    3    3    0    0 -0.14044767668E+02 -0.62250978976E+00  0.11528152200E+02  0.18180795107E+02  0.51100000000E-03 0.  1.
        -12    1    3    3    0    0  0.87901522952E+01  0.10676684754E+02  0.18097531943E+02  0.22776721387E+02  0.00000000000E+00 0.  1.
</event>
<event>
 7    1  0.2817603E-011  0.5052885E+02  0.7816164E-02  0.1300439E+00
        -11   -1    0    0    0    0  0.00000000000E+00  0.00000000000E+00  0.45593999997E+02  0.45594000000E+02  0.51100000000E-03 0.  1.
         11   -1    0    0    0    0 -0.00000000000E+00 -0.00000000000E+00 -0.45593999997E+02  0.45594000000E+02  0.51100000000E-03 0. -1.
    9900012    2    1    2    0    0  0.14246902532E+02  0.32820704346E+02 -0.19313033403E+02  0.50528854353E+02  0.29999983292E+02 0.  0.
        -12    1    1    2    0    0 -0.14246902532E+02 -0.32820704346E+02  0.19313033403E+02  0.40659145647E+02  0.00000000000E+00 0.  1.
         11    1    3    3    0    0  0.11818817975E+01  0.16595200716E+02 -0.11783600243E+02  0.20387514963E+02  0.51100000000E-03 0. -1.
        -11    1    3    3    0    0  0.80698465786E+01  0.20377828140E+02 -0.86257637913E+01  0.23553812955E+02  0.51100000000E-03 0.  1.
        -12    1    3    3    0    0  0.49951741557E+01 -0.41523245101E+01  0.10963306314E+01  0.65875264354E+01  0.00000000000E+00 0.  1.
</event>
<event>
 7    1  0.2817603E-011  0.5052886E+02  0.7816164E-02  0.1300439E+00
        -11   -1    0    0    0    0  0.00000000000E+00  0.00000000000E+00  0.45593999997E+02  0.45594000000E+02  0.51100000000E-03 0. -1.
         11   -1    0    0    0    0 -0.00000000000E+00 -0.00000000000E+00 -0.45593999997E+02  0.45594000000E+02  0.51100000000E-03 0.  1.
    9900012    2    1    2    0    0 -0.24081597783E+02  0.19328702783E+02  0.26450783583E+02  0.50528855208E+02  0.29999985891E+02 0.  0.
        -12    1    1    2    0    0  0.24081597783E+02 -0.19328702783E+02 -0.26450783583E+02  0.40659144792E+02  0.00000000000E+00 0.  1.
         11    1    3    3    0    0 -0.90015604015E+01 -0.57252027401E+01  0.14479552505E+01  0.10765807482E+02  0.51100000000E-03 0.  1.
        -11    1    3    3    0    0 -0.40633706352E+01  0.97262768477E+01  0.15189039253E+02  0.18488330264E+02  0.51100000000E-03 0. -1.
        -12    1    3    3    0    0 -0.11016666746E+02  0.15327628676E+02  0.98137890788E+01  0.21274717462E+02  0.00000000000E+00 0.  1.
</event>
<event>
 7    1  0.2817603E-011  0.5052884E+02  0.7816164E-02  0.1300439E+00
        -11   -1    0    0    0    0  0.00000000000E+00  0.00000000000E+00  0.45593999997E+02  0.45594000000E+02  0.51100000000E-03 0. -1.
         11   -1    0    0    0    0 -0.00000000000E+00 -0.00000000000E+00 -0.45593999997E+02  0.45594000000E+02  0.51100000000E-03 0.  1.
    9900012    2    1    2    0    0 -0.87778261890E+01  0.10064237563E+01  0.39687580879E+02  0.50528841162E+02  0.29999943196E+02 0.  0.
        -12    1    1    2    0    0  0.87778261890E+01 -0.10064237563E+01 -0.39687580879E+02  0.40659158838E+02  0.00000000000E+00 0.  1.
         11    1    3    3    0    0 -0.49289351225E+01 -0.26312537594E+01  0.21651916591E+02  0.22361202787E+02  0.51100000000E-03 0. -1.
        -11    1    3    3    0    0  0.40259464553E+01 -0.36698621485E+01  0.16424620960E+02  0.17304459165E+02  0.51100000000E-03 0.  1.
         12    1    3    3    0    0 -0.78748375218E+01  0.73075396642E+01  0.16110433284E+01  0.10863179210E+02  0.00000000000E+00 0. -1.
</event>
<event>
 7    1  0.2817603E-011  0.5052878E+02  0.7816164E-02  0.1300439E+00
        -11   -1    0    0    0    0  0.00000000000E+00  0.00000000000E+00  0.45593999997E+02  0.45594000000E+02  0.51100000000E-03 0.  1.
         11   -1    0    0    0    0 -0.00000000000E+00 -0.00000000000E+00 -0.45593999997E+02  0.45594000000E+02  0.51100000000E-03 0. -1.
    9900012    2    1    2    0    0  0.32923015298E+02 -0.23558059299E+02  0.37769090307E+01  0.50528780430E+02  0.29999758594E+02 0.  0.
        -12    1    1    2    0    0 -0.32923015298E+02  0.23558059299E+02 -0.37769090307E+01  0.40659219570E+02  0.00000000000E+00 0.  1.
         11    1    3    3    0    0  0.17139182173E+02 -0.24377717061E+02 -0.66518418222E+01  0.30533123891E+02  0.51100000000E-03 0. -1.
        -11    1    3    3    0    0  0.76208995124E+01  0.19704086732E+00  0.12996185148E+01  0.77334302239E+01  0.51100000000E-03 0.  1.
         12    1    3    3    0    0  0.81629336124E+01  0.62261689475E+00  0.91291323381E+01  0.12262226315E+02  0.00000000000E+00 0. -1.
</event>
<event>
 7    1  0.2817603E-011  0.5052886E+02  0.7816164E-02  0.1300439E+00
        -11   -1    0    0    0    0  0.00000000000E+00  0.00000000000E+00  0.45593999997E+02  0.45594000000E+02  0.51100000000E-03 0.  1.
         11   -1    0    0    0    0 -0.00000000000E+00 -0.00000000000E+00 -0.45593999997E+02  0.45594000000E+02  0.51100000000E-03 0. -1.
    9900012    2    1    2    0    0  0.15117443313E+02 -0.26968285325E+02 -0.26407196572E+02  0.50528861587E+02  0.30000005280E+02 0.  0.
        -12    1    1    2    0    0 -0.15117443313E+02  0.26968285325E+02  0.26407196572E+02  0.40659138413E+02  0.00000000000E+00 0.  1.
         11    1    3    3    0    0  0.44388234282E+01  0.14810565666E+01 -0.55152844553E+01  0.72329139953E+01  0.51100000000E-03 0. -1.
        -11    1    3    3    0    0  0.12909653880E+02 -0.71097414583E+01 -0.23216373974E+01  0.14919704668E+02  0.51100000000E-03 0.  1.
         12    1    3    3    0    0 -0.22310339954E+01 -0.21339600433E+02 -0.18570274719E+02  0.28376242924E+02  0.00000000000E+00 0. -1.
</event>
<event>
 7    1  0.2817603E-011  0.5052886E+02  0.7816164E-02  0.1300439E+00
        -11   -1    0    0    0    0  0.00000000000E+00  0.00000000000E+00  0.45593999997E+02  0.45594000000E+02  0.51100000000E-03 0.  1.
         11   -1    0    0    0    0 -0.00000000000E+00 -0.00000000000E+00 -0.45593999997E+02  0.45594000000E+02  0.51100000000E-03 0. -1.
    9900012    2    1    2    0    0 -0.13846665283E+02 -0.18890624418E+02 -0.33235218787E+02  0.50528860829E+02  0.30000002974E+02 0.  0.
        -12    1    1    2    0    0  0.13846665283E+02  0.18890624418E+02  0.33235218787E+02  0.40659139171E+02  0.00000000000E+00 0.  1.
         11    1    3    3    0    0 -0.61946673406E+01  0.16118729082E+01 -0.15834579002E+02  0.17079400755E+02  0.51100000000E-03 0. -1.
        -11    1    3    3    0    0  0.15258541317E+01  0.29837536475E+01 -0.20708778270E+01  0.39394862477E+01  0.51100000000E-03 0.  1.
        -12    1    3    3    0    0 -0.91778520746E+01 -0.23486250974E+02 -0.15329761958E+02  0.29509973826E+02  0.00000000000E+00 0.  1.
</event>
<event>
 7    1  0.2817603E-011  0.5052885E+02  0.7816164E-02  0.1300439E+00
        -11   -1    0    0    0    0  0.00000000000E+00  0.00000000000E+00  0.45593999997E+02  0.45594000000E+02  0.51100000000E-03 0.  1.
         11   -1    0    0    0    0 -0.00000000000E+00 -0.00000000000E+00 -0.45593999997E+02  0.45594000000E+02  0.51100000000E-03 0. -1.
    9900012    2    1    2    0    0 -0.69500208961E+01  0.25984799272E+02 -0.30490222697E+02  0.50528852643E+02  0.29999978095E+02 0.  0.
        -12    1    1    2    0    0  0.69500208961E+01 -0.25984799272E+02  0.30490222697E+02  0.40659147357E+02  0.00000000000E+00 0.  1.
         11    1    3    3    0    0 -0.88776235407E+01  0.70658217085E+01 -0.10274769305E+02  0.15307152598E+02  0.51100000000E-03 0. -1.
        -11    1    3    3    0    0 -0.59226380329E+01  0.19450018379E+01 -0.14311931716E+02  0.15610639421E+02  0.51100000000E-03 0.  1.
        -12    1    3    3    0    0  0.78502406775E+01  0.16973975725E+02 -0.59035216758E+01  0.19611060624E+02  0.00000000000E+00 0.  1.
</event>
<event>
 7    1  0.2817603E-011  0.5052886E+02  0.7816164E-02  0.1300439E+00
        -11   -1    0    0    0    0  0.00000000000E+00  0.00000000000E+00  0.45593999997E+02  0.45594000000E+02  0.51100000000E-03 0.  1.
         11   -1    0    0    0    0 -0.00000000000E+00 -0.00000000000E+00 -0.45593999997E+02  0.45594000000E+02  0.51100000000E-03 0. -1.
    9900012    2    1    2    0    0 -0.27199152902E+02  0.23026431019E+02 -0.19574350221E+02  0.50528860429E+02  0.30000001759E+02 0.  0.
        -12    1    1    2    0    0  0.27199152902E+02 -0.23026431019E+02  0.19574350221E+02  0.40659139571E+02  0.00000000000E+00 0.  1.
         11    1    3    3    0    0 -0.15738869064E+02  0.13169395157E+02 -0.75878392951E+01  0.21879677183E+02  0.51100000000E-03 0. -1.
        -11    1    3    3    0    0 -0.12014520040E+02  0.57114097141E+01  0.25306436026E+01  0.13541530564E+02  0.51100000000E-03 0.  1.
         12    1    3    3    0    0  0.55423620205E+00  0.41456261482E+01 -0.14517154528E+02  0.15107652681E+02  0.00000000000E+00 0. -1.
</event>
<event>
 7    1  0.2817603E-011  0.5052886E+02  0.7816164E-02  0.1300439E+00
        -11   -1    0    0    0    0  0.00000000000E+00  0.00000000000E+00  0.45593999997E+02  0.45594000000E+02  0.51100000000E-03 0. -1.
         11   -1    0    0    0    0 -0.00000000000E+00 -0.00000000000E+00 -0.45593999997E+02  0.45594000000E+02  0.51100000000E-03 0.  1.
    9900012    2    1    2    0    0  0.10995638276E+01 -0.40600501622E+02 -0.18857369254E+01  0.50528858637E+02  0.29999996314E+02 0.  0.
        -12    1    1    2    0    0 -0.10995638276E+01  0.40600501622E+02  0.18857369254E+01  0.40659141363E+02  0.00000000000E+00 0.  1.
         11    1    3    3    0    0  0.77840964053E+01 -0.17142400734E+02  0.69589061431E+01  0.20071881694E+02  0.51100000000E-03 0. -1.
        -11    1    3    3    0    0  0.16663464067E+01 -0.14354722063E+02  0.12479336758E+01  0.14504898985E+02  0.51100000000E-03 0.  1.
        -12    1    3    3    0    0 -0.83508789843E+01 -0.91033788261E+01 -0.10092576744E+02  0.15952077959E+02  0.00000000000E+00 0.  1.
</event>
<event>
 7    1  0.2817603E-011  0.5052887E+02  0.7816164E-02  0.1300439E+00
        -11   -1    0    0    0    0  0.00000000000E+00  0.00000000000E+00  0.45593999997E+02  0.45594000000E+02  0.51100000000E-03 0. -1.
         11   -1    0    0    0    0 -0.00000000000E+00 -0.00000000000E+00 -0.45593999997E+02  0.45594000000E+02  0.51100000000E-03 0.  1.
    9900012    2    1    2    0    0 -0.27493271010E+02  0.16657425570E+02  0.24896090115E+02  0.50528867195E+02  0.30000022325E+02 0.  0.
        -12    1    1    2    0    0  0.27493271010E+02 -0.16657425570E+02 -0.24896090115E+02  0.40659132805E+02  0.00000000000E+00 0.  1.
         11    1    3    3    0    0 -0.11904679050E+02 -0.33333895527E+00  0.95094983998E+01  0.15240179074E+02  0.51100000000E-03 0. -1.
        -11    1    3    3    0    0 -0.41938775536E+01 -0.45294411793E+01 -0.53303151304E+00  0.61958509655E+01  0.51100000000E-03 0.  1.
         12    1    3    3    0    0 -0.11394714407E+02  0.21520205705E+02  0.15919623228E+02  0.29092837155E+02  0.00000000000E+00 0. -1.
</event>
<event>
 7    1  0.2817603E-011  0.5052885E+02  0.7816164E-02  0.1300439E+00
        -11   -1    0    0    0    0  0.00000000000E+00  0.00000000000E+00  0.45593999997E+02  0.45594000000E+02  0.51100000000E-03 0. -1.
         11   -1    0    0    0    0 -0.00000000000E+00 -0.00000000000E+00 -0.45593999997E+02  0.45594000000E+02  0.51100000000E-03 0.  1.
    9900012    2    1    2    0    0  0.22656123783E+02 -0.27944795911E+02  0.18946108687E+02  0.50528848536E+02  0.29999965611E+02 0.  0.
        -12    1    1    2    0    0 -0.22656123783E+02  0.27944795911E+02 -0.18946108687E+02  0.40659151464E+02  0.00000000000E+00 0.  1.
         11    1    3    3    0    0  0.94964474746E+01 -0.10238975898E+02 -0.43834817191E+01  0.14636736464E+02  0.51100000000E-03 0. -1.
        -11    1    3    3    0    0  0.48003219882E+01 -0.83140125935E+01  0.24251341008E+00  0.96033697009E+01  0.51100000000E-03 0.  1.
         12    1    3    3    0    0  0.83593543201E+01 -0.93918074199E+01  0.23087076996E+02  0.26288742371E+02  0.00000000000E+00 0. -1.
</event>
<event>
 7    1  0.2817603E-011  0.5052888E+02  0.7816164E-02  0.1300439E+00
        -11   -1    0    0    0    0  0.00000000000E+00  0.00000000000E+00  0.45593999997E+02  0.45594000000E+02  0.51100000000E-03 0.  1.
         11   -1    0    0    0    0 -0.00000000000E+00 -0.00000000000E+00 -0.45593999997E+02  0.45594000000E+02  0.51100000000E-03 0. -1.
    9900012    2    1    2    0    0  0.28077146813E+02 -0.81571708201E+01 -0.28254171250E+02  0.50528882917E+02  0.30000070113E+02 0.  0.
        -12    1    1    2    0    0 -0.28077146813E+02  0.81571708201E+01  0.28254171250E+02  0.40659117083E+02  0.00000000000E+00 0.  1.
         11    1    3    3    0    0 -0.51154348964E+00  0.53071772811E+01 -0.12832987099E+01  0.54840371329E+01  0.51100000000E-03 0. -1.
        -11    1    3    3    0    0  0.67410515188E+01 -0.66356695327E+01  0.27103319995E+00  0.94629458935E+01  0.51100000000E-03 0.  1.
         12    1    3    3    0    0  0.21847638784E+02 -0.68286785685E+01 -0.27241905740E+02  0.35581899890E+02  0.00000000000E+00 0. -1.
</event>
<event>
 7    1  0.2817603E-011  0.5052878E+02  0.7816164E-02  0.1300439E+00
        -11   -1    0    0    0    0  0.00000000000E+00  0.00000000000E+00  0.45593999997E+02  0.45594000000E+02  0.51100000000E-03 0. -1.
         11   -1    0    0    0    0 -0.00000000000E+00 -0.00000000000E+00 -0.45593999997E+02  0.45594000000E+02  0.51100000000E-03 0.  1.
    9900012    2    1    2    0    0 -0.35120073350E+02  0.20209447044E+02  0.33661431034E+01  0.50528779381E+02  0.29999755407E+02 0.  0.
        -12    1    1    2    0    0  0.35120073350E+02 -0.20209447044E+02 -0.33661431034E+01  0.40659220619E+02  0.00000000000E+00 0.  1.
         11    1    3    3    0    0 -0.98421730847E+01  0.10471440810E+02  0.88129004763E+01  0.16857836716E+02  0.51100000000E-03 0. -1.
        -11    1    3    3    0    0 -0.97854343287E+01  0.35119093854E+01  0.72671767086E+01  0.12684639928E+02  0.51100000000E-03 0.  1.
        -12    1    3    3    0    0 -0.15492465936E+02  0.62260968483E+01 -0.12713934082E+02  0.20986302737E+02  0.00000000000E+00 0.  1.
</event>
<event>
 7    1  0.2817603E-011  0.5052885E+02  0.7816164E-02  0.1300439E+00
        -11   -1    0    0    0    0  0.00000000000E+00  0.00000000000E+00  0.45593999997E+02  0.45594000000E+02  0.51100000000E-03 0.  1.
         11   -1    0    0    0    0 -0.00000000000E+00 -0.00000000000E+00 -0.45593999997E+02  0.45594000000E+02  0.51100000000E-03 0. -1.
    9900012    2    1    2    0    0 -0.39388193638E+02 -0.99362218625E+00 -0.10037416851E+02  0.50528845801E+02  0.29999957298E+02 0.  0.
        -12    1    1    2    0    0  0.39388193638E+02  0.99362218625E+00  0.10037416851E+02  0.40659154199E+02  0.00000000000E+00 0.  1.
         11    1    3    3    0    0 -0.45198502569E+01  0.14358590432E+01  0.35187703872E+01  0.59052927816E+01  0.51100000000E-03 0. -1.
        -11    1    3    3    0    0 -0.72949944750E+01  0.86057444533E+01  0.14043479743E+01  0.11368727962E+02  0.51100000000E-03 0.  1.
         12    1    3    3    0    0 -0.27573348906E+02 -0.11035225683E+02 -0.14960535212E+02  0.33254825058E+02  0.00000000000E+00 0. -1.
</event>
<event>
 7    1  0.2817603E-011  0.5052886E+02  0.7816164E-02  0.1300439E+00
        -11   -1    0    0    0    0  0.00000000000E+00  0.00000000000E+00  0.45593999997E+02  0.45594000000E+02  0.51100000000E-03 0.  1.
         11   -1    0    0    0    0 -0.00000000000E+00 -0.00000000000E+00 -0.45593999997E+02  0.45594000000E+02  0.51100000000E-03 0. -1.
    9900012    2    1    2    0    0  0.16592915135E+02 -0.18402984670E+02 -0.32236173077E+02  0.50528861641E+02  0.30000005445E+02 0.  0.
        -12    1    1    2    0    0 -0.16592915135E+02  0.18402984670E+02  0.32236173077E+02  0.40659138359E+02  0.00000000000E+00 0.  1.
         11    1    3    3    0    0 -0.32836709641E+01 -0.15577003365E+01  0.33734022099E+01  0.49587062899E+01  0.51100000000E-03 0. -1.
        -11    1    3    3    0    0 -0.25392115215E+00 -0.79033341046E+00  0.68044631823E+00  0.10733640130E+01  0.51100000000E-03 0.  1.
         12    1    3    3    0    0  0.20130507251E+02 -0.16054950923E+02 -0.36290021605E+02  0.44496791338E+02  0.00000000000E+00 0. -1.
</event>
<event>
 7    1  0.2817603E-011  0.5052887E+02  0.7816164E-02  0.1300439E+00
        -11   -1    0    0    0    0  0.00000000000E+00  0.00000000000E+00  0.45593999997E+02  0.45594000000E+02  0.51100000000E-03 0.  1.
         11   -1    0    0    0    0 -0.00000000000E+00 -0.00000000000E+00 -0.45593999997E+02  0.45594000000E+02  0.51100000000E-03 0. -1.
    9900012    2    1    2    0    0 -0.31797264938E+02 -0.25330287876E+02 -0.68955306801E+00  0.50528867879E+02  0.30000024405E+02 0.  0.
        -12    1    1    2    0    0  0.31797264938E+02  0.25330287876E+02  0.68955306801E+00  0.40659132121E+02  0.00000000000E+00 0.  1.
         11    1    3    3    0    0 -0.23096287329E+02 -0.51344217310E+01  0.30895529331E+01  0.23860974676E+02  0.51100000000E-03 0. -1.
        -11    1    3    3    0    0 -0.39586399643E+01 -0.34131307659E+01  0.49205293043E+01  0.71785723433E+01  0.51100000000E-03 0.  1.
         12    1    3    3    0    0 -0.47423376442E+01 -0.16782735379E+02 -0.86996353055E+01  0.19489320860E+02  0.00000000000E+00 0. -1.
</event>
<event>
 7    1  0.2817603E-011  0.5052886E+02  0.7816164E-02  0.1300439E+00
        -11   -1    0    0    0    0  0.00000000000E+00  0.00000000000E+00  0.45593999997E+02  0.45594000000E+02  0.51100000000E-03 0.  1.
         11   -1    0    0    0    0 -0.00000000000E+00 -0.00000000000E+00 -0.45593999997E+02  0.45594000000E+02  0.51100000000E-03 0. -1.
    9900012    2    1    2    0    0  0.75140489290E+01  0.13166392475E+02 -0.37727319380E+02  0.50528862654E+02  0.30000008523E+02 0.  0.
        -12    1    1    2    0    0 -0.75140489290E+01 -0.13166392475E+02  0.37727319380E+02  0.40659137346E+02  0.00000000000E+00 0.  1.
         11    1    3    3    0    0  0.11223069710E+02  0.63427470186E+01 -0.80126342186E+01  0.15178604706E+02  0.51100000000E-03 0. -1.
        -11    1    3    3    0    0  0.42444642466E+01  0.88307705224E+01 -0.10013318566E+02  0.14009444447E+02  0.51100000000E-03 0.  1.
        -12    1    3    3    0    0 -0.79534850274E+01 -0.20071250657E+01 -0.19701366595E+02  0.21340813500E+02  0.00000000000E+00 0.  1.
</event>
<event>
 7    1  0.2817603E-011  0.5052885E+02  0.7816164E-02  0.1300439E+00
        -11   -1    0    0    0    0  0.00000000000E+00  0.00000000000E+00  0.45593999997E+02  0.45594000000E+02  0.51100000000E-03 0. -1.
         11   -1    0    0    0    0 -0.00000000000E+00 -0.00000000000E+00 -0.45593999997E+02  0.45594000000E+02  0.51100000000E-03 0.  1.
    9900012    2    1    2    0    0 -0.20196372842E+01  0.14285218023E+02  0.38013418284E+02  0.50528851480E+02  0.29999974558E+02 0.  0.
        -12    1    1    2    0    0  0.20196372842E+01 -0.14285218023E+02 -0.38013418284E+02  0.40659148520E+02  0.00000000000E+00 0.  1.
         11    1    3    3    0    0 -0.10859320784E+02  0.44468630723E+00  0.44323551622E+01  0.11737477001E+02  0.51100000000E-03 0. -1.
        -11    1    3    3    0    0  0.94262731705E+01  0.67665235266E+01  0.15463268107E+02  0.19332695812E+02  0.51100000000E-03 0.  1.
        -12    1    3    3    0    0 -0.58658967113E+00  0.70740081894E+01  0.18117795015E+02  0.19458678668E+02  0.00000000000E+00 0.  1.
</event>
<event>
 7    1  0.2817603E-011  0.5052886E+02  0.7816164E-02  0.1300439E+00
        -11   -1    0    0    0    0  0.00000000000E+00  0.00000000000E+00  0.45593999997E+02  0.45594000000E+02  0.51100000000E-03 0.  1.
         11   -1    0    0    0    0 -0.00000000000E+00 -0.00000000000E+00 -0.45593999997E+02  0.45594000000E+02  0.51100000000E-03 0. -1.
    9900012    2    1    2    0    0 -0.22180309705E+01  0.16729404168E+02 -0.36991531586E+02  0.50528855466E+02  0.29999986673E+02 0.  0.
        -12    1    1    2    0    0  0.22180309705E+01 -0.16729404168E+02  0.36991531586E+02  0.40659144534E+02  0.00000000000E+00 0.  1.
         11    1    3    3    0    0 -0.15105858619E+01 -0.11239560856E+00 -0.96093734319E+01  0.97280296275E+01  0.51100000000E-03 0. -1.
        -11    1    3    3    0    0 -0.55283088063E+01  0.14596480635E+01 -0.23546622672E+02  0.24230893715E+02  0.51100000000E-03 0.  1.
        -12    1    3    3    0    0  0.48208636977E+01  0.15382151713E+02 -0.38355354820E+01  0.16569932123E+02  0.00000000000E+00 0.  1.
</event>
<event>
 7    1  0.2817603E-011  0.5052886E+02  0.7816164E-02  0.1300439E+00
        -11   -1    0    0    0    0  0.00000000000E+00  0.00000000000E+00  0.45593999997E+02  0.45594000000E+02  0.51100000000E-03 0.  1.
         11   -1    0    0    0    0 -0.00000000000E+00 -0.00000000000E+00 -0.45593999997E+02  0.45594000000E+02  0.51100000000E-03 0. -1.
    9900012    2    1    2    0    0  0.19923881761E+02  0.35442511855E+02 -0.18052786006E+00  0.50528864478E+02  0.30000014068E+02 0.  0.
        -12    1    1    2    0    0 -0.19923881761E+02 -0.35442511855E+02  0.18052786006E+00  0.40659135522E+02  0.00000000000E+00 0.  1.
         11    1    3    3    0    0  0.29351174531E+01  0.26014187188E+02  0.50064644536E+00  0.26184031329E+02  0.51100000000E-03 0. -1.
        -11    1    3    3    0    0 -0.22029266392E+01  0.21622018489E+01 -0.21646907097E+01  0.37701311307E+01  0.51100000000E-03 0.  1.
         12    1    3    3    0    0  0.19191690947E+02  0.72661228185E+01  0.14835164042E+01  0.20574702019E+02  0.00000000000E+00 0. -1.
</event>
<event>
 7    1  0.2817603E-011  0.5052885E+02  0.7816164E-02  0.1300439E+00
        -11   -1    0    0    0    0  0.00000000000E+00  0.00000000000E+00  0.45593999997E+02  0.45594000000E+02  0.51100000000E-03 0.  1.
         11   -1    0    0    0    0 -0.00000000000E+00 -0.00000000000E+00 -0.45593999997E+02  0.45594000000E+02  0.51100000000E-03 0. -1.
    9900012    2    1    2    0    0 -0.78152450499E+01  0.17344419692E+02 -0.35934094300E+02  0.50528854869E+02  0.29999984859E+02 0.  0.
        -12    1    1    2    0    0  0.78152450499E+01 -0.17344419692E+02  0.35934094300E+02  0.40659145131E+02  0.00000000000E+00 0.  1.
         11    1    3    3    0    0 -0.33485036403E+01  0.86970211206E+01 -0.12981381042E+02  0.15980203598E+02  0.51100000000E-03 0. -1.
        -11    1    3    3    0    0 -0.16891556986E+01  0.15389441005E+02 -0.69646771256E+01  0.16976303165E+02  0.51100000000E-03 0.  1.
         12    1    3    3    0    0 -0.27775857110E+01 -0.67420424344E+01 -0.15988036133E+02  0.17572348106E+02  0.00000000000E+00 0. -1.
</event>
<event>
 7    1  0.2817603E-011  0.5052886E+02  0.7816164E-02  0.1300439E+00
        -11   -1    0    0    0    0  0.00000000000E+00  0.00000000000E+00  0.45593999997E+02  0.45594000000E+02  0.51100000000E-03 0. -1.
         11   -1    0    0    0    0 -0.00000000000E+00 -0.00000000000E+00 -0.45593999997E+02  0.45594000000E+02  0.51100000000E-03 0.  1.
    9900012    2    1    2    0    0  0.82343606986E+01  0.35860321443E+02  0.17303123358E+02  0.50528862920E+02  0.30000009332E+02 0.  0.
        -12    1    1    2    0    0 -0.82343606986E+01 -0.35860321443E+02 -0.17303123358E+02  0.40659137080E+02  0.00000000000E+00 0.  1.
         11    1    3    3    0    0  0.69718812138E+00 -0.36814427519E+00 -0.35784947314E+01  0.36643179840E+01  0.51100000000E-03 0. -1.
        -11    1    3    3    0    0 -0.14594948737E+01  0.14888072370E+01 -0.30764019877E+01  0.37163048484E+01  0.51100000000E-03 0.  1.
         12    1    3    3    0    0  0.89966674509E+01  0.34739658482E+02  0.23958020077E+02  0.43148240088E+02  0.00000000000E+00 0. -1.
</event>
<event>
 7    1  0.2817603E-011  0.5052886E+02  0.7816164E-02  0.1300439E+00
        -11   -1    0    0    0    0  0.00000000000E+00  0.00000000000E+00  0.45593999997E+02  0.45594000000E+02  0.51100000000E-03 0. -1.
         11   -1    0    0    0    0 -0.00000000000E+00 -0.00000000000E+00 -0.45593999997E+02  0.45594000000E+02  0.51100000000E-03 0.  1.
    9900012    2    1    2    0    0  0.14041344093E+02  0.64136909966E+01  0.37614774316E+02  0.50528855605E+02  0.29999987096E+02 0.  0.
        -12    1    1    2    0    0 -0.14041344093E+02 -0.64136909966E+01 -0.37614774316E+02  0.40659144395E+02  0.00000000000E+00 0.  1.
         11    1    3    3    0    0  0.18120582876E+01 -0.82863135332E+01  0.91265858326E+01  0.12459579304E+02  0.51100000000E-03 0. -1.
        -11    1    3    3    0    0  0.57851088324E+00 -0.29493212881E+01  0.59238456689E+00  0.30633463139E+01  0.51100000000E-03 0.  1.
         12    1    3    3    0    0  0.11650774922E+02  0.17649325818E+02  0.27895803916E+02  0.35005929987E+02  0.00000000000E+00 0. -1.
</event>
<event>
 7    1  0.2817603E-011  0.5052886E+02  0.7816164E-02  0.1300439E+00
        -11   -1    0    0    0    0  0.00000000000E+00  0.00000000000E+00  0.45593999997E+02  0.45594000000E+02  0.51100000000E-03 0.  1.
         11   -1    0    0    0    0 -0.00000000000E+00 -0.00000000000E+00 -0.45593999997E+02  0.45594000000E+02  0.51100000000E-03 0. -1.
    9900012    2    1    2    0    0  0.17607309226E+02  0.36426960469E+02 -0.40280253867E+01  0.50528858645E+02  0.29999996338E+02 0.  0.
        -12    1    1    2    0    0 -0.17607309226E+02 -0.36426960469E+02  0.40280253867E+01  0.40659141355E+02  0.00000000000E+00 0.  1.
         11    1    3    3    0    0  0.80739000667E+01  0.23873121344E+02 -0.13175080806E+02  0.28437590254E+02  0.51100000000E-03 0. -1.
        -11    1    3    3    0    0 -0.14094491953E+01  0.51689155398E+00 -0.19042961951E+01  0.24248851874E+01  0.51100000000E-03 0.  1.
         12    1    3    3    0    0  0.10942858354E+02  0.12036947572E+02  0.11051351614E+02  0.19666383203E+02  0.00000000000E+00 0. -1.
</event>
<event>
 7    1  0.2817603E-011  0.5052882E+02  0.7816164E-02  0.1300439E+00
        -11   -1    0    0    0    0  0.00000000000E+00  0.00000000000E+00  0.45593999997E+02  0.45594000000E+02  0.51100000000E-03 0. -1.
         11   -1    0    0    0    0 -0.00000000000E+00 -0.00000000000E+00 -0.45593999997E+02  0.45594000000E+02  0.51100000000E-03 0.  1.
    9900012    2    1    2    0    0 -0.38554104601E+02  0.56412974946E+01 -0.11615757791E+02  0.50528818404E+02  0.29999874020E+02 0.  0.
        -12    1    1    2    0    0  0.38554104601E+02 -0.56412974946E+01  0.11615757791E+02  0.40659181596E+02  0.00000000000E+00 0.  1.
         11    1    3    3    0    0 -0.12887551109E+02 -0.81975542791E+01  0.24198549441E+01  0.15464299789E+02  0.51100000000E-03 0. -1.
        -11    1    3    3    0    0 -0.55107062497E+00 -0.12729042444E+01 -0.37543223355E+01  0.40023618663E+01  0.51100000000E-03 0.  1.
         12    1    3    3    0    0 -0.25115482867E+02  0.15111756018E+02 -0.10281290400E+02  0.31062156748E+02  0.00000000000E+00 0. -1.
</event>
<event>
 7    1  0.2817603E-011  0.5052886E+02  0.7816164E-02  0.1300439E+00
        -11   -1    0    0    0    0  0.00000000000E+00  0.00000000000E+00  0.45593999997E+02  0.45594000000E+02  0.51100000000E-03 0.  1.
         11   -1    0    0    0    0 -0.00000000000E+00 -0.00000000000E+00 -0.45593999997E+02  0.45594000000E+02  0.51100000000E-03 0. -1.
    9900012    2    1    2    0    0 -0.28407584605E+02 -0.88254452616E+01 -0.27717982517E+02  0.50528857093E+02  0.29999991619E+02 0.  0.
        -12    1    1    2    0    0  0.28407584605E+02  0.88254452616E+01  0.27717982517E+02  0.40659142907E+02  0.00000000000E+00 0.  1.
         11    1    3    3    0    0 -0.86401234209E+01 -0.47274010099E+01 -0.22624039583E+02  0.24674829692E+02  0.51100000000E-03 0. -1.
        -11    1    3    3    0    0 -0.68158802563E+01  0.19912064233E+01 -0.85668261408E+01  0.11127067766E+02  0.51100000000E-03 0.  1.
         12    1    3    3    0    0 -0.12951580927E+02 -0.60892506751E+01  0.34728832062E+01  0.14726959634E+02  0.00000000000E+00 0. -1.
</event>
<event>
 7    1  0.2817603E-011  0.5052887E+02  0.7816164E-02  0.1300439E+00
        -11   -1    0    0    0    0  0.00000000000E+00  0.00000000000E+00  0.45593999997E+02  0.45594000000E+02  0.51100000000E-03 0. -1.
         11   -1    0    0    0    0 -0.00000000000E+00 -0.00000000000E+00 -0.45593999997E+02  0.45594000000E+02  0.51100000000E-03 0.  1.
    9900012    2    1    2    0    0  0.11680010946E+02  0.26389275425E+01  0.38855862737E+02  0.50528872325E+02  0.30000037918E+02 0.  0.
        -12    1    1    2    0    0 -0.11680010946E+02 -0.26389275425E+01 -0.38855862737E+02  0.40659127675E+02  0.00000000000E+00 0.  1.
         11    1    3    3    0    0  0.17013661952E+01 -0.19712672399E+01  0.10416595159E+02  0.10737131667E+02  0.51100000000E-03 0. -1.
        -11    1    3    3    0    0  0.32698772721E+01 -0.29678182852E+01  0.29303119006E+02  0.29633980943E+02  0.51100000000E-03 0.  1.
        -12    1    3    3    0    0  0.67087674790E+01  0.75780130676E+01 -0.86385142848E+00  0.10157759715E+02  0.00000000000E+00 0.  1.
</event>
<event>
 7    1  0.2817603E-011  0.5052886E+02  0.7816164E-02  0.1300439E+00
        -11   -1    0    0    0    0  0.00000000000E+00  0.00000000000E+00  0.45593999997E+02  0.45594000000E+02  0.51100000000E-03 0. -1.
         11   -1    0    0    0    0 -0.00000000000E+00 -0.00000000000E+00 -0.45593999997E+02  0.45594000000E+02  0.51100000000E-03 0.  1.
    9900012    2    1    2    0    0 -0.60670415155E-01  0.20478552042E+02  0.35125356983E+02  0.50528862308E+02  0.30000007472E+02 0.  0.
        -12    1    1    2    0    0  0.60670415155E-01 -0.20478552042E+02 -0.35125356983E+02  0.40659137692E+02  0.00000000000E+00 0.  1.
         11    1    3    3    0    0 -0.43581207255E+00  0.41214336749E+00  0.68346967603E+01  0.68609674525E+01  0.51100000000E-03 0.  1.
        -11    1    3    3    0    0 -0.10803465739E+02  0.14125252077E+02  0.24835174779E+02  0.30545433780E+02  0.51100000000E-03 0. -1.
         12    1    3    3    0    0  0.11178607397E+02  0.59411565979E+01  0.34554854437E+01  0.13122461076E+02  0.00000000000E+00 0. -1.
</event>
<event>
 7    1  0.2817603E-011  0.5052886E+02  0.7816164E-02  0.1300439E+00
        -11   -1    0    0    0    0  0.00000000000E+00  0.00000000000E+00  0.45593999997E+02  0.45594000000E+02  0.51100000000E-03 0. -1.
         11   -1    0    0    0    0 -0.00000000000E+00 -0.00000000000E+00 -0.45593999997E+02  0.45594000000E+02  0.51100000000E-03 0.  1.
    9900012    2    1    2    0    0 -0.31180231806E+02 -0.10837404095E+02  0.23738351883E+02  0.50528861629E+02  0.30000005406E+02 0.  0.
        -12    1    1    2    0    0  0.31180231806E+02  0.10837404095E+02 -0.23738351883E+02  0.40659138371E+02  0.00000000000E+00 0.  1.
         11    1    3    3    0    0  0.48716161599E+00 -0.26898221960E+01  0.60477016866E-01  0.27342508329E+01  0.51100000000E-03 0. -1.
        -11    1    3    3    0    0 -0.88006424143E+01  0.61024641796E+01 -0.16257741691E+01  0.10832105884E+02  0.51100000000E-03 0.  1.
         12    1    3    3    0    0 -0.22866751008E+02 -0.14250046078E+02  0.25303649035E+02  0.36962504912E+02  0.00000000000E+00 0. -1.
</event>
<event>
 7    1  0.2817603E-011  0.5052887E+02  0.7816164E-02  0.1300439E+00
        -11   -1    0    0    0    0  0.00000000000E+00  0.00000000000E+00  0.45593999997E+02  0.45594000000E+02  0.51100000000E-03 0.  1.
         11   -1    0    0    0    0 -0.00000000000E+00 -0.00000000000E+00 -0.45593999997E+02  0.45594000000E+02  0.51100000000E-03 0. -1.
    9900012    2    1    2    0    0  0.40915348471E+01  0.36375462289E+02 -0.17698873044E+02  0.50528867924E+02  0.30000024543E+02 0.  0.
        -12    1    1    2    0    0 -0.40915348471E+01 -0.36375462289E+02  0.17698873044E+02  0.40659132076E+02  0.00000000000E+00 0.  1.
         11    1    3    3    0    0 -0.28708533745E+01 -0.28293227454E+01 -0.16824802732E+01  0.43677919394E+01  0.51100000000E-03 0. -1.
        -11    1    3    3    0    0  0.10161486971E+02  0.11630223871E+02 -0.71599144164E+01  0.17022993258E+02  0.51100000000E-03 0.  1.
         12    1    3    3    0    0 -0.31990987497E+01  0.27574561163E+02 -0.88564783543E+01  0.29138082727E+02  0.00000000000E+00 0. -1.
</event>
<event>
 7    1  0.2817603E-011  0.5052890E+02  0.7816164E-02  0.1300439E+00
        -11   -1    0    0    0    0  0.00000000000E+00  0.00000000000E+00  0.45593999997E+02  0.45594000000E+02  0.51100000000E-03 0. -1.
         11   -1    0    0    0    0 -0.00000000000E+00 -0.00000000000E+00 -0.45593999997E+02  0.45594000000E+02  0.51100000000E-03 0.  1.
    9900012    2    1    2    0    0 -0.19307644218E+01 -0.12525236523E+02  0.38633570015E+02  0.50528903437E+02  0.30000132487E+02 0.  0.
        -12    1    1    2    0    0  0.19307644218E+01  0.12525236523E+02 -0.38633570015E+02  0.40659096563E+02  0.00000000000E+00 0.  1.
         11    1    3    3    0    0  0.39617184068E+00 -0.47126925132E+01  0.85532920517E+01  0.97737008362E+01  0.51100000000E-03 0. -1.
        -11    1    3    3    0    0 -0.57984053169E+01 -0.55565031693E+01  0.34071081296E+02  0.35004782711E+02  0.51100000000E-03 0.  1.
        -12    1    3    3    0    0  0.34714690544E+01 -0.22560408407E+01 -0.39908033330E+01  0.57504198902E+01  0.00000000000E+00 0.  1.
</event>
<event>
 7    1  0.2817603E-011  0.5052886E+02  0.7816164E-02  0.1300439E+00
        -11   -1    0    0    0    0  0.00000000000E+00  0.00000000000E+00  0.45593999997E+02  0.45594000000E+02  0.51100000000E-03 0. -1.
         11   -1    0    0    0    0 -0.00000000000E+00 -0.00000000000E+00 -0.45593999997E+02  0.45594000000E+02  0.51100000000E-03 0.  1.
    9900012    2    1    2    0    0  0.57522370392E+01  0.24030205741E+02  0.32289732021E+02  0.50528858187E+02  0.29999994946E+02 0.  0.
        -12    1    1    2    0    0 -0.57522370392E+01 -0.24030205741E+02 -0.32289732021E+02  0.40659141813E+02  0.00000000000E+00 0.  1.
         11    1    3    3    0    0  0.80871311921E+01 -0.38311262489E+00  0.14112436010E+02  0.16269889877E+02  0.51100000000E-03 0. -1.
        -11    1    3    3    0    0 -0.46906448699E+00 -0.22450276656E+01  0.10885473124E+01  0.25387213759E+01  0.51100000000E-03 0.  1.
         12    1    3    3    0    0 -0.18658296659E+01  0.26658346032E+02  0.17088748699E+02  0.31720246934E+02  0.00000000000E+00 0. -1.
</event>
<event>
 7    1  0.2817603E-011  0.5052878E+02  0.7816164E-02  0.1300439E+00
        -11   -1    0    0    0    0  0.00000000000E+00  0.00000000000E+00  0.45593999997E+02  0.45594000000E+02  0.51100000000E-03 0. -1.
         11   -1    0    0    0    0 -0.00000000000E+00 -0.00000000000E+00 -0.45593999997E+02  0.45594000000E+02  0.51100000000E-03 0.  1.
    9900012    2    1    2    0    0  0.76062796831E+01  0.12687796783E+02  0.37872639266E+02  0.50528776166E+02  0.29999745632E+02 0.  0.
        -12    1    1    2    0    0 -0.76062796831E+01 -0.12687796783E+02 -0.37872639266E+02  0.40659223834E+02  0.00000000000E+00 0.  1.
         11    1    3    3    0    0 -0.81703800593E+00  0.30187979930E+01  0.44311990751E+01  0.54236719969E+01  0.51100000000E-03 0. -1.
        -11    1    3    3    0    0 -0.33908356788E+01 -0.78520511723E+01  0.58992685206E+01  0.10390083905E+02  0.51100000000E-03 0.  1.
         12    1    3    3    0    0  0.11814153368E+02  0.17521049963E+02  0.27542171670E+02  0.34715020264E+02  0.00000000000E+00 0. -1.
</event>
<event>
 7    1  0.2817603E-011  0.5052886E+02  0.7816164E-02  0.1300439E+00
        -11   -1    0    0    0    0  0.00000000000E+00  0.00000000000E+00  0.45593999997E+02  0.45594000000E+02  0.51100000000E-03 0. -1.
         11   -1    0    0    0    0 -0.00000000000E+00 -0.00000000000E+00 -0.45593999997E+02  0.45594000000E+02  0.51100000000E-03 0.  1.
    9900012    2    1    2    0    0 -0.20051927625E+01  0.25573981082E+02  0.31545458586E+02  0.50528864941E+02  0.30000015474E+02 0.  0.
        -12    1    1    2    0    0  0.20051927625E+01 -0.25573981082E+02 -0.31545458586E+02  0.40659135059E+02  0.00000000000E+00 0.  1.
         11    1    3    3    0    0  0.55754664899E+01  0.10578806345E+02  0.91473997050E+01  0.15055626586E+02  0.51100000000E-03 0. -1.
        -11    1    3    3    0    0 -0.71786036072E+01  0.15761673474E+02  0.49627044702E+01  0.18016412971E+02  0.51100000000E-03 0.  1.
        -12    1    3    3    0    0 -0.40205564524E+00 -0.76649873676E+00  0.17435354411E+02  0.17456825384E+02  0.00000000000E+00 0.  1.
</event>
<event>
 7    1  0.2817603E-011  0.5052886E+02  0.7816164E-02  0.1300439E+00
        -11   -1    0    0    0    0  0.00000000000E+00  0.00000000000E+00  0.45593999997E+02  0.45594000000E+02  0.51100000000E-03 0. -1.
         11   -1    0    0    0    0 -0.00000000000E+00 -0.00000000000E+00 -0.45593999997E+02  0.45594000000E+02  0.51100000000E-03 0.  1.
    9900012    2    1    2    0    0 -0.38921321761E+00  0.25524026987E+02  0.31647083974E+02  0.50528863701E+02  0.30000011706E+02 0.  0.
        -12    1    1    2    0    0  0.38921321761E+00 -0.25524026987E+02 -0.31647083974E+02  0.40659136299E+02  0.00000000000E+00 0.  1.
         11    1    3    3    0    0  0.98481403551E+01  0.18180992861E+02  0.25899494715E+02  0.33140884065E+02  0.51100000000E-03 0. -1.
        -11    1    3    3    0    0 -0.90186223624E+00  0.57694261329E+00  0.57597276424E+01  0.58583855325E+01  0.51100000000E-03 0.  1.
         12    1    3    3    0    0 -0.93354913365E+01  0.67660915120E+01 -0.12138383957E-01  0.11529594103E+02  0.00000000000E+00 0. -1.
</event>
<event>
 7    1  0.2817603E-011  0.5052889E+02  0.7816164E-02  0.1300439E+00
        -11   -1    0    0    0    0  0.00000000000E+00  0.00000000000E+00  0.45593999997E+02  0.45594000000E+02  0.51100000000E-03 0. -1.
         11   -1    0    0    0    0 -0.00000000000E+00 -0.00000000000E+00 -0.45593999997E+02  0.45594000000E+02  0.51100000000E-03 0.  1.
    9900012    2    1    2    0    0  0.24052641502E+02 -0.20773345106E+02  0.25359459616E+02  0.50528885128E+02  0.30000076836E+02 0.  0.
        -12    1    1    2    0    0 -0.24052641502E+02  0.20773345106E+02 -0.25359459616E+02  0.40659114872E+02  0.00000000000E+00 0.  1.
         11    1    3    3    0    0  0.18753955063E+02 -0.99485383736E+01  0.13882091265E+02  0.25365265708E+02  0.51100000000E-03 0. -1.
        -11    1    3    3    0    0  0.27355146092E+01 -0.59710244357E+01  0.16477764769E+02  0.17738458362E+02  0.51100000000E-03 0.  1.
        -12    1    3    3    0    0  0.25631718295E+01 -0.48537822970E+01 -0.50003964178E+01  0.74251610588E+01  0.00000000000E+00 0.  1.
</event>
<event>
 7    1  0.2817603E-011  0.5052887E+02  0.7816164E-02  0.1300439E+00
        -11   -1    0    0    0    0  0.00000000000E+00  0.00000000000E+00  0.45593999997E+02  0.45594000000E+02  0.51100000000E-03 0.  1.
         11   -1    0    0    0    0 -0.00000000000E+00 -0.00000000000E+00 -0.45593999997E+02  0.45594000000E+02  0.51100000000E-03 0. -1.
    9900012    2    1    2    0    0 -0.11329333171E+02  0.55653674138E+01 -0.38650197014E+02  0.50528870229E+02  0.30000031547E+02 0.  0.
        -12    1    1    2    0    0  0.11329333171E+02 -0.55653674138E+01  0.38650197014E+02  0.40659129771E+02  0.00000000000E+00 0.  1.
         11    1    3    3    0    0  0.86539740061E+00  0.20536600693E+01  0.37141947420E+01  0.43314749433E+01  0.51100000000E-03 0.  1.
        -11    1    3    3    0    0 -0.57173837850E+00 -0.33421418718E+01 -0.28064801872E+01  0.44014916070E+01  0.51100000000E-03 0. -1.
         12    1    3    3    0    0 -0.11622992193E+02  0.68538492163E+01 -0.39557911569E+02  0.41795903678E+02  0.00000000000E+00 0. -1.
</event>
<event>
 7    1  0.2817603E-011  0.5052888E+02  0.7816164E-02  0.1300439E+00
        -11   -1    0    0    0    0  0.00000000000E+00  0.00000000000E+00  0.45593999997E+02  0.45594000000E+02  0.51100000000E-03 0.  1.
         11   -1    0    0    0    0 -0.00000000000E+00 -0.00000000000E+00 -0.45593999997E+02  0.45594000000E+02  0.51100000000E-03 0. -1.
    9900012    2    1    2    0    0  0.39026223825E+02  0.11390852633E+02  0.60504523129E+00  0.50528883563E+02  0.30000072077E+02 0.  0.
        -12    1    1    2    0    0 -0.39026223825E+02 -0.11390852633E+02 -0.60504523129E+00  0.40659116437E+02  0.00000000000E+00 0.  1.
         11    1    3    3    0    0  0.81130937850E+01  0.73179250946E+00 -0.91622569556E+01  0.12259884332E+02  0.51100000000E-03 0.  1.
        -11    1    3    3    0    0  0.22419806282E+02  0.93092784324E+01 -0.12318073827E+01  0.24306948150E+02  0.51100000000E-03 0. -1.
        -12    1    3    3    0    0  0.84933237576E+01  0.13497816911E+01  0.10999109570E+02  0.13962051081E+02  0.00000000000E+00 0.  1.
</event>
<event>
 7    1  0.2817603E-011  0.5052891E+02  0.7816164E-02  0.1300439E+00
        -11   -1    0    0    0    0  0.00000000000E+00  0.00000000000E+00  0.45593999997E+02  0.45594000000E+02  0.51100000000E-03 0.  1.
         11   -1    0    0    0    0 -0.00000000000E+00 -0.00000000000E+00 -0.45593999997E+02  0.45594000000E+02  0.51100000000E-03 0. -1.
    9900012    2    1    2    0    0 -0.33413390141E+02  0.19528456621E+02 -0.12463793838E+02  0.50528912264E+02  0.30000159316E+02 0.  0.
        -12    1    1    2    0    0  0.33413390141E+02 -0.19528456621E+02  0.12463793838E+02  0.40659087736E+02  0.00000000000E+00 0.  1.
         11    1    3    3    0    0 -0.34752927201E+01 -0.14314322865E+01  0.67916842904E+00  0.38194146014E+01  0.51100000000E-03 0. -1.
        -11    1    3    3    0    0  0.19059235497E+01 -0.32758535553E+01 -0.42899269545E+01  0.57242671696E+01  0.51100000000E-03 0.  1.
        -12    1    3    3    0    0 -0.31844020971E+02  0.24235742463E+02 -0.88530353126E+01  0.40985230493E+02  0.00000000000E+00 0.  1.
</event>
<event>
 7    1  0.2817603E-011  0.5052887E+02  0.7816164E-02  0.1300439E+00
        -11   -1    0    0    0    0  0.00000000000E+00  0.00000000000E+00  0.45593999997E+02  0.45594000000E+02  0.51100000000E-03 0.  1.
         11   -1    0    0    0    0 -0.00000000000E+00 -0.00000000000E+00 -0.45593999997E+02  0.45594000000E+02  0.51100000000E-03 0. -1.
    9900012    2    1    2    0    0 -0.22677777116E+02  0.33527751954E+02 -0.38436200348E+01  0.50528866451E+02  0.30000020065E+02 0.  0.
        -12    1    1    2    0    0  0.22677777116E+02 -0.33527751954E+02  0.38436200348E+01  0.40659133549E+02  0.00000000000E+00 0.  1.
         11    1    3    3    0    0 -0.20069146533E+02  0.92849281540E+01 -0.30192500945E+01  0.22318073501E+02  0.51100000000E-03 0. -1.
        -11    1    3    3    0    0 -0.49002131058E+01  0.26690284610E+01 -0.31225880830E+01  0.63942441309E+01  0.51100000000E-03 0.  1.
         12    1    3    3    0    0  0.22915825233E+01  0.21573795339E+02  0.22982181428E+01  0.21816548820E+02  0.00000000000E+00 0. -1.
</event>
<event>
 7    1  0.2817603E-011  0.5052886E+02  0.7816164E-02  0.1300439E+00
        -11   -1    0    0    0    0  0.00000000000E+00  0.00000000000E+00  0.45593999997E+02  0.45594000000E+02  0.51100000000E-03 0.  1.
         11   -1    0    0    0    0 -0.00000000000E+00 -0.00000000000E+00 -0.45593999997E+02  0.45594000000E+02  0.51100000000E-03 0. -1.
    9900012    2    1    2    0    0 -0.74458948798E+01 -0.19922155738E+02 -0.34653019891E+02  0.50528862929E+02  0.30000009359E+02 0.  0.
        -12    1    1    2    0    0  0.74458948798E+01  0.19922155738E+02  0.34653019891E+02  0.40659137071E+02  0.00000000000E+00 0.  1.
         11    1    3    3    0    0 -0.28611816768E+01 -0.11916628051E+02 -0.64585210234E+01  0.13852973643E+02  0.51100000000E-03 0. -1.
        -11    1    3    3    0    0  0.42020157534E+01  0.36980472258E+01 -0.85050109383E+00  0.56617878843E+01  0.51100000000E-03 0.  1.
         12    1    3    3    0    0 -0.87867289563E+01 -0.11703574913E+02 -0.27343997773E+02  0.31014101401E+02  0.00000000000E+00 0. -1.
</event>
<event>
 7    1  0.2817603E-011  0.5052885E+02  0.7816164E-02  0.1300439E+00
        -11   -1    0    0    0    0  0.00000000000E+00  0.00000000000E+00  0.45593999997E+02  0.45594000000E+02  0.51100000000E-03 0.  1.
         11   -1    0    0    0    0 -0.00000000000E+00 -0.00000000000E+00 -0.45593999997E+02  0.45594000000E+02  0.51100000000E-03 0. -1.
    9900012    2    1    2    0    0  0.15584085392E+02 -0.34039683579E+02 -0.15861994524E+02  0.50528847943E+02  0.29999963809E+02 0.  0.
        -12    1    1    2    0    0 -0.15584085392E+02  0.34039683579E+02  0.15861994524E+02  0.40659152057E+02  0.00000000000E+00 0.  1.
         11    1    3    3    0    0  0.32218445185E+01 -0.65236330212E+01  0.13222240933E+01  0.73950217519E+01  0.51100000000E-03 0. -1.
        -11    1    3    3    0    0 -0.67056375263E+01 -0.87353054456E+01  0.55276154636E+00  0.11026181635E+02  0.51100000000E-03 0.  1.
        -12    1    3    3    0    0  0.19067878399E+02 -0.18780745112E+02 -0.17736980164E+02  0.32107644557E+02  0.00000000000E+00 0.  1.
</event>
<event>
 7    1  0.2817603E-011  0.5052885E+02  0.7816164E-02  0.1300439E+00
        -11   -1    0    0    0    0  0.00000000000E+00  0.00000000000E+00  0.45593999997E+02  0.45594000000E+02  0.51100000000E-03 0.  1.
         11   -1    0    0    0    0 -0.00000000000E+00 -0.00000000000E+00 -0.45593999997E+02  0.45594000000E+02  0.51100000000E-03 0. -1.
    9900012    2    1    2    0    0 -0.35370683691E+02  0.16554803671E+02 -0.11314568466E+02  0.50528852826E+02  0.29999978651E+02 0.  0.
        -12    1    1    2    0    0  0.35370683691E+02 -0.16554803671E+02  0.11314568466E+02  0.40659147174E+02  0.00000000000E+00 0.  1.
         11    1    3    3    0    0  0.21373897468E+01 -0.27836186606E+00 -0.42783955793E+01  0.47906773271E+01  0.51100000000E-03 0. -1.
        -11    1    3    3    0    0 -0.59264641751E+01 -0.41852630447E+01 -0.97187287740E+00  0.73201052945E+01  0.51100000000E-03 0.  1.
        -12    1    3    3    0    0 -0.31581609262E+02  0.21018428582E+02 -0.60643000090E+01  0.38418070205E+02  0.00000000000E+00 0.  1.
</event>
<event>
 7    1  0.2817603E-011  0.5052887E+02  0.7816164E-02  0.1300439E+00
        -11   -1    0    0    0    0  0.00000000000E+00  0.00000000000E+00  0.45593999997E+02  0.45594000000E+02  0.51100000000E-03 0. -1.
         11   -1    0    0    0    0 -0.00000000000E+00 -0.00000000000E+00 -0.45593999997E+02  0.45594000000E+02  0.51100000000E-03 0.  1.
    9900012    2    1    2    0    0  0.79608241126E+01  0.39842698806E+02  0.15328460069E+01  0.50528868362E+02  0.30000025873E+02 0.  0.
        -12    1    1    2    0    0 -0.79608241126E+01 -0.39842698806E+02 -0.15328460069E+01  0.40659131638E+02  0.00000000000E+00 0.  1.
         11    1    3    3    0    0  0.86184580504E+00 -0.37315408696E+01 -0.99769850412E+00  0.39575975060E+01  0.51100000000E-03 0. -1.
        -11    1    3    3    0    0  0.19986326690E+01  0.65935626628E+01 -0.49689200454E+01  0.84946905661E+01  0.51100000000E-03 0.  1.
         12    1    3    3    0    0  0.51003456386E+01  0.36980677013E+02  0.74994645564E+01  0.38076580290E+02  0.00000000000E+00 0. -1.
</event>
<event>
 7    1  0.2817603E-011  0.5052885E+02  0.7816164E-02  0.1300439E+00
        -11   -1    0    0    0    0  0.00000000000E+00  0.00000000000E+00  0.45593999997E+02  0.45594000000E+02  0.51100000000E-03 0.  1.
         11   -1    0    0    0    0 -0.00000000000E+00 -0.00000000000E+00 -0.45593999997E+02  0.45594000000E+02  0.51100000000E-03 0. -1.
    9900012    2    1    2    0    0  0.23285116540E+02 -0.32284517106E+02 -0.82873102233E+01  0.50528853332E+02  0.29999980187E+02 0.  0.
        -12    1    1    2    0    0 -0.23285116540E+02  0.32284517106E+02  0.82873102233E+01  0.40659146668E+02  0.00000000000E+00 0.  1.
         11    1    3    3    0    0  0.92137362932E+01 -0.12021886621E+02  0.79501770244E+01  0.17106256440E+02  0.51100000000E-03 0. -1.
        -11    1    3    3    0    0 -0.34738439420E+01 -0.28539801204E+01 -0.23959201693E+01  0.50944310752E+01  0.51100000000E-03 0.  1.
         12    1    3    3    0    0  0.17545224189E+02 -0.17408650364E+02 -0.13841567078E+02  0.28328165816E+02  0.00000000000E+00 0. -1.
</event>
<event>
 7    1  0.2817603E-011  0.5052886E+02  0.7816164E-02  0.1300439E+00
        -11   -1    0    0    0    0  0.00000000000E+00  0.00000000000E+00  0.45593999997E+02  0.45594000000E+02  0.51100000000E-03 0.  1.
         11   -1    0    0    0    0 -0.00000000000E+00 -0.00000000000E+00 -0.45593999997E+02  0.45594000000E+02  0.51100000000E-03 0. -1.
    9900012    2    1    2    0    0  0.52781393196E+01 -0.37950750564E+02 -0.13603208982E+02  0.50528861819E+02  0.30000005984E+02 0.  0.
        -12    1    1    2    0    0 -0.52781393196E+01  0.37950750564E+02  0.13603208982E+02  0.40659138181E+02  0.00000000000E+00 0.  1.
         11    1    3    3    0    0  0.39014108814E+01 -0.19076886526E+02 -0.10934729927E+02  0.22331970921E+02  0.51100000000E-03 0. -1.
        -11    1    3    3    0    0 -0.18810997330E+01  0.98891615748E+00 -0.72489996419E+01  0.75541040132E+01  0.51100000000E-03 0.  1.
        -12    1    3    3    0    0  0.32578281712E+01 -0.19862780196E+02  0.45805205873E+01  0.20642786884E+02  0.00000000000E+00 0.  1.
</event>
<event>
 7    1  0.2817603E-011  0.5052887E+02  0.7816164E-02  0.1300439E+00
        -11   -1    0    0    0    0  0.00000000000E+00  0.00000000000E+00  0.45593999997E+02  0.45594000000E+02  0.51100000000E-03 0.  1.
         11   -1    0    0    0    0 -0.00000000000E+00 -0.00000000000E+00 -0.45593999997E+02  0.45594000000E+02  0.51100000000E-03 0. -1.
    9900012    2    1    2    0    0 -0.24025041657E+02  0.13846751961E+02 -0.29735999287E+02  0.50528870397E+02  0.30000032058E+02 0.  0.
        -12    1    1    2    0    0  0.24025041657E+02 -0.13846751961E+02  0.29735999287E+02  0.40659129603E+02  0.00000000000E+00 0.  1.
         11    1    3    3    0    0 -0.12498874158E+02 -0.32027618096E+01 -0.11597202867E+02  0.17348621070E+02  0.51100000000E-03 0. -1.
        -11    1    3    3    0    0  0.45665403255E+01  0.34371571278E+01 -0.57607394992E+00  0.57444931127E+01  0.51100000000E-03 0.  1.
         12    1    3    3    0    0 -0.16092707824E+02  0.13612356643E+02 -0.17562722470E+02  0.27435756214E+02  0.00000000000E+00 0. -1.
</event>
<event>
 7    1  0.2817603E-011  0.5052886E+02  0.7816164E-02  0.1300439E+00
        -11   -1    0    0    0    0  0.00000000000E+00  0.00000000000E+00  0.45593999997E+02  0.45594000000E+02  0.51100000000E-03 0. -1.
         11   -1    0    0    0    0 -0.00000000000E+00 -0.00000000000E+00 -0.45593999997E+02  0.45594000000E+02  0.51100000000E-03 0.  1.
    9900012    2    1    2    0    0  0.29378989490E+02  0.23156701877E+02  0.15931355214E+02  0.50528856573E+02  0.29999990040E+02 0.  0.
        -12    1    1    2    0    0 -0.29378989490E+02 -0.23156701877E+02 -0.15931355214E+02  0.40659143427E+02  0.00000000000E+00 0.  1.
         11    1    3    3    0    0  0.10403440346E+02  0.14357351092E+02  0.44565119262E+01  0.18281837988E+02  0.51100000000E-03 0. -1.
        -11    1    3    3    0    0 -0.14410471802E+01  0.95395381799E+01  0.27505837140E+01  0.10032203980E+02  0.51100000000E-03 0.  1.
         12    1    3    3    0    0  0.20416596324E+02 -0.74018739518E+00  0.87242595735E+01  0.22214814605E+02  0.00000000000E+00 0. -1.
</event>
<event>
 7    1  0.2817603E-011  0.5052885E+02  0.7816164E-02  0.1300439E+00
        -11   -1    0    0    0    0  0.00000000000E+00  0.00000000000E+00  0.45593999997E+02  0.45594000000E+02  0.51100000000E-03 0.  1.
         11   -1    0    0    0    0 -0.00000000000E+00 -0.00000000000E+00 -0.45593999997E+02  0.45594000000E+02  0.51100000000E-03 0. -1.
    9900012    2    1    2    0    0  0.17800743034E+02 -0.34716982439E+02 -0.11446894684E+02  0.50528847031E+02  0.29999961035E+02 0.  0.
        -12    1    1    2    0    0 -0.17800743034E+02  0.34716982439E+02  0.11446894684E+02  0.40659152969E+02  0.00000000000E+00 0.  1.
         11    1    3    3    0    0 -0.58635075165E+01 -0.13527010271E+02 -0.34649707646E+01  0.15144858862E+02  0.51100000000E-03 0. -1.
        -11    1    3    3    0    0  0.74837103674E+01 -0.48949484599E+01  0.36301906236E+01  0.96511515123E+01  0.51100000000E-03 0.  1.
        -12    1    3    3    0    0  0.16180540183E+02 -0.16295023708E+02 -0.11612114543E+02  0.25732836657E+02  0.00000000000E+00 0.  1.
</event>
<event>
 7    1  0.2817603E-011  0.5052886E+02  0.7816164E-02  0.1300439E+00
        -11   -1    0    0    0    0  0.00000000000E+00  0.00000000000E+00  0.45593999997E+02  0.45594000000E+02  0.51100000000E-03 0.  1.
         11   -1    0    0    0    0 -0.00000000000E+00 -0.00000000000E+00 -0.45593999997E+02  0.45594000000E+02  0.51100000000E-03 0. -1.
    9900012    2    1    2    0    0 -0.37162307832E+02  0.13295794886E+02 -0.97647441423E+01  0.50528861873E+02  0.30000006149E+02 0.  0.
        -12    1    1    2    0    0  0.37162307832E+02 -0.13295794886E+02  0.97647441423E+01  0.40659138127E+02  0.00000000000E+00 0.  1.
         11    1    3    3    0    0 -0.65528895111E+01 -0.11979495835E+01 -0.11067842808E+01  0.67528079978E+01  0.51100000000E-03 0. -1.
        -11    1    3    3    0    0 -0.32582447503E+02  0.50695126800E+01 -0.88647865666E+01  0.34145282034E+02  0.51100000000E-03 0.  1.
        -12    1    3    3    0    0  0.19730291813E+01  0.94242317891E+01  0.20682670516E+00  0.96307718409E+01  0.00000000000E+00 0.  1.
</event>
<event>
 7    1  0.2817603E-011  0.5052888E+02  0.7816164E-02  0.1300439E+00
        -11   -1    0    0    0    0  0.00000000000E+00  0.00000000000E+00  0.45593999997E+02  0.45594000000E+02  0.51100000000E-03 0.  1.
         11   -1    0    0    0    0 -0.00000000000E+00 -0.00000000000E+00 -0.45593999997E+02  0.45594000000E+02  0.51100000000E-03 0. -1.
    9900012    2    1    2    0    0 -0.24331508428E+02 -0.30771286257E+02  0.10689692346E+02  0.50528881924E+02  0.30000067095E+02 0.  0.
        -12    1    1    2    0    0  0.24331508428E+02  0.30771286257E+02 -0.10689692346E+02  0.40659118076E+02  0.00000000000E+00 0.  1.
         11    1    3    3    0    0 -0.15663653073E+02 -0.29263084459E+02 -0.67438625346E+00  0.33198387562E+02  0.51100000000E-03 0. -1.
        -11    1    3    3    0    0 -0.37577698937E+01 -0.28054802991E+01 -0.20688426920E+00  0.46940766552E+01  0.51100000000E-03 0.  1.
        -12    1    3    3    0    0 -0.49100854612E+01  0.12972785005E+01  0.11570962869E+02  0.12636417707E+02  0.00000000000E+00 0.  1.
</event>
<event>
 7    1  0.2817603E-011  0.5052886E+02  0.7816164E-02  0.1300439E+00
        -11   -1    0    0    0    0  0.00000000000E+00  0.00000000000E+00  0.45593999997E+02  0.45594000000E+02  0.51100000000E-03 0.  1.
         11   -1    0    0    0    0 -0.00000000000E+00 -0.00000000000E+00 -0.45593999997E+02  0.45594000000E+02  0.51100000000E-03 0. -1.
    9900012    2    1    2    0    0 -0.17101692888E+02 -0.25786052397E+00 -0.36886734288E+02  0.50528861321E+02  0.30000004470E+02 0.  0.
        -12    1    1    2    0    0  0.17101692888E+02  0.25786052397E+00  0.36886734288E+02  0.40659138679E+02  0.00000000000E+00 0.  1.
         11    1    3    3    0    0 -0.28820936757E+01 -0.96557958374E+01 -0.13045893599E+02  0.16484422867E+02  0.51100000000E-03 0. -1.
        -11    1    3    3    0    0  0.76017581427E+00  0.91959826246E+01 -0.10566729815E+02  0.14028533171E+02  0.51100000000E-03 0.  1.
         12    1    3    3    0    0 -0.14979775027E+02  0.20195268883E+00 -0.13274110874E+02  0.20015905282E+02  0.00000000000E+00 0. -1.
</event>
<event>
 7    1  0.2817603E-011  0.5052886E+02  0.7816164E-02  0.1300439E+00
        -11   -1    0    0    0    0  0.00000000000E+00  0.00000000000E+00  0.45593999997E+02  0.45594000000E+02  0.51100000000E-03 0.  1.
         11   -1    0    0    0    0 -0.00000000000E+00 -0.00000000000E+00 -0.45593999997E+02  0.45594000000E+02  0.51100000000E-03 0. -1.
    9900012    2    1    2    0    0  0.96845728389E+01 -0.13657411370E+02 -0.37051991737E+02  0.50528856772E+02  0.29999990643E+02 0.  0.
        -12    1    1    2    0    0 -0.96845728389E+01  0.13657411370E+02  0.37051991737E+02  0.40659143228E+02  0.00000000000E+00 0.  1.
         11    1    3    3    0    0  0.19180063325E+01  0.21585654141E+01 -0.11234909966E+02  0.11600058411E+02  0.51100000000E-03 0. -1.
        -11    1    3    3    0    0  0.12046088401E+02 -0.14280511644E+01 -0.18763782789E+02  0.22343390985E+02  0.51100000000E-03 0.  1.
        -12    1    3    3    0    0 -0.42795218945E+01 -0.14387925620E+02 -0.70532989819E+01  0.16585407376E+02  0.00000000000E+00 0.  1.
</event>
<event>
 7    1  0.2817603E-011  0.5052883E+02  0.7816164E-02  0.1300439E+00
        -11   -1    0    0    0    0  0.00000000000E+00  0.00000000000E+00  0.45593999997E+02  0.45594000000E+02  0.51100000000E-03 0.  1.
         11   -1    0    0    0    0 -0.00000000000E+00 -0.00000000000E+00 -0.45593999997E+02  0.45594000000E+02  0.51100000000E-03 0. -1.
    9900012    2    1    2    0    0 -0.18677791594E+02  0.17569158850E+02 -0.31553647941E+02  0.50528832031E+02  0.29999915443E+02 0.  0.
        -12    1    1    2    0    0  0.18677791594E+02 -0.17569158850E+02  0.31553647941E+02  0.40659167969E+02  0.00000000000E+00 0.  1.
         11    1    3    3    0    0 -0.18083629225E+02 -0.26408278766E+01 -0.95659562293E+01  0.20627630418E+02  0.51100000000E-03 0.  1.
        -11    1    3    3    0    0  0.63045870749E-01  0.23526149817E+00 -0.49882593077E+00  0.55511289363E+00  0.51100000000E-03 0. -1.
        -12    1    3    3    0    0 -0.65720823988E+00  0.19974725229E+02 -0.21488865781E+02  0.29346088720E+02  0.00000000000E+00 0.  1.
</event>
<event>
 7    1  0.2817603E-011  0.5052886E+02  0.7816164E-02  0.1300439E+00
        -11   -1    0    0    0    0  0.00000000000E+00  0.00000000000E+00  0.45593999997E+02  0.45594000000E+02  0.51100000000E-03 0.  1.
         11   -1    0    0    0    0 -0.00000000000E+00 -0.00000000000E+00 -0.45593999997E+02  0.45594000000E+02  0.51100000000E-03 0. -1.
    9900012    2    1    2    0    0  0.26060550924E+01  0.31585259652E+02 -0.25470477943E+02  0.50528863301E+02  0.30000010490E+02 0.  0.
        -12    1    1    2    0    0 -0.26060550924E+01 -0.31585259652E+02  0.25470477943E+02  0.40659136699E+02  0.00000000000E+00 0.  1.
         11    1    3    3    0    0  0.10719664158E+01 -0.77380820481E+00  0.14628945053E+01  0.19717889667E+01  0.51100000000E-03 0. -1.
        -11    1    3    3    0    0 -0.46366156960E+01 -0.90850162545E+00  0.82034900768E+00  0.47954721427E+01  0.51100000000E-03 0.  1.
         12    1    3    3    0    0  0.61707043727E+01  0.33267569482E+02 -0.27753721456E+02  0.43761602192E+02  0.00000000000E+00 0. -1.
</event>
<event>
 7    1  0.2817603E-011  0.5052885E+02  0.7816164E-02  0.1300439E+00
        -11   -1    0    0    0    0  0.00000000000E+00  0.00000000000E+00  0.45593999997E+02  0.45594000000E+02  0.51100000000E-03 0.  1.
         11   -1    0    0    0    0 -0.00000000000E+00 -0.00000000000E+00 -0.45593999997E+02  0.45594000000E+02  0.51100000000E-03 0. -1.
    9900012    2    1    2    0    0 -0.68484774530E+01 -0.57810010735E+01 -0.39659109826E+02  0.50528848398E+02  0.29999965190E+02 0.  0.
        -12    1    1    2    0    0  0.68484774530E+01  0.57810010735E+01  0.39659109826E+02  0.40659151602E+02  0.00000000000E+00 0.  1.
         11    1    3    3    0    0 -0.12087145811E+02 -0.14598334023E+02 -0.17324888682E+02  0.25678049346E+02  0.51100000000E-03 0.  1.
        -11    1    3    3    0    0  0.40420412387E+01  0.33569661145E+01 -0.12045804042E+02  0.13141868747E+02  0.51100000000E-03 0. -1.
        -12    1    3    3    0    0  0.11966271193E+01  0.54603668349E+01 -0.10288417101E+02  0.11708930305E+02  0.00000000000E+00 0.  1.
</event>
<event>
 7    1  0.3376406E-011  0.5052887E+02  0.7816164E-02  0.1300439E+00
        -11   -1    0    0    0    0  0.00000000000E+00  0.00000000000E+00  0.45593999997E+02  0.45594000000E+02  0.51100000000E-03 0.  1.
         11   -1    0    0    0    0 -0.00000000000E+00 -0.00000000000E+00 -0.45593999997E+02  0.45594000000E+02  0.51100000000E-03 0. -1.
    9900012    2    1    2    0    0  0.36595357554E+02  0.17494793811E+02  0.28065436267E+01  0.50528871970E+02  0.30000036840E+02 0.  0.
        -12    1    1    2    0    0 -0.36595357554E+02 -0.17494793811E+02 -0.28065436267E+01  0.40659128030E+02  0.00000000000E+00 0.  1.
         11    1    3    3    0    0  0.13334211247E+02  0.51397176148E+00 -0.62040156520E+01  0.14715813502E+02  0.51100000000E-03 0. -1.
        -11    1    3    3    0    0 -0.54916571662E+00  0.91108254223E+01 -0.11204604833E+00  0.91280489393E+01  0.51100000000E-03 0.  1.
         12    1    3    3    0    0  0.23810312024E+02  0.78699966273E+01  0.91226053271E+01  0.26685009529E+02  0.00000000000E+00 0. -1.
</event>
<event>
 7    1  0.2817603E-011  0.5052886E+02  0.7816164E-02  0.1300439E+00
        -11   -1    0    0    0    0  0.00000000000E+00  0.00000000000E+00  0.45593999997E+02  0.45594000000E+02  0.51100000000E-03 0.  1.
         11   -1    0    0    0    0 -0.00000000000E+00 -0.00000000000E+00 -0.45593999997E+02  0.45594000000E+02  0.51100000000E-03 0. -1.
    9900012    2    1    2    0    0 -0.44849277133E+01 -0.10389375293E+02 -0.39052683554E+02  0.50528858490E+02  0.29999995865E+02 0.  0.
        -12    1    1    2    0    0  0.44849277133E+01  0.10389375293E+02  0.39052683554E+02  0.40659141510E+02  0.00000000000E+00 0.  1.
         11    1    3    3    0    0 -0.31861188353E+01 -0.42818622097E+00 -0.89800862455E+01  0.95381678487E+01  0.51100000000E-03 0. -1.
        -11    1    3    3    0    0 -0.50913079579E+01  0.60035144213E+01 -0.20579358370E+02  0.22033465304E+02  0.51100000000E-03 0.  1.
        -12    1    3    3    0    0  0.37924990799E+01 -0.15964703494E+02 -0.94932389385E+01  0.18957225336E+02  0.00000000000E+00 0.  1.
</event>
<event>
 7    1  0.2817603E-011  0.5052887E+02  0.7816164E-02  0.1300439E+00
        -11   -1    0    0    0    0  0.00000000000E+00  0.00000000000E+00  0.45593999997E+02  0.45594000000E+02  0.51100000000E-03 0.  1.
         11   -1    0    0    0    0 -0.00000000000E+00 -0.00000000000E+00 -0.45593999997E+02  0.45594000000E+02  0.51100000000E-03 0. -1.
    9900012    2    1    2    0    0  0.38088690023E+02 -0.84971082304E+01 -0.11411210072E+02  0.50528869768E+02  0.30000030146E+02 0.  0.
        -12    1    1    2    0    0 -0.38088690023E+02  0.84971082304E+01  0.11411210072E+02  0.40659130232E+02  0.00000000000E+00 0.  1.
         11    1    3    3    0    0 -0.18443980737E+01 -0.66702332290E+00 -0.30515927035E+01  0.36275256935E+01  0.51100000000E-03 0. -1.
        -11    1    3    3    0    0  0.20346680173E+02  0.69069013661E+01 -0.58041014884E+01  0.22257139863E+02  0.51100000000E-03 0.  1.
         12    1    3    3    0    0  0.19586407924E+02 -0.14736986274E+02 -0.25555158802E+01  0.24644204211E+02  0.00000000000E+00 0. -1.
</event>
<event>
 7    1  0.2817603E-011  0.5052886E+02  0.7816164E-02  0.1300439E+00
        -11   -1    0    0    0    0  0.00000000000E+00  0.00000000000E+00  0.45593999997E+02  0.45594000000E+02  0.51100000000E-03 0.  1.
         11   -1    0    0    0    0 -0.00000000000E+00 -0.00000000000E+00 -0.45593999997E+02  0.45594000000E+02  0.51100000000E-03 0. -1.
    9900012    2    1    2    0    0 -0.25582047354E+02 -0.28134407093E+02 -0.14393748029E+02  0.50528855990E+02  0.29999988268E+02 0.  0.
        -12    1    1    2    0    0  0.25582047354E+02  0.28134407093E+02  0.14393748029E+02  0.40659144010E+02  0.00000000000E+00 0.  1.
         11    1    3    3    0    0 -0.25442996815E+02 -0.30349514540E+02 -0.98794344710E+01  0.40817181988E+02  0.51100000000E-03 0. -1.
        -11    1    3    3    0    0 -0.31327890531E+01 -0.17488838531E+01 -0.14162205042E+01  0.38572843764E+01  0.51100000000E-03 0.  1.
        -12    1    3    3    0    0  0.29937385138E+01  0.39639913003E+01 -0.30980930533E+01  0.58543896254E+01  0.00000000000E+00 0.  1.
</event>
<event>
 7    1  0.2817603E-011  0.5052886E+02  0.7816164E-02  0.1300439E+00
        -11   -1    0    0    0    0  0.00000000000E+00  0.00000000000E+00  0.45593999997E+02  0.45594000000E+02  0.51100000000E-03 0.  1.
         11   -1    0    0    0    0 -0.00000000000E+00 -0.00000000000E+00 -0.45593999997E+02  0.45594000000E+02  0.51100000000E-03 0. -1.
    9900012    2    1    2    0    0  0.28020964666E+02  0.29347482093E+02  0.25915466371E+01  0.50528864741E+02  0.30000014868E+02 0.  0.
        -12    1    1    2    0    0 -0.28020964666E+02 -0.29347482093E+02 -0.25915466371E+01  0.40659135259E+02  0.00000000000E+00 0.  1.
         11    1    3    3    0    0  0.72979541392E+01  0.11098053201E+02  0.20686125749E+01  0.13442696073E+02  0.51100000000E-03 0. -1.
        -11    1    3    3    0    0  0.72512138279E+01  0.18403329901E+02  0.83884518334E+01  0.21485548116E+02  0.51100000000E-03 0.  1.
         12    1    3    3    0    0  0.13471796699E+02 -0.15390100848E+00 -0.78655177712E+01  0.15600620552E+02  0.00000000000E+00 0. -1.
</event>
<event>
 7    1  0.2817603E-011  0.5052887E+02  0.7816164E-02  0.1300439E+00
        -11   -1    0    0    0    0  0.00000000000E+00  0.00000000000E+00  0.45593999997E+02  0.45594000000E+02  0.51100000000E-03 0. -1.
         11   -1    0    0    0    0 -0.00000000000E+00 -0.00000000000E+00 -0.45593999997E+02  0.45594000000E+02  0.51100000000E-03 0.  1.
    9900012    2    1    2    0    0  0.12029106074E+02 -0.13981367796E+02  0.36235161163E+02  0.50528868886E+02  0.30000027467E+02 0.  0.
        -12    1    1    2    0    0 -0.12029106074E+02  0.13981367796E+02 -0.36235161163E+02  0.40659131114E+02  0.00000000000E+00 0.  1.
         11    1    3    3    0    0 -0.20343198502E+01 -0.10764514862E+02  0.13323503555E+02  0.17249028515E+02  0.51100000000E-03 0.  1.
        -11    1    3    3    0    0  0.53669188493E+01  0.10281716658E+01  0.22961154288E+02  0.23602448208E+02  0.51100000000E-03 0. -1.
         12    1    3    3    0    0  0.86965070752E+01 -0.42450246000E+01 -0.49496679982E-01  0.96773921634E+01  0.00000000000E+00 0. -1.
</event>
<event>
 7    1  0.2817603E-011  0.5052885E+02  0.7816164E-02  0.1300439E+00
        -11   -1    0    0    0    0  0.00000000000E+00  0.00000000000E+00  0.45593999997E+02  0.45594000000E+02  0.51100000000E-03 0.  1.
         11   -1    0    0    0    0 -0.00000000000E+00 -0.00000000000E+00 -0.45593999997E+02  0.45594000000E+02  0.51100000000E-03 0. -1.
    9900012    2    1    2    0    0 -0.32965902686E+02 -0.23494519073E+02 -0.37977641703E+01  0.50528853685E+02  0.29999981262E+02 0.  0.
        -12    1    1    2    0    0  0.32965902686E+02  0.23494519073E+02  0.37977641703E+01  0.40659146315E+02  0.00000000000E+00 0.  1.
         11    1    3    3    0    0 -0.12310249184E+01 -0.43625860033E+01  0.20629648691E+01  0.49803015268E+01  0.51100000000E-03 0. -1.
        -11    1    3    3    0    0 -0.82082163681E+01  0.26779265319E+00  0.85204059612E+01  0.11834012289E+02  0.51100000000E-03 0.  1.
         12    1    3    3    0    0 -0.23526661399E+02 -0.19399725723E+02 -0.14381135001E+02  0.33714539870E+02  0.00000000000E+00 0. -1.
</event>
<event>
 7    1  0.2867829E-011  0.5052886E+02  0.7816164E-02  0.1300439E+00
        -11   -1    0    0    0    0  0.00000000000E+00  0.00000000000E+00  0.45593999997E+02  0.45594000000E+02  0.51100000000E-03 0. -1.
         11   -1    0    0    0    0 -0.00000000000E+00 -0.00000000000E+00 -0.45593999997E+02  0.45594000000E+02  0.51100000000E-03 0.  1.
    9900012    2    1    2    0    0  0.34849200943E+02 -0.13446841724E+02  0.16058686469E+02  0.50528858717E+02  0.29999996558E+02 0.  0.
        -12    1    1    2    0    0 -0.34849200943E+02  0.13446841724E+02 -0.16058686469E+02  0.40659141283E+02  0.00000000000E+00 0.  1.
         11    1    3    3    0    0  0.29277198300E+02 -0.11646233757E+02  0.17708458939E+02  0.36143860049E+02  0.51100000000E-03 0. -1.
        -11    1    3    3    0    0  0.86119750806E+01 -0.14915983928E+01 -0.48206239023E+01  0.99814525808E+01  0.51100000000E-03 0.  1.
        -12    1    3    3    0    0 -0.30399724374E+01 -0.30900957437E+00  0.31708514321E+01  0.44035460872E+01  0.00000000000E+00 0.  1.
</event>
<event>
 7    1  0.2817603E-011  0.5052885E+02  0.7816164E-02  0.1300439E+00
        -11   -1    0    0    0    0  0.00000000000E+00  0.00000000000E+00  0.45593999997E+02  0.45594000000E+02  0.51100000000E-03 0.  1.
         11   -1    0    0    0    0 -0.00000000000E+00 -0.00000000000E+00 -0.45593999997E+02  0.45594000000E+02  0.51100000000E-03 0. -1.
    9900012    2    1    2    0    0 -0.15415820339E+02 -0.32201626635E+01 -0.37485322534E+02  0.50528851340E+02  0.29999974133E+02 0.  0.
        -12    1    1    2    0    0  0.15415820339E+02  0.32201626635E+01  0.37485322534E+02  0.40659148660E+02  0.00000000000E+00 0.  1.
         11    1    3    3    0    0 -0.17532908971E+02 -0.14578572705E+00 -0.24315057736E+02  0.29977427899E+02  0.51100000000E-03 0. -1.
        -11    1    3    3    0    0 -0.21733462051E+01  0.82556127086E+00  0.27542143734E+01  0.36042588996E+01  0.51100000000E-03 0.  1.
        -12    1    3    3    0    0  0.42904348376E+01 -0.38999382073E+01 -0.15924479171E+02  0.16947164541E+02  0.00000000000E+00 0.  1.
</event>
<event>
 7    1  0.2817603E-011  0.5052886E+02  0.7816164E-02  0.1300439E+00
        -11   -1    0    0    0    0  0.00000000000E+00  0.00000000000E+00  0.45593999997E+02  0.45594000000E+02  0.51100000000E-03 0.  1.
         11   -1    0    0    0    0 -0.00000000000E+00 -0.00000000000E+00 -0.45593999997E+02  0.45594000000E+02  0.51100000000E-03 0. -1.
    9900012    2    1    2    0    0  0.29646569352E+02 -0.27821813323E+02  0.43965028329E+00  0.50528860028E+02  0.30000000540E+02 0.  0.
        -12    1    1    2    0    0 -0.29646569352E+02  0.27821813323E+02 -0.43965028329E+00  0.40659139972E+02  0.00000000000E+00 0.  1.
         11    1    3    3    0    0  0.17124411754E+02 -0.26306145476E+02  0.12761684701E+01  0.31414763630E+02  0.51100000000E-03 0.  1.
        -11    1    3    3    0    0  0.29271655902E+01 -0.61666868099E+01 -0.41002804565E+01  0.79629532642E+01  0.51100000000E-03 0. -1.
         12    1    3    3    0    0  0.95949920080E+01  0.46510189626E+01  0.32637622698E+01  0.11151143133E+02  0.00000000000E+00 0. -1.
</event>
<event>
 7    1  0.2817603E-011  0.5052886E+02  0.7816164E-02  0.1300439E+00
        -11   -1    0    0    0    0  0.00000000000E+00  0.00000000000E+00  0.45593999997E+02  0.45594000000E+02  0.51100000000E-03 0. -1.
         11   -1    0    0    0    0 -0.00000000000E+00 -0.00000000000E+00 -0.45593999997E+02  0.45594000000E+02  0.51100000000E-03 0.  1.
    9900012    2    1    2    0    0 -0.23066828661E+02  0.32445219873E+02  0.82700974066E+01  0.50528863411E+02  0.30000010823E+02 0.  0.
        -12    1    1    2    0    0  0.23066828661E+02 -0.32445219873E+02 -0.82700974066E+01  0.40659136589E+02  0.00000000000E+00 0.  1.
         11    1    3    3    0    0 -0.11978438816E+02  0.14217714952E+02 -0.59847573219E+01  0.19530584614E+02  0.51100000000E-03 0. -1.
        -11    1    3    3    0    0 -0.13075909102E+01  0.67956511879E+01 -0.34762809297E+01  0.77443655918E+01  0.51100000000E-03 0.  1.
        -12    1    3    3    0    0 -0.97807989354E+01  0.11431853733E+02  0.17731135658E+02  0.23253913204E+02  0.00000000000E+00 0.  1.
</event>
<event>
 7    1  0.2817603E-011  0.5052886E+02  0.7816164E-02  0.1300439E+00
        -11   -1    0    0    0    0  0.00000000000E+00  0.00000000000E+00  0.45593999997E+02  0.45594000000E+02  0.51100000000E-03 0. -1.
         11   -1    0    0    0    0 -0.00000000000E+00 -0.00000000000E+00 -0.45593999997E+02  0.45594000000E+02  0.51100000000E-03 0.  1.
    9900012    2    1    2    0    0  0.45269797985E+01 -0.36999605624E+02 -0.16238870339E+02  0.50528864836E+02  0.30000015155E+02 0.  0.
        -12    1    1    2    0    0 -0.45269797985E+01  0.36999605624E+02  0.16238870339E+02  0.40659135164E+02  0.00000000000E+00 0.  1.
         11    1    3    3    0    0  0.63445830611E+01 -0.63401454373E+01 -0.59894742889E+00  0.89894336122E+01  0.51100000000E-03 0.  1.
        -11    1    3    3    0    0  0.92124920708E+01 -0.23619269138E+02 -0.11261388040E+02  0.27740921860E+02  0.51100000000E-03 0. -1.
        -12    1    3    3    0    0 -0.11030095333E+02 -0.70401910485E+01 -0.43785348699E+01  0.13798509364E+02  0.00000000000E+00 0.  1.
</event>
<event>
 7    1  0.2817603E-011  0.5052886E+02  0.7816164E-02  0.1300439E+00
        -11   -1    0    0    0    0  0.00000000000E+00  0.00000000000E+00  0.45593999997E+02  0.45594000000E+02  0.51100000000E-03 0.  1.
         11   -1    0    0    0    0 -0.00000000000E+00 -0.00000000000E+00 -0.45593999997E+02  0.45594000000E+02  0.51100000000E-03 0. -1.
    9900012    2    1    2    0    0 -0.18970491497E+01 -0.38211594503E+02 -0.13763743974E+02  0.50528863289E+02  0.30000010452E+02 0.  0.
        -12    1    1    2    0    0  0.18970491497E+01  0.38211594503E+02  0.13763743974E+02  0.40659136711E+02  0.00000000000E+00 0.  1.
         11    1    3    3    0    0  0.16994095848E+01 -0.13851211470E+01  0.60642934199E+00  0.22747110447E+01  0.51100000000E-03 0. -1.
        -11    1    3    3    0    0 -0.41760341976E+01 -0.16053678786E+02  0.73948592730E+01  0.18161602575E+02  0.51100000000E-03 0.  1.
         12    1    3    3    0    0  0.57957546309E+00 -0.20772794570E+02 -0.21765032589E+02  0.30092549669E+02  0.00000000000E+00 0. -1.
</event>
<event>
 7    1  0.2817603E-011  0.5052887E+02  0.7816164E-02  0.1300439E+00
        -11   -1    0    0    0    0  0.00000000000E+00  0.00000000000E+00  0.45593999997E+02  0.45594000000E+02  0.51100000000E-03 0.  1.
         11   -1    0    0    0    0 -0.00000000000E+00 -0.00000000000E+00 -0.45593999997E+02  0.45594000000E+02  0.51100000000E-03 0. -1.
    9900012    2    1    2    0    0  0.55243131199E+01 -0.40173019809E+02  0.29622674632E+01  0.50528873293E+02  0.30000040863E+02 0.  0.
        -12    1    1    2    0    0 -0.55243131199E+01  0.40173019809E+02 -0.29622674632E+01  0.40659126707E+02  0.00000000000E+00 0.  1.
         11    1    3    3    0    0 -0.28282556655E+01 -0.41931458964E+01  0.27887307769E-01  0.50578928993E+01  0.51100000000E-03 0. -1.
        -11    1    3    3    0    0 -0.37866093495E+01 -0.24429478819E+02  0.10779508713E+02  0.26969161168E+02  0.51100000000E-03 0.  1.
        -12    1    3    3    0    0  0.12139178135E+02 -0.11550395093E+02 -0.78451285572E+01  0.18501819226E+02  0.00000000000E+00 0.  1.
</event>
<event>
 7    1  0.2817603E-011  0.5052886E+02  0.7816164E-02  0.1300439E+00
        -11   -1    0    0    0    0  0.00000000000E+00  0.00000000000E+00  0.45593999997E+02  0.45594000000E+02  0.51100000000E-03 0.  1.
         11   -1    0    0    0    0 -0.00000000000E+00 -0.00000000000E+00 -0.45593999997E+02  0.45594000000E+02  0.51100000000E-03 0. -1.
    9900012    2    1    2    0    0 -0.79113868000E+01 -0.32067112753E+02 -0.23712354129E+02  0.50528862039E+02  0.30000006654E+02 0.  0.
        -12    1    1    2    0    0  0.79113868000E+01  0.32067112753E+02  0.23712354129E+02  0.40659137961E+02  0.00000000000E+00 0.  1.
         11    1    3    3    0    0 -0.17882319307E+02 -0.11422363256E+02 -0.14708921376E+02  0.25818599777E+02  0.51100000000E-03 0.  1.
        -11    1    3    3    0    0  0.37870165440E+01 -0.96000935184E+01 -0.47087720450E+01  0.11343536675E+02  0.51100000000E-03 0. -1.
        -12    1    3    3    0    0  0.61839159630E+01 -0.11044655978E+02 -0.42946607088E+01  0.13366725587E+02  0.00000000000E+00 0.  1.
</event>
<event>
 7    1  0.2817603E-011  0.5052886E+02  0.7816164E-02  0.1300439E+00
        -11   -1    0    0    0    0  0.00000000000E+00  0.00000000000E+00  0.45593999997E+02  0.45594000000E+02  0.51100000000E-03 0.  1.
         11   -1    0    0    0    0 -0.00000000000E+00 -0.00000000000E+00 -0.45593999997E+02  0.45594000000E+02  0.51100000000E-03 0. -1.
    9900012    2    1    2    0    0 -0.24858599040E+02 -0.16801518816E+02 -0.27439469825E+02  0.50528862220E+02  0.30000007203E+02 0.  0.
        -12    1    1    2    0    0  0.24858599040E+02  0.16801518816E+02  0.27439469825E+02  0.40659137780E+02  0.00000000000E+00 0.  1.
         11    1    3    3    0    0 -0.28033157562E+01  0.12039744559E+01  0.11128693168E+01  0.32475547874E+01  0.51100000000E-03 0. -1.
        -11    1    3    3    0    0 -0.91876962748E+01 -0.85220106259E+01  0.21049269994E+01  0.12707051030E+02  0.51100000000E-03 0.  1.
         12    1    3    3    0    0 -0.12867587009E+02 -0.94834826460E+01 -0.30657266141E+02  0.34574256402E+02  0.00000000000E+00 0. -1.
</event>
<event>
 7    1  0.2817603E-011  0.5052885E+02  0.7816164E-02  0.1300439E+00
        -11   -1    0    0    0    0  0.00000000000E+00  0.00000000000E+00  0.45593999997E+02  0.45594000000E+02  0.51100000000E-03 0.  1.
         11   -1    0    0    0    0 -0.00000000000E+00 -0.00000000000E+00 -0.45593999997E+02  0.45594000000E+02  0.51100000000E-03 0. -1.
    9900012    2    1    2    0    0  0.10043886973E+02 -0.84027901918E+01 -0.38492592012E+02  0.50528853570E+02  0.29999980913E+02 0.  0.
        -12    1    1    2    0    0 -0.10043886973E+02  0.84027901918E+01  0.38492592012E+02  0.40659146430E+02  0.00000000000E+00 0.  1.
         11    1    3    3    0    0  0.30340999036E+01  0.68118562940E+01 -0.87594321555E+01  0.11503686381E+02  0.51100000000E-03 0. -1.
        -11    1    3    3    0    0  0.27911165090E+01  0.38640482790E+01 -0.21665626778E+01  0.52359521166E+01  0.51100000000E-03 0.  1.
         12    1    3    3    0    0  0.42186705609E+01 -0.19078694765E+02 -0.27566597179E+02  0.33789215073E+02  0.00000000000E+00 0. -1.
</event>
<event>
 7    1  0.2817603E-011  0.5052891E+02  0.7816164E-02  0.1300439E+00
        -11   -1    0    0    0    0  0.00000000000E+00  0.00000000000E+00  0.45593999997E+02  0.45594000000E+02  0.51100000000E-03 0. -1.
         11   -1    0    0    0    0 -0.00000000000E+00 -0.00000000000E+00 -0.45593999997E+02  0.45594000000E+02  0.51100000000E-03 0.  1.
    9900012    2    1    2    0    0 -0.16854722231E+02 -0.26952148704E+02  0.25350779067E+02  0.50528905316E+02  0.30000138199E+02 0.  0.
        -12    1    1    2    0    0  0.16854722231E+02  0.26952148704E+02 -0.25350779067E+02  0.40659094684E+02  0.00000000000E+00 0.  1.
         11    1    3    3    0    0  0.49360272891E+01 -0.89543197670E+01  0.31883510616E+01  0.10710265666E+02  0.51100000000E-03 0. -1.
        -11    1    3    3    0    0 -0.16991610169E+02 -0.19775115973E+02  0.12565362884E+02  0.28942328389E+02  0.51100000000E-03 0.  1.
         12    1    3    3    0    0 -0.47991393507E+01  0.17772870360E+01  0.95970651210E+01  0.10876311261E+02  0.00000000000E+00 0. -1.
</event>
<event>
 7    1  0.2817603E-011  0.5052886E+02  0.7816164E-02  0.1300439E+00
        -11   -1    0    0    0    0  0.00000000000E+00  0.00000000000E+00  0.45593999997E+02  0.45594000000E+02  0.51100000000E-03 0.  1.
         11   -1    0    0    0    0 -0.00000000000E+00 -0.00000000000E+00 -0.45593999997E+02  0.45594000000E+02  0.51100000000E-03 0. -1.
    9900012    2    1    2    0    0  0.25982236052E+02  0.16199361415E+02  0.26752007575E+02  0.50528858226E+02  0.29999995063E+02 0.  0.
        -12    1    1    2    0    0 -0.25982236052E+02 -0.16199361415E+02 -0.26752007575E+02  0.40659141774E+02  0.00000000000E+00 0.  1.
         11    1    3    3    0    0  0.18504509763E+01  0.10205438541E+02  0.36652312077E+01  0.11000412024E+02  0.51100000000E-03 0. -1.
        -11    1    3    3    0    0 -0.32532029597E+01 -0.12947769666E+01  0.11298124311E+01  0.36791647532E+01  0.51100000000E-03 0.  1.
         12    1    3    3    0    0  0.27384988035E+02  0.72886998406E+01  0.21956963937E+02  0.35849281448E+02  0.00000000000E+00 0. -1.
</event>
<event>
 7    1  0.2817603E-011  0.5052886E+02  0.7816164E-02  0.1300439E+00
        -11   -1    0    0    0    0  0.00000000000E+00  0.00000000000E+00  0.45593999997E+02  0.45594000000E+02  0.51100000000E-03 0.  1.
         11   -1    0    0    0    0 -0.00000000000E+00 -0.00000000000E+00 -0.45593999997E+02  0.45594000000E+02  0.51100000000E-03 0. -1.
    9900012    2    1    2    0    0  0.13923434217E+01  0.85918098439E+01 -0.39716593655E+02  0.50528860459E+02  0.30000001852E+02 0.  0.
        -12    1    1    2    0    0 -0.13923434217E+01 -0.85918098439E+01  0.39716593655E+02  0.40659139541E+02  0.00000000000E+00 0.  1.
         11    1    3    3    0    0  0.47326847121E+01  0.88007086926E+01 -0.45879861974E+01  0.10995471599E+02  0.51100000000E-03 0. -1.
        -11    1    3    3    0    0 -0.45447966586E+01  0.83174427965E+01 -0.17002177509E+02  0.19465586856E+02  0.51100000000E-03 0.  1.
        -12    1    3    3    0    0  0.12044553681E+01 -0.85263416452E+01 -0.18126429949E+02  0.20067802004E+02  0.00000000000E+00 0.  1.
</event>
<event>
 7    1  0.2817603E-011  0.5052885E+02  0.7816164E-02  0.1300439E+00
        -11   -1    0    0    0    0  0.00000000000E+00  0.00000000000E+00  0.45593999997E+02  0.45594000000E+02  0.51100000000E-03 0.  1.
         11   -1    0    0    0    0 -0.00000000000E+00 -0.00000000000E+00 -0.45593999997E+02  0.45594000000E+02  0.51100000000E-03 0. -1.
    9900012    2    1    2    0    0  0.13325492265E+02  0.69063895327E+01 -0.37787555185E+02  0.50528852354E+02  0.29999977214E+02 0.  0.
        -12    1    1    2    0    0 -0.13325492265E+02 -0.69063895327E+01  0.37787555185E+02  0.40659147646E+02  0.00000000000E+00 0.  1.
         11    1    3    3    0    0  0.72101019868E+01  0.63921810323E+00  0.36372802216E+00  0.72475146622E+01  0.51100000000E-03 0. -1.
        -11    1    3    3    0    0  0.60090084235E+01  0.19485179108E+01 -0.16549448407E+01  0.65302179878E+01  0.51100000000E-03 0.  1.
         12    1    3    3    0    0  0.10638185472E+00  0.43186535187E+01 -0.36496338366E+02  0.36751119704E+02  0.00000000000E+00 0. -1.
</event>
<event>
 7    1  0.2817603E-011  0.5052886E+02  0.7816164E-02  0.1300439E+00
        -11   -1    0    0    0    0  0.00000000000E+00  0.00000000000E+00  0.45593999997E+02  0.45594000000E+02  0.51100000000E-03 0.  1.
         11   -1    0    0    0    0 -0.00000000000E+00 -0.00000000000E+00 -0.45593999997E+02  0.45594000000E+02  0.51100000000E-03 0. -1.
    9900012    2    1    2    0    0  0.15552545749E+02 -0.35524360771E+02 -0.12218984563E+02  0.50528862389E+02  0.30000007718E+02 0.  0.
        -12    1    1    2    0    0 -0.15552545749E+02  0.35524360771E+02  0.12218984563E+02  0.40659137611E+02  0.00000000000E+00 0.  1.
         11    1    3    3    0    0 -0.44988737251E+01 -0.64816426888E+01  0.11492946788E+01  0.79732324223E+01  0.51100000000E-03 0. -1.
        -11    1    3    3    0    0 -0.15753728098E+01  0.22873393941E+00 -0.49511771546E+01  0.52007955336E+01  0.51100000000E-03 0.  1.
         12    1    3    3    0    0  0.21626792284E+02 -0.29271452022E+02 -0.84171020876E+01  0.37354834433E+02  0.00000000000E+00 0. -1.
</event>
<event>
 7    1  0.2817603E-011  0.5052886E+02  0.7816164E-02  0.1300439E+00
        -11   -1    0    0    0    0  0.00000000000E+00  0.00000000000E+00  0.45593999997E+02  0.45594000000E+02  0.51100000000E-03 0.  1.
         11   -1    0    0    0    0 -0.00000000000E+00 -0.00000000000E+00 -0.45593999997E+02  0.45594000000E+02  0.51100000000E-03 0. -1.
    9900012    2    1    2    0    0  0.21216545492E+02  0.19442078411E+02 -0.28723321232E+02  0.50528863288E+02  0.30000010450E+02 0.  0.
        -12    1    1    2    0    0 -0.21216545492E+02 -0.19442078411E+02  0.28723321232E+02  0.40659136712E+02  0.00000000000E+00 0.  1.
         11    1    3    3    0    0  0.17002541101E+02  0.27923335450E+01 -0.18052295006E+02  0.24955337821E+02  0.51100000000E-03 0. -1.
        -11    1    3    3    0    0 -0.38945942468E+01 -0.47365601975E+00 -0.36785728771E+01  0.53781142648E+01  0.51100000000E-03 0.  1.
        -12    1    3    3    0    0  0.81085986377E+01  0.17123400886E+02 -0.69924533486E+01  0.20195411202E+02  0.00000000000E+00 0.  1.
</event>
<event>
 7    1  0.2817603E-011  0.5052887E+02  0.7816164E-02  0.1300439E+00
        -11   -1    0    0    0    0  0.00000000000E+00  0.00000000000E+00  0.45593999997E+02  0.45594000000E+02  0.51100000000E-03 0. -1.
         11   -1    0    0    0    0 -0.00000000000E+00 -0.00000000000E+00 -0.45593999997E+02  0.45594000000E+02  0.51100000000E-03 0.  1.
    9900012    2    1    2    0    0 -0.36562427604E+02  0.18501170191E+00 -0.17785383314E+02  0.50528865709E+02  0.30000017810E+02 0.  0.
        -12    1    1    2    0    0  0.36562427604E+02 -0.18501170191E+00  0.17785383314E+02  0.40659134291E+02  0.00000000000E+00 0.  1.
         11    1    3    3    0    0 -0.19911312954E+02  0.68044230775E+00 -0.75440426977E+01  0.21303426151E+02  0.51100000000E-03 0. -1.
        -11    1    3    3    0    0 -0.14000643525E+02 -0.98596728349E+01 -0.37579588422E+01  0.17531498009E+02  0.51100000000E-03 0.  1.
         12    1    3    3    0    0 -0.26504711244E+01  0.93642422290E+01 -0.64833817744E+01  0.11693941548E+02  0.00000000000E+00 0. -1.
</event>
<event>
 7    1  0.2817603E-011  0.5052889E+02  0.7816164E-02  0.1300439E+00
        -11   -1    0    0    0    0  0.00000000000E+00  0.00000000000E+00  0.45593999997E+02  0.45594000000E+02  0.51100000000E-03 0.  1.
         11   -1    0    0    0    0 -0.00000000000E+00 -0.00000000000E+00 -0.45593999997E+02  0.45594000000E+02  0.51100000000E-03 0. -1.
    9900012    2    1    2    0    0 -0.23054313203E+02  0.33099305074E+02  0.51086203657E+01  0.50528888405E+02  0.30000086796E+02 0.  0.
        -12    1    1    2    0    0  0.23054313203E+02 -0.33099305074E+02 -0.51086203657E+01  0.40659111595E+02  0.00000000000E+00 0.  1.
         11    1    3    3    0    0 -0.16359112855E+01  0.93728553012E+01 -0.54246057277E+01  0.10952304314E+02  0.51100000000E-03 0. -1.
        -11    1    3    3    0    0  0.36443026544E+01  0.25943936038E+01 -0.14033435616E+01  0.46884105432E+01  0.51100000000E-03 0.  1.
        -12    1    3    3    0    0 -0.25062704571E+02  0.21132056169E+02  0.11936569655E+02  0.34888173548E+02  0.00000000000E+00 0.  1.
</event>
<event>
 7    1  0.2817603E-011  0.5052886E+02  0.7816164E-02  0.1300439E+00
        -11   -1    0    0    0    0  0.00000000000E+00  0.00000000000E+00  0.45593999997E+02  0.45594000000E+02  0.51100000000E-03 0. -1.
         11   -1    0    0    0    0 -0.00000000000E+00 -0.00000000000E+00 -0.45593999997E+02  0.45594000000E+02  0.51100000000E-03 0.  1.
    9900012    2    1    2    0    0 -0.39059335247E+02  0.76935609495E+01  0.82669716583E+01  0.50528863629E+02  0.30000011487E+02 0.  0.
        -12    1    1    2    0    0  0.39059335247E+02 -0.76935609495E+01 -0.82669716583E+01  0.40659136371E+02  0.00000000000E+00 0.  1.
         11    1    3    3    0    0  0.47025855351E+01 -0.33786468784E+00  0.82835918907E+00  0.47869241136E+01  0.51100000000E-03 0.  1.
        -11    1    3    3    0    0 -0.46687678788E+01 -0.52272636095E+00  0.27666123282E+01  0.54520436894E+01  0.51100000000E-03 0. -1.
        -12    1    3    3    0    0 -0.39093152904E+02  0.85541519983E+01  0.46720001410E+01  0.40289895826E+02  0.00000000000E+00 0.  1.
</event>
<event>
 7    1  0.3627190E-011  0.5052886E+02  0.7816164E-02  0.1300439E+00
        -11   -1    0    0    0    0  0.00000000000E+00  0.00000000000E+00  0.45593999997E+02  0.45594000000E+02  0.51100000000E-03 0. -1.
         11   -1    0    0    0    0 -0.00000000000E+00 -0.00000000000E+00 -0.45593999997E+02  0.45594000000E+02  0.51100000000E-03 0.  1.
    9900012    2    1    2    0    0  0.19178078297E+02 -0.11836879681E+02  0.33841618948E+02  0.50528861042E+02  0.30000003625E+02 0.  0.
        -12    1    1    2    0    0 -0.19178078297E+02  0.11836879681E+02 -0.33841618948E+02  0.40659138958E+02  0.00000000000E+00 0.  1.
         11    1    3    3    0    0  0.17328388065E+02 -0.71236769430E+01  0.18825812622E+02  0.26559951568E+02  0.51100000000E-03 0. -1.
        -11    1    3    3    0    0  0.67334579448E+01 -0.92356229652E+01  0.64598914397E+01  0.13128837920E+02  0.51100000000E-03 0.  1.
        -12    1    3    3    0    0 -0.48837677128E+01  0.45224202272E+01  0.85559148860E+01  0.10840071555E+02  0.00000000000E+00 0.  1.
</event>
<event>
 7    1  0.2817603E-011  0.5052886E+02  0.7816164E-02  0.1300439E+00
        -11   -1    0    0    0    0  0.00000000000E+00  0.00000000000E+00  0.45593999997E+02  0.45594000000E+02  0.51100000000E-03 0. -1.
         11   -1    0    0    0    0 -0.00000000000E+00 -0.00000000000E+00 -0.45593999997E+02  0.45594000000E+02  0.51100000000E-03 0.  1.
    9900012    2    1    2    0    0 -0.10064738430E+02  0.39346464166E+02  0.19293090566E+01  0.50528862829E+02  0.30000009056E+02 0.  0.
        -12    1    1    2    0    0  0.10064738430E+02 -0.39346464166E+02 -0.19293090566E+01  0.40659137171E+02  0.00000000000E+00 0.  1.
         11    1    3    3    0    0 -0.14962864032E+01  0.76687775843E+01  0.56395253340E+00  0.78337133825E+01  0.51100000000E-03 0. -1.
        -11    1    3    3    0    0 -0.35625445699E+01  0.13783475118E+02 -0.12945147269E+02  0.19241952817E+02  0.51100000000E-03 0.  1.
        -12    1    3    3    0    0 -0.50059074564E+01  0.17894211464E+02  0.14310503792E+02  0.23453196630E+02  0.00000000000E+00 0.  1.
</event>
<event>
 7    1  0.2817603E-011  0.5052883E+02  0.7816164E-02  0.1300439E+00
        -11   -1    0    0    0    0  0.00000000000E+00  0.00000000000E+00  0.45593999997E+02  0.45594000000E+02  0.51100000000E-03 0.  1.
         11   -1    0    0    0    0 -0.00000000000E+00 -0.00000000000E+00 -0.45593999997E+02  0.45594000000E+02  0.51100000000E-03 0. -1.
    9900012    2    1    2    0    0  0.77639426243E+01 -0.26029216830E+02 -0.30255066971E+02  0.50528831154E+02  0.29999912774E+02 0.  0.
        -12    1    1    2    0    0 -0.77639426243E+01  0.26029216830E+02  0.30255066971E+02  0.40659168846E+02  0.00000000000E+00 0.  1.
         11    1    3    3    0    0 -0.26912606355E+01 -0.12951147498E+02 -0.22952145877E+02  0.26491057094E+02  0.51100000000E-03 0.  1.
        -11    1    3    3    0    0  0.10547361500E+02 -0.14733772464E+02 -0.10130710329E+02  0.20759628553E+02  0.51100000000E-03 0. -1.
         12    1    3    3    0    0 -0.92158239707E-01  0.16557031322E+01  0.28277892353E+01  0.32781455066E+01  0.00000000000E+00 0. -1.
</event>
<event>
 7    1  0.2817603E-011  0.5052886E+02  0.7816164E-02  0.1300439E+00
        -11   -1    0    0    0    0  0.00000000000E+00  0.00000000000E+00  0.45593999997E+02  0.45594000000E+02  0.51100000000E-03 0.  1.
         11   -1    0    0    0    0 -0.00000000000E+00 -0.00000000000E+00 -0.45593999997E+02  0.45594000000E+02  0.51100000000E-03 0. -1.
    9900012    2    1    2    0    0 -0.23198188053E+02  0.19760025871E+02 -0.26917488796E+02  0.50528858907E+02  0.29999997133E+02 0.  0.
        -12    1    1    2    0    0  0.23198188053E+02 -0.19760025871E+02  0.26917488796E+02  0.40659141093E+02  0.00000000000E+00 0.  1.
         11    1    3    3    0    0 -0.97743874837E+01  0.12774785583E+02 -0.26431830267E+02  0.30941484271E+02  0.51100000000E-03 0. -1.
        -11    1    3    3    0    0  0.31942008172E+00  0.80749382859E-01 -0.38330624378E+01  0.38471960653E+01  0.51100000000E-03 0.  1.
        -12    1    3    3    0    0 -0.13743220651E+02  0.69044909047E+01  0.33474039083E+01  0.15740178570E+02  0.00000000000E+00 0.  1.
</event>
<event>
 7    1  0.2817603E-011  0.5052886E+02  0.7816164E-02  0.1300439E+00
        -11   -1    0    0    0    0  0.00000000000E+00  0.00000000000E+00  0.45593999997E+02  0.45594000000E+02  0.51100000000E-03 0.  1.
         11   -1    0    0    0    0 -0.00000000000E+00 -0.00000000000E+00 -0.45593999997E+02  0.45594000000E+02  0.51100000000E-03 0. -1.
    9900012    2    1    2    0    0 -0.39374533132E+02  0.10042354014E+02 -0.14010564313E+01  0.50528859667E+02  0.29999999445E+02 0.  0.
        -12    1    1    2    0    0  0.39374533132E+02 -0.10042354014E+02  0.14010564313E+01  0.40659140333E+02  0.00000000000E+00 0.  1.
         11    1    3    3    0    0 -0.13749199878E+02 -0.50426644359E+01 -0.61744687645E+00  0.14657769366E+02  0.51100000000E-03 0. -1.
        -11    1    3    3    0    0 -0.15760798512E+02  0.99136149931E+01  0.93303135788E+01  0.20826360308E+02  0.51100000000E-03 0.  1.
         12    1    3    3    0    0 -0.98645347422E+01  0.51714034569E+01 -0.10113923134E+02  0.15044729992E+02  0.00000000000E+00 0. -1.
</event>
<event>
 7    1  0.2817603E-011  0.5052886E+02  0.7816164E-02  0.1300439E+00
        -11   -1    0    0    0    0  0.00000000000E+00  0.00000000000E+00  0.45593999997E+02  0.45594000000E+02  0.51100000000E-03 0.  1.
         11   -1    0    0    0    0 -0.00000000000E+00 -0.00000000000E+00 -0.45593999997E+02  0.45594000000E+02  0.51100000000E-03 0. -1.
    9900012    2    1    2    0    0  0.30557067225E+01  0.13678910724E+02 -0.38166946609E+02  0.50528858892E+02  0.29999997089E+02 0.  0.
        -12    1    1    2    0    0 -0.30557067225E+01 -0.13678910724E+02  0.38166946609E+02  0.40659141108E+02  0.00000000000E+00 0.  1.
         11    1    3    3    0    0  0.28952730329E+01  0.56631822495E+01 -0.15510768849E+02  0.16764193678E+02  0.51100000000E-03 0.  1.
        -11    1    3    3    0    0  0.11024445110E+02  0.85923897925E+01 -0.14715683394E+02  0.20295785038E+02  0.51100000000E-03 0. -1.
        -12    1    3    3    0    0 -0.10864011420E+02 -0.57666131842E+00 -0.79404943661E+01  0.13468880176E+02  0.00000000000E+00 0.  1.
</event>
<event>
 7    1  0.2817603E-011  0.5052886E+02  0.7816164E-02  0.1300439E+00
        -11   -1    0    0    0    0  0.00000000000E+00  0.00000000000E+00  0.45593999997E+02  0.45594000000E+02  0.51100000000E-03 0.  1.
         11   -1    0    0    0    0 -0.00000000000E+00 -0.00000000000E+00 -0.45593999997E+02  0.45594000000E+02  0.51100000000E-03 0. -1.
    9900012    2    1    2    0    0 -0.16427733921E+02 -0.15664805443E+02 -0.33732903166E+02  0.50528864159E+02  0.30000013097E+02 0.  0.
        -12    1    1    2    0    0  0.16427733921E+02  0.15664805443E+02  0.33732903166E+02  0.40659135841E+02  0.00000000000E+00 0.  1.
         11    1    3    3    0    0 -0.10787923720E+01 -0.95902869914E+01 -0.10873089466E+02  0.14538276114E+02  0.51100000000E-03 0. -1.
        -11    1    3    3    0    0  0.52693494103E+01 -0.14971067037E+01 -0.95998368986E+01  0.11052793332E+02  0.51100000000E-03 0.  1.
         12    1    3    3    0    0 -0.20618290960E+02 -0.45774117476E+01 -0.13259976801E+02  0.24937794713E+02  0.00000000000E+00 0. -1.
</event>
<event>
 7    1  0.2817603E-011  0.5052885E+02  0.7816164E-02  0.1300439E+00
        -11   -1    0    0    0    0  0.00000000000E+00  0.00000000000E+00  0.45593999997E+02  0.45594000000E+02  0.51100000000E-03 0. -1.
         11   -1    0    0    0    0 -0.00000000000E+00 -0.00000000000E+00 -0.45593999997E+02  0.45594000000E+02  0.51100000000E-03 0.  1.
    9900012    2    1    2    0    0  0.16792712887E+02 -0.22769937675E+02  0.29201042493E+02  0.50528854036E+02  0.29999982328E+02 0.  0.
        -12    1    1    2    0    0 -0.16792712887E+02  0.22769937675E+02 -0.29201042493E+02  0.40659145964E+02  0.00000000000E+00 0.  1.
         11    1    3    3    0    0  0.15683575300E+02 -0.13272527241E+02  0.31790842350E+02  0.37852241297E+02  0.51100000000E-03 0. -1.
        -11    1    3    3    0    0 -0.13659191298E+00 -0.92890882534E+01  0.53573676703E+00  0.93055269638E+01  0.51100000000E-03 0.  1.
        -12    1    3    3    0    0  0.12457294992E+01 -0.20832218134E+00 -0.31255366246E+01  0.33710857758E+01  0.00000000000E+00 0.  1.
</event>
<event>
 7    1  0.2817603E-011  0.5052885E+02  0.7816164E-02  0.1300439E+00
        -11   -1    0    0    0    0  0.00000000000E+00  0.00000000000E+00  0.45593999997E+02  0.45594000000E+02  0.51100000000E-03 0.  1.
         11   -1    0    0    0    0 -0.00000000000E+00 -0.00000000000E+00 -0.45593999997E+02  0.45594000000E+02  0.51100000000E-03 0. -1.
    9900012    2    1    2    0    0  0.76397496007E+01  0.49360929581E+01 -0.39628721209E+02  0.50528851801E+02  0.29999975534E+02 0.  0.
        -12    1    1    2    0    0 -0.76397496007E+01 -0.49360929581E+01  0.39628721209E+02  0.40659148199E+02  0.00000000000E+00 0.  1.
         11    1    3    3    0    0 -0.77525152420E+01 -0.12994055199E+01 -0.16946081004E+02  0.18680460619E+02  0.51100000000E-03 0. -1.
        -11    1    3    3    0    0 -0.13061501014E+01 -0.25633463844E+01 -0.87527606474E+00  0.30071383780E+01  0.51100000000E-03 0.  1.
        -12    1    3    3    0    0  0.16698414944E+02  0.87988448625E+01 -0.21807364140E+02  0.28841252804E+02  0.00000000000E+00 0.  1.
</event>
<event>
 7    1  0.2817603E-011  0.5052886E+02  0.7816164E-02  0.1300439E+00
        -11   -1    0    0    0    0  0.00000000000E+00  0.00000000000E+00  0.45593999997E+02  0.45594000000E+02  0.51100000000E-03 0.  1.
         11   -1    0    0    0    0 -0.00000000000E+00 -0.00000000000E+00 -0.45593999997E+02  0.45594000000E+02  0.51100000000E-03 0. -1.
    9900012    2    1    2    0    0  0.15162598845E+02 -0.97044737937E+01 -0.36456608957E+02  0.50528861396E+02  0.30000004700E+02 0.  0.
        -12    1    1    2    0    0 -0.15162598845E+02  0.97044737937E+01  0.36456608957E+02  0.40659138604E+02  0.00000000000E+00 0.  1.
         11    1    3    3    0    0  0.40183852685E+00  0.10454410677E+01 -0.12559001990E+02  0.12608844216E+02  0.51100000000E-03 0. -1.
        -11    1    3    3    0    0 -0.46854411244E+01  0.27759031351E+01 -0.24747102059E+01  0.59819050151E+01  0.51100000000E-03 0.  1.
         12    1    3    3    0    0  0.19446201442E+02 -0.13525817996E+02 -0.21422896762E+02  0.31938112165E+02  0.00000000000E+00 0. -1.
</event>
<event>
 7    1  0.2817603E-011  0.5052885E+02  0.7816164E-02  0.1300439E+00
        -11   -1    0    0    0    0  0.00000000000E+00  0.00000000000E+00  0.45593999997E+02  0.45594000000E+02  0.51100000000E-03 0.  1.
         11   -1    0    0    0    0 -0.00000000000E+00 -0.00000000000E+00 -0.45593999997E+02  0.45594000000E+02  0.51100000000E-03 0. -1.
    9900012    2    1    2    0    0 -0.56913187904E+01  0.40162485429E+02  0.27838804210E+01  0.50528851760E+02  0.29999975409E+02 0.  0.
        -12    1    1    2    0    0  0.56913187904E+01 -0.40162485429E+02 -0.27838804210E+01  0.40659148240E+02  0.00000000000E+00 0.  1.
         11    1    3    3    0    0 -0.46577600898E+00  0.14437318263E+02 -0.10152730808E+01  0.14480465655E+02  0.51100000000E-03 0. -1.
        -11    1    3    3    0    0  0.68333416936E+01  0.22245821559E+02  0.18231233419E+01  0.23342984268E+02  0.51100000000E-03 0.  1.
         12    1    3    3    0    0 -0.12058884475E+02  0.34793456072E+01  0.19760301599E+01  0.12705401837E+02  0.00000000000E+00 0. -1.
</event>
<event>
 7    1  0.2817603E-011  0.5052886E+02  0.7816164E-02  0.1300439E+00
        -11   -1    0    0    0    0  0.00000000000E+00  0.00000000000E+00  0.45593999997E+02  0.45594000000E+02  0.51100000000E-03 0.  1.
         11   -1    0    0    0    0 -0.00000000000E+00 -0.00000000000E+00 -0.45593999997E+02  0.45594000000E+02  0.51100000000E-03 0. -1.
    9900012    2    1    2    0    0 -0.10713094263E+00 -0.24255670953E+02 -0.32631523012E+02  0.50528863948E+02  0.30000012457E+02 0.  0.
        -12    1    1    2    0    0  0.10713094263E+00  0.24255670953E+02  0.32631523012E+02  0.40659136052E+02  0.00000000000E+00 0.  1.
         11    1    3    3    0    0  0.18835682163E+01  0.12500131887E+01 -0.29213077144E+01  0.36938328631E+01  0.51100000000E-03 0. -1.
        -11    1    3    3    0    0 -0.59963393147E+01  0.50243781995E+00 -0.16144329391E+02  0.17229274526E+02  0.51100000000E-03 0.  1.
        -12    1    3    3    0    0  0.40056401557E+01 -0.26008121961E+02 -0.13565885907E+02  0.29605756559E+02  0.00000000000E+00 0.  1.
</event>
<event>
 7    1  0.2817603E-011  0.5052883E+02  0.7816164E-02  0.1300439E+00
        -11   -1    0    0    0    0  0.00000000000E+00  0.00000000000E+00  0.45593999997E+02  0.45594000000E+02  0.51100000000E-03 0. -1.
         11   -1    0    0    0    0 -0.00000000000E+00 -0.00000000000E+00 -0.45593999997E+02  0.45594000000E+02  0.51100000000E-03 0.  1.
    9900012    2    1    2    0    0 -0.33152549390E+02  0.61879706612E+01  0.22710906646E+02  0.50528833843E+02  0.29999920948E+02 0.  0.
        -12    1    1    2    0    0  0.33152549390E+02 -0.61879706612E+01 -0.22710906646E+02  0.40659166157E+02  0.00000000000E+00 0.  1.
         11    1    3    3    0    0 -0.86542730913E+01 -0.25918614344E+00  0.53227453449E+01  0.10163426512E+02  0.51100000000E-03 0. -1.
        -11    1    3    3    0    0 -0.24167563875E+02  0.13769302169E+02  0.90192646197E+01  0.29240587552E+02  0.51100000000E-03 0.  1.
        -12    1    3    3    0    0 -0.33071242350E+00 -0.73221453644E+01  0.83688966810E+01  0.11124819778E+02  0.00000000000E+00 0.  1.
</event>
<event>
 7    1  0.2817603E-011  0.5052887E+02  0.7816164E-02  0.1300439E+00
        -11   -1    0    0    0    0  0.00000000000E+00  0.00000000000E+00  0.45593999997E+02  0.45594000000E+02  0.51100000000E-03 0.  1.
         11   -1    0    0    0    0 -0.00000000000E+00 -0.00000000000E+00 -0.45593999997E+02  0.45594000000E+02  0.51100000000E-03 0. -1.
    9900012    2    1    2    0    0 -0.79180120637E+01  0.27111722824E+02 -0.29247642207E+02  0.50528868133E+02  0.30000025177E+02 0.  0.
        -12    1    1    2    0    0  0.79180120637E+01 -0.27111722824E+02  0.29247642207E+02  0.40659131867E+02  0.00000000000E+00 0.  1.
         11    1    3    3    0    0 -0.77733761244E+01  0.29376220539E+02 -0.20997009096E+02  0.36935918843E+02  0.51100000000E-03 0. -1.
        -11    1    3    3    0    0 -0.19409220320E+01 -0.11181493963E+01  0.20728066743E+01  0.30518787946E+01  0.51100000000E-03 0.  1.
        -12    1    3    3    0    0  0.17962860928E+01 -0.11463483189E+01 -0.10323439785E+02  0.10541070496E+02  0.00000000000E+00 0.  1.
</event>
<event>
 7    1  0.2817603E-011  0.5052885E+02  0.7816164E-02  0.1300439E+00
        -11   -1    0    0    0    0  0.00000000000E+00  0.00000000000E+00  0.45593999997E+02  0.45594000000E+02  0.51100000000E-03 0.  1.
         11   -1    0    0    0    0 -0.00000000000E+00 -0.00000000000E+00 -0.45593999997E+02  0.45594000000E+02  0.51100000000E-03 0. -1.
    9900012    2    1    2    0    0  0.27840310562E+02  0.19481039801E+02 -0.22328735957E+02  0.50528852771E+02  0.29999978484E+02 0.  0.
        -12    1    1    2    0    0 -0.27840310562E+02 -0.19481039801E+02  0.22328735957E+02  0.40659147229E+02  0.00000000000E+00 0.  1.
         11    1    3    3    0    0  0.10968305244E+02 -0.41630510518E+00 -0.25840044241E+01  0.11276263078E+02  0.51100000000E-03 0.  1.
        -11    1    3    3    0    0  0.80919976056E+01 -0.18954627723E+01 -0.11835401302E+02  0.14462016754E+02  0.51100000000E-03 0. -1.
         12    1    3    3    0    0  0.87800077117E+01  0.21792807679E+02 -0.79093302316E+01  0.24790572939E+02  0.00000000000E+00 0. -1.
</event>
<event>
 7    1  0.2817603E-011  0.5052886E+02  0.7816164E-02  0.1300439E+00
        -11   -1    0    0    0    0  0.00000000000E+00  0.00000000000E+00  0.45593999997E+02  0.45594000000E+02  0.51100000000E-03 0.  1.
         11   -1    0    0    0    0 -0.00000000000E+00 -0.00000000000E+00 -0.45593999997E+02  0.45594000000E+02  0.51100000000E-03 0. -1.
    9900012    2    1    2    0    0  0.15092577528E+02  0.97045611393E+01 -0.36485634094E+02  0.50528857134E+02  0.29999991744E+02 0.  0.
        -12    1    1    2    0    0 -0.15092577528E+02 -0.97045611393E+01  0.36485634094E+02  0.40659142866E+02  0.00000000000E+00 0.  1.
         11    1    3    3    0    0  0.11300455864E+01 -0.59624707275E-01 -0.20372588073E+02  0.20403992335E+02  0.51100000000E-03 0. -1.
        -11    1    3    3    0    0  0.42923836324E+01  0.79439797559E+01 -0.17970199730E+02  0.20111177246E+02  0.51100000000E-03 0.  1.
        -12    1    3    3    0    0  0.96701483089E+01  0.18202060908E+01  0.18571537085E+01  0.10013687554E+02  0.00000000000E+00 0.  1.
</event>
<event>
 7    1  0.2817603E-011  0.5052887E+02  0.7816164E-02  0.1300439E+00
        -11   -1    0    0    0    0  0.00000000000E+00  0.00000000000E+00  0.45593999997E+02  0.45594000000E+02  0.51100000000E-03 0.  1.
         11   -1    0    0    0    0 -0.00000000000E+00 -0.00000000000E+00 -0.45593999997E+02  0.45594000000E+02  0.51100000000E-03 0. -1.
    9900012    2    1    2    0    0 -0.15676572628E+02  0.35240747871E+02 -0.12864659153E+02  0.50528871935E+02  0.30000036733E+02 0.  0.
        -12    1    1    2    0    0  0.15676572628E+02 -0.35240747871E+02  0.12864659153E+02  0.40659128065E+02  0.00000000000E+00 0.  1.
         11    1    3    3    0    0  0.31666294164E+01  0.10334928109E+02 -0.83463322152E+00  0.10841351104E+02  0.51100000000E-03 0. -1.
        -11    1    3    3    0    0  0.30599573817E+01  0.54235901096E+00  0.23626412806E+01  0.39037887438E+01  0.51100000000E-03 0.  1.
         12    1    3    3    0    0 -0.21903159426E+02  0.24363460752E+02 -0.14392667212E+02  0.35783732087E+02  0.00000000000E+00 0. -1.
</event>
<event>
 7    1  0.2817603E-011  0.5052886E+02  0.7816164E-02  0.1300439E+00
        -11   -1    0    0    0    0  0.00000000000E+00  0.00000000000E+00  0.45593999997E+02  0.45594000000E+02  0.51100000000E-03 0.  1.
         11   -1    0    0    0    0 -0.00000000000E+00 -0.00000000000E+00 -0.45593999997E+02  0.45594000000E+02  0.51100000000E-03 0. -1.
    9900012    2    1    2    0    0 -0.32323559198E+02  0.13458545981E+02 -0.20669318148E+02  0.50528860168E+02  0.30000000967E+02 0.  0.
        -12    1    1    2    0    0  0.32323559198E+02 -0.13458545981E+02  0.20669318148E+02  0.40659139832E+02  0.00000000000E+00 0.  1.
         11    1    3    3    0    0 -0.44290956818E+01  0.12427870283E+02 -0.59397102158E+01  0.14468897886E+02  0.51100000000E-03 0. -1.
        -11    1    3    3    0    0  0.73822628979E+00  0.23779623191E+01  0.17056625503E+01  0.30181066652E+01  0.51100000000E-03 0.  1.
         12    1    3    3    0    0 -0.28632689806E+02 -0.13472866205E+01 -0.16435270483E+02  0.33041855617E+02  0.00000000000E+00 0. -1.
</event>
<event>
 7    1  0.2817603E-011  0.5052886E+02  0.7816164E-02  0.1300439E+00
        -11   -1    0    0    0    0  0.00000000000E+00  0.00000000000E+00  0.45593999997E+02  0.45594000000E+02  0.51100000000E-03 0. -1.
         11   -1    0    0    0    0 -0.00000000000E+00 -0.00000000000E+00 -0.45593999997E+02  0.45594000000E+02  0.51100000000E-03 0.  1.
    9900012    2    1    2    0    0  0.23975287398E+02 -0.26001812445E+02 -0.20056345585E+02  0.50528860136E+02  0.30000000869E+02 0.  0.
        -12    1    1    2    0    0 -0.23975287398E+02  0.26001812445E+02  0.20056345585E+02  0.40659139864E+02  0.00000000000E+00 0.  1.
         11    1    3    3    0    0  0.57270719074E+01 -0.10010990822E+02 -0.11076589860E+01  0.11586466181E+02  0.51100000000E-03 0. -1.
        -11    1    3    3    0    0  0.58120976651E+01 -0.90234595332E+00  0.52135209065E+01  0.78597396898E+01  0.51100000000E-03 0.  1.
        -12    1    3    3    0    0  0.12436117826E+02 -0.15088475669E+02 -0.24162207505E+02  0.31082654265E+02  0.00000000000E+00 0.  1.
</event>
<event>
 7    1  0.2817603E-011  0.5052887E+02  0.7816164E-02  0.1300439E+00
        -11   -1    0    0    0    0  0.00000000000E+00  0.00000000000E+00  0.45593999997E+02  0.45594000000E+02  0.51100000000E-03 0.  1.
         11   -1    0    0    0    0 -0.00000000000E+00 -0.00000000000E+00 -0.45593999997E+02  0.45594000000E+02  0.51100000000E-03 0. -1.
    9900012    2    1    2    0    0 -0.27684711279E+01 -0.31855692460E+02 -0.25114053097E+02  0.50528865264E+02  0.30000016457E+02 0.  0.
        -12    1    1    2    0    0  0.27684711279E+01  0.31855692460E+02  0.25114053097E+02  0.40659134736E+02  0.00000000000E+00 0.  1.
         11    1    3    3    0    0  0.69173849871E+01 -0.72148309162E+01 -0.14484722405E+02  0.17598613117E+02  0.51100000000E-03 0. -1.
        -11    1    3    3    0    0  0.33238656232E+00 -0.40022245989E+00 -0.63295581954E+01  0.63509027748E+01  0.51100000000E-03 0.  1.
        -12    1    3    3    0    0 -0.10018242677E+02 -0.24240639084E+02 -0.42997724964E+01  0.26579349373E+02  0.00000000000E+00 0.  1.
</event>
<event>
 7    1  0.2817603E-011  0.5052886E+02  0.7816164E-02  0.1300439E+00
        -11   -1    0    0    0    0  0.00000000000E+00  0.00000000000E+00  0.45593999997E+02  0.45594000000E+02  0.51100000000E-03 0. -1.
         11   -1    0    0    0    0 -0.00000000000E+00 -0.00000000000E+00 -0.45593999997E+02  0.45594000000E+02  0.51100000000E-03 0.  1.
    9900012    2    1    2    0    0 -0.13259915530E+02 -0.15216004188E+02  0.35296081918E+02  0.50528861518E+02  0.30000005071E+02 0.  0.
        -12    1    1    2    0    0  0.13259915530E+02  0.15216004188E+02 -0.35296081918E+02  0.40659138482E+02  0.00000000000E+00 0.  1.
         11    1    3    3    0    0 -0.73598922159E+01  0.18336447501E+01  0.29339361392E+01  0.81325425317E+01  0.51100000000E-03 0.  1.
        -11    1    3    3    0    0 -0.92918168605E+01 -0.20488487467E+02  0.27680493628E+02  0.35669674893E+02  0.51100000000E-03 0. -1.
         12    1    3    3    0    0  0.33917935462E+01  0.34388385294E+01  0.46816521512E+01  0.67266440932E+01  0.00000000000E+00 0. -1.
</event>
<event>
 7    1  0.2817603E-011  0.5052886E+02  0.7816164E-02  0.1300439E+00
        -11   -1    0    0    0    0  0.00000000000E+00  0.00000000000E+00  0.45593999997E+02  0.45594000000E+02  0.51100000000E-03 0.  1.
         11   -1    0    0    0    0 -0.00000000000E+00 -0.00000000000E+00 -0.45593999997E+02  0.45594000000E+02  0.51100000000E-03 0. -1.
    9900012    2    1    2    0    0 -0.17824923358E+02 -0.35994365286E+02 -0.63121865534E+01  0.50528856819E+02  0.29999990788E+02 0.  0.
        -12    1    1    2    0    0  0.17824923358E+02  0.35994365286E+02  0.63121865534E+01  0.40659143181E+02  0.00000000000E+00 0.  1.
         11    1    3    3    0    0 -0.57661992329E+01 -0.38667482632E+00  0.15530021954E+01  0.59841780635E+01  0.51100000000E-03 0. -1.
        -11    1    3    3    0    0 -0.93770747470E+01 -0.15848654275E+01  0.51289543817E-01  0.95102029480E+01  0.51100000000E-03 0.  1.
         12    1    3    3    0    0 -0.26816493784E+01 -0.34022825032E+02 -0.79164782926E+01  0.35034475808E+02  0.00000000000E+00 0. -1.
</event>
<event>
 7    1  0.2817603E-011  0.5052883E+02  0.7816164E-02  0.1300439E+00
        -11   -1    0    0    0    0  0.00000000000E+00  0.00000000000E+00  0.45593999997E+02  0.45594000000E+02  0.51100000000E-03 0.  1.
         11   -1    0    0    0    0 -0.00000000000E+00 -0.00000000000E+00 -0.45593999997E+02  0.45594000000E+02  0.51100000000E-03 0. -1.
    9900012    2    1    2    0    0 -0.34536113077E+02  0.58674680935E+01 -0.20639705417E+02  0.50528834637E+02  0.29999923363E+02 0.  0.
        -12    1    1    2    0    0  0.34536113077E+02 -0.58674680935E+01  0.20639705417E+02  0.40659165363E+02  0.00000000000E+00 0.  1.
         11    1    3    3    0    0 -0.13391395574E+02  0.72003001623E+01 -0.49712377911E+01  0.15996468462E+02  0.51100000000E-03 0. -1.
        -11    1    3    3    0    0 -0.67402234380E+01 -0.91058280425E+01 -0.14102909284E+02  0.18089742034E+02  0.51100000000E-03 0.  1.
         12    1    3    3    0    0 -0.14404494066E+02  0.77729959737E+01 -0.15655583415E+01  0.16442624140E+02  0.00000000000E+00 0. -1.
</event>
<event>
 7    1  0.2817603E-011  0.5052886E+02  0.7816164E-02  0.1300439E+00
        -11   -1    0    0    0    0  0.00000000000E+00  0.00000000000E+00  0.45593999997E+02  0.45594000000E+02  0.51100000000E-03 0.  1.
         11   -1    0    0    0    0 -0.00000000000E+00 -0.00000000000E+00 -0.45593999997E+02  0.45594000000E+02  0.51100000000E-03 0. -1.
    9900012    2    1    2    0    0  0.27544168630E+02  0.31084645932E+01 -0.29745958860E+02  0.50528857779E+02  0.29999993704E+02 0.  0.
        -12    1    1    2    0    0 -0.27544168630E+02 -0.31084645932E+01  0.29745958860E+02  0.40659142221E+02  0.00000000000E+00 0.  1.
         11    1    3    3    0    0  0.95158406062E+01  0.56092966803E+01 -0.53727215828E+01  0.12283385900E+02  0.51100000000E-03 0. -1.
        -11    1    3    3    0    0  0.31323134355E+01  0.55530823869E+01 -0.19659927529E+02  0.20667870286E+02  0.51100000000E-03 0.  1.
        -12    1    3    3    0    0  0.14896014588E+02 -0.80539144741E+01 -0.47133097488E+01  0.17577601593E+02  0.00000000000E+00 0.  1.
</event>
<event>
 7    1  0.2817603E-011  0.5052886E+02  0.7816164E-02  0.1300439E+00
        -11   -1    0    0    0    0  0.00000000000E+00  0.00000000000E+00  0.45593999997E+02  0.45594000000E+02  0.51100000000E-03 0.  1.
         11   -1    0    0    0    0 -0.00000000000E+00 -0.00000000000E+00 -0.45593999997E+02  0.45594000000E+02  0.51100000000E-03 0. -1.
    9900012    2    1    2    0    0 -0.36052660966E+02 -0.28409605711E+01 -0.18582257923E+02  0.50528859217E+02  0.29999998075E+02 0.  0.
        -12    1    1    2    0    0  0.36052660966E+02  0.28409605711E+01  0.18582257923E+02  0.40659140783E+02  0.00000000000E+00 0.  1.
         11    1    3    3    0    0 -0.86369853613E+01 -0.52276704305E+01 -0.60694068353E+01  0.11779802794E+02  0.51100000000E-03 0. -1.
        -11    1    3    3    0    0 -0.30569925074E+01 -0.90594249210E+01 -0.50828484286E+01  0.10828376217E+02  0.51100000000E-03 0.  1.
         12    1    3    3    0    0 -0.24358683098E+02  0.11446134780E+02 -0.74300026592E+01  0.27920680206E+02  0.00000000000E+00 0. -1.
</event>
<event>
 7    1  0.2817603E-011  0.5052874E+02  0.7816164E-02  0.1300439E+00
        -11   -1    0    0    0    0  0.00000000000E+00  0.00000000000E+00  0.45593999997E+02  0.45594000000E+02  0.51100000000E-03 0.  1.
         11   -1    0    0    0    0 -0.00000000000E+00 -0.00000000000E+00 -0.45593999997E+02  0.45594000000E+02  0.51100000000E-03 0. -1.
    9900012    2    1    2    0    0  0.14505020793E+02  0.34603818261E+02 -0.15663826088E+02  0.50528741348E+02  0.29999639800E+02 0.  0.
        -12    1    1    2    0    0 -0.14505020793E+02 -0.34603818261E+02  0.15663826088E+02  0.40659258652E+02  0.00000000000E+00 0.  1.
         11    1    3    3    0    0  0.98559056535E+00  0.10949710408E+02 -0.17584213211E+02  0.20738179797E+02  0.51100000000E-03 0.  1.
        -11    1    3    3    0    0  0.10982513674E+02  0.11144066175E+02 -0.33156146714E+01  0.15993721219E+02  0.51100000000E-03 0. -1.
        -12    1    3    3    0    0  0.25369165535E+01  0.12510041678E+02  0.52360017945E+01  0.13796840333E+02  0.00000000000E+00 0.  1.
</event>
<event>
 7    1  0.2817603E-011  0.5052886E+02  0.7816164E-02  0.1300439E+00
        -11   -1    0    0    0    0  0.00000000000E+00  0.00000000000E+00  0.45593999997E+02  0.45594000000E+02  0.51100000000E-03 0. -1.
         11   -1    0    0    0    0 -0.00000000000E+00 -0.00000000000E+00 -0.45593999997E+02  0.45594000000E+02  0.51100000000E-03 0.  1.
    9900012    2    1    2    0    0  0.33456776861E+02  0.38180796614E+01  0.22786659136E+02  0.50528862222E+02  0.30000007210E+02 0.  0.
        -12    1    1    2    0    0 -0.33456776861E+02 -0.38180796614E+01 -0.22786659136E+02  0.40659137778E+02  0.00000000000E+00 0.  1.
         11    1    3    3    0    0  0.22913331906E+02  0.69332896670E+01  0.49773426932E+01  0.24451282690E+02  0.51100000000E-03 0. -1.
        -11    1    3    3    0    0  0.56494946037E+01 -0.14926186131E+01 -0.15483751607E+01  0.60450116212E+01  0.51100000000E-03 0.  1.
         12    1    3    3    0    0  0.48939503514E+01 -0.16225913925E+01  0.19357691604E+02  0.20032567911E+02  0.00000000000E+00 0. -1.
</event>
<event>
 7    1  0.2817603E-011  0.5052886E+02  0.7816164E-02  0.1300439E+00
        -11   -1    0    0    0    0  0.00000000000E+00  0.00000000000E+00  0.45593999997E+02  0.45594000000E+02  0.51100000000E-03 0.  1.
         11   -1    0    0    0    0 -0.00000000000E+00 -0.00000000000E+00 -0.45593999997E+02  0.45594000000E+02  0.51100000000E-03 0. -1.
    9900012    2    1    2    0    0  0.77238962487E+01 -0.30606420710E+02 -0.25627220150E+02  0.50528856199E+02  0.29999988904E+02 0.  0.
        -12    1    1    2    0    0 -0.77238962487E+01  0.30606420710E+02  0.25627220150E+02  0.40659143801E+02  0.00000000000E+00 0.  1.
         11    1    3    3    0    0  0.36198628660E+01 -0.11199532068E+01  0.40036898387E+00  0.38102490651E+01  0.51100000000E-03 0. -1.
        -11    1    3    3    0    0  0.45536277351E+01  0.24437833569E+01  0.51629370986E+00  0.51936655747E+01  0.51100000000E-03 0.  1.
         12    1    3    3    0    0 -0.44959435236E+00 -0.31930250860E+02 -0.26543882844E+02  0.41524941560E+02  0.00000000000E+00 0. -1.
</event>
<event>
 7    1  0.2817603E-011  0.5052889E+02  0.7816164E-02  0.1300439E+00
        -11   -1    0    0    0    0  0.00000000000E+00  0.00000000000E+00  0.45593999997E+02  0.45594000000E+02  0.51100000000E-03 0.  1.
         11   -1    0    0    0    0 -0.00000000000E+00 -0.00000000000E+00 -0.45593999997E+02  0.45594000000E+02  0.51100000000E-03 0. -1.
    9900012    2    1    2    0    0  0.64745307717E+01  0.36449429011E+02 -0.16813171160E+02  0.50528890955E+02  0.30000094545E+02 0.  0.
        -12    1    1    2    0    0 -0.64745307717E+01 -0.36449429011E+02  0.16813171160E+02  0.40659109045E+02  0.00000000000E+00 0.  1.
         11    1    3    3    0    0 -0.35025111905E+00  0.35273711871E+01  0.51021243077E+01  0.62126239264E+01  0.51100000000E-03 0. -1.
        -11    1    3    3    0    0  0.12210312391E+01  0.21334597751E+01  0.33086770470E+01  0.41218820897E+01  0.51100000000E-03 0.  1.
         12    1    3    3    0    0  0.56037506516E+01  0.30788598048E+02 -0.25223972515E+02  0.40194384938E+02  0.00000000000E+00 0. -1.
</event>
<event>
 7    1  0.2817603E-011  0.5052886E+02  0.7816164E-02  0.1300439E+00
        -11   -1    0    0    0    0  0.00000000000E+00  0.00000000000E+00  0.45593999997E+02  0.45594000000E+02  0.51100000000E-03 0. -1.
         11   -1    0    0    0    0 -0.00000000000E+00 -0.00000000000E+00 -0.45593999997E+02  0.45594000000E+02  0.51100000000E-03 0.  1.
    9900012    2    1    2    0    0  0.37110411917E+02 -0.91884491770E+01  0.13840363996E+02  0.50528856545E+02  0.29999989954E+02 0.  0.
        -12    1    1    2    0    0 -0.37110411917E+02  0.91884491770E+01 -0.13840363996E+02  0.40659143455E+02  0.00000000000E+00 0.  1.
         11    1    3    3    0    0  0.70382462066E+01  0.12892612738E+01 -0.48092084225E+01  0.86213450348E+01  0.51100000000E-03 0. -1.
        -11    1    3    3    0    0  0.18644294460E+02 -0.52593595182E+00  0.10475283146E+01  0.18681103832E+02  0.51100000000E-03 0.  1.
         12    1    3    3    0    0  0.11427871251E+02 -0.99517744990E+01  0.17602044104E+02  0.23226407679E+02  0.00000000000E+00 0. -1.
</event>
<event>
 7    1  0.2817603E-011  0.5052886E+02  0.7816164E-02  0.1300439E+00
        -11   -1    0    0    0    0  0.00000000000E+00  0.00000000000E+00  0.45593999997E+02  0.45594000000E+02  0.51100000000E-03 0.  1.
         11   -1    0    0    0    0 -0.00000000000E+00 -0.00000000000E+00 -0.45593999997E+02  0.45594000000E+02  0.51100000000E-03 0. -1.
    9900012    2    1    2    0    0 -0.34686464934E+02  0.47426230318E+01 -0.20676621190E+02  0.50528856051E+02  0.29999988452E+02 0.  0.
        -12    1    1    2    0    0  0.34686464934E+02 -0.47426230318E+01  0.20676621190E+02  0.40659143949E+02  0.00000000000E+00 0.  1.
         11    1    3    3    0    0 -0.65850332088E+01 -0.50115004526E+01  0.13404344201E+01  0.83829925351E+01  0.51100000000E-03 0. -1.
        -11    1    3    3    0    0 -0.20686366870E+01 -0.47595449804E+01 -0.71599006900E+01  0.88428900431E+01  0.51100000000E-03 0.  1.
         12    1    3    3    0    0 -0.26032795038E+02  0.14513668465E+02 -0.14857154920E+02  0.33302973473E+02  0.00000000000E+00 0. -1.
</event>
<event>
 7    1  0.2817603E-011  0.5052886E+02  0.7816164E-02  0.1300439E+00
        -11   -1    0    0    0    0  0.00000000000E+00  0.00000000000E+00  0.45593999997E+02  0.45594000000E+02  0.51100000000E-03 0.  1.
         11   -1    0    0    0    0 -0.00000000000E+00 -0.00000000000E+00 -0.45593999997E+02  0.45594000000E+02  0.51100000000E-03 0. -1.
    9900012    2    1    2    0    0 -0.23977992706E+02  0.32691600869E+02 -0.30791068263E+01  0.50528858341E+02  0.29999995414E+02 0.  0.
        -12    1    1    2    0    0  0.23977992706E+02 -0.32691600869E+02  0.30791068263E+01  0.40659141659E+02  0.00000000000E+00 0.  1.
         11    1    3    3    0    0  0.17575515142E+00 -0.30981482254E+01 -0.17798806306E+01  0.35773436542E+01  0.51100000000E-03 0. -1.
        -11    1    3    3    0    0 -0.20995012929E+02  0.22334745110E+02 -0.78710166316E+01  0.31647816830E+02  0.51100000000E-03 0.  1.
         12    1    3    3    0    0 -0.31587349280E+01  0.13455003984E+02  0.65717904359E+01  0.15303697857E+02  0.00000000000E+00 0. -1.
</event>
<event>
 7    1  0.2817603E-011  0.5052886E+02  0.7816164E-02  0.1300439E+00
        -11   -1    0    0    0    0  0.00000000000E+00  0.00000000000E+00  0.45593999997E+02  0.45594000000E+02  0.51100000000E-03 0.  1.
         11   -1    0    0    0    0 -0.00000000000E+00 -0.00000000000E+00 -0.45593999997E+02  0.45594000000E+02  0.51100000000E-03 0. -1.
    9900012    2    1    2    0    0  0.10937662905E+02  0.25488292437E+02 -0.29730128006E+02  0.50528855488E+02  0.29999986741E+02 0.  0.
        -12    1    1    2    0    0 -0.10937662905E+02 -0.25488292437E+02  0.29730128006E+02  0.40659144512E+02  0.00000000000E+00 0.  1.
         11    1    3    3    0    0  0.23595589320E+01  0.18344772992E+02 -0.11521645601E+02  0.21790973638E+02  0.51100000000E-03 0. -1.
        -11    1    3    3    0    0  0.34995377684E+01  0.56312091888E+01  0.27071687550E+01  0.71614275427E+01  0.51100000000E-03 0.  1.
        -12    1    3    3    0    0  0.50785662046E+01  0.15123102568E+01 -0.20915651160E+02  0.21576454307E+02  0.00000000000E+00 0.  1.
</event>
<event>
 7    1  0.2817603E-011  0.5052876E+02  0.7816164E-02  0.1300439E+00
        -11   -1    0    0    0    0  0.00000000000E+00  0.00000000000E+00  0.45593999997E+02  0.45594000000E+02  0.51100000000E-03 0.  1.
         11   -1    0    0    0    0 -0.00000000000E+00 -0.00000000000E+00 -0.45593999997E+02  0.45594000000E+02  0.51100000000E-03 0. -1.
    9900012    2    1    2    0    0  0.39837719000E+02  0.44245709590E+01  0.68229990734E+01  0.50528757513E+02  0.29999688934E+02 0.  0.
        -12    1    1    2    0    0 -0.39837719000E+02 -0.44245709590E+01 -0.68229990734E+01  0.40659242487E+02  0.00000000000E+00 0.  1.
         11    1    3    3    0    0  0.10793599250E+02  0.55806951110E+01 -0.32755348087E+01  0.12584715779E+02  0.51100000000E-03 0. -1.
        -11    1    3    3    0    0  0.28844828281E+02  0.19469857237E+01  0.16682329071E+01  0.28958554406E+02  0.51100000000E-03 0.  1.
        -12    1    3    3    0    0  0.19929146847E+00 -0.31031098757E+01  0.84303009749E+01  0.89854873278E+01  0.00000000000E+00 0.  1.
</event>
<event>
 7    1  0.2817603E-011  0.5052874E+02  0.7816164E-02  0.1300439E+00
        -11   -1    0    0    0    0  0.00000000000E+00  0.00000000000E+00  0.45593999997E+02  0.45594000000E+02  0.51100000000E-03 0.  1.
         11   -1    0    0    0    0 -0.00000000000E+00 -0.00000000000E+00 -0.45593999997E+02  0.45594000000E+02  0.51100000000E-03 0. -1.
    9900012    2    1    2    0    0  0.20633182117E+02  0.28828758815E+02 -0.19908541374E+02  0.50528738340E+02  0.29999630657E+02 0.  0.
        -12    1    1    2    0    0 -0.20633182117E+02 -0.28828758815E+02  0.19908541374E+02  0.40659261660E+02  0.00000000000E+00 0.  1.
         11    1    3    3    0    0  0.65895807999E+01 -0.88353512560E+00 -0.11043841387E+02  0.12890680443E+02  0.51100000000E-03 0. -1.
        -11    1    3    3    0    0  0.26069430055E+01  0.13280542707E+02 -0.11086556408E+02  0.17495162180E+02  0.51100000000E-03 0.  1.
        -12    1    3    3    0    0  0.11436658312E+02  0.16431751233E+02  0.22218564221E+01  0.20142895718E+02  0.00000000000E+00 0.  1.
</event>
<event>
 7    1  0.2817603E-011  0.5052886E+02  0.7816164E-02  0.1300439E+00
        -11   -1    0    0    0    0  0.00000000000E+00  0.00000000000E+00  0.45593999997E+02  0.45594000000E+02  0.51100000000E-03 0. -1.
         11   -1    0    0    0    0 -0.00000000000E+00 -0.00000000000E+00 -0.45593999997E+02  0.45594000000E+02  0.51100000000E-03 0.  1.
    9900012    2    1    2    0    0  0.14421586181E+02  0.23665241782E+02  0.29751297386E+02  0.50528861879E+02  0.30000006168E+02 0.  0.
        -12    1    1    2    0    0 -0.14421586181E+02 -0.23665241782E+02 -0.29751297386E+02  0.40659138121E+02  0.00000000000E+00 0.  1.
         11    1    3    3    0    0  0.11632474611E+02  0.12365329670E+02  0.74583662989E+01  0.18543006000E+02  0.51100000000E-03 0. -1.
        -11    1    3    3    0    0  0.11318500182E+02  0.56400576231E+01  0.13415159930E+02  0.18435976040E+02  0.51100000000E-03 0.  1.
        -12    1    3    3    0    0 -0.85293886117E+01  0.56598544895E+01  0.88777711572E+01  0.13549879839E+02  0.00000000000E+00 0.  1.
</event>
<event>
 7    1  0.2817603E-011  0.5052884E+02  0.7816164E-02  0.1300439E+00
        -11   -1    0    0    0    0  0.00000000000E+00  0.00000000000E+00  0.45593999997E+02  0.45594000000E+02  0.51100000000E-03 0.  1.
         11   -1    0    0    0    0 -0.00000000000E+00 -0.00000000000E+00 -0.45593999997E+02  0.45594000000E+02  0.51100000000E-03 0. -1.
    9900012    2    1    2    0    0 -0.78598369040E+01  0.30895385512E+02 -0.25236195619E+02  0.50528838039E+02  0.29999933702E+02 0.  0.
        -12    1    1    2    0    0  0.78598369040E+01 -0.30895385512E+02  0.25236195619E+02  0.40659161961E+02  0.00000000000E+00 0.  1.
         11    1    3    3    0    0 -0.42825786891E+01  0.74615904724E+01  0.58209669127E+01  0.10387466903E+02  0.51100000000E-03 0. -1.
        -11    1    3    3    0    0 -0.33702715010E+00 -0.85680078154E+00 -0.12862825699E+01  0.15818400646E+01  0.51100000000E-03 0.  1.
        -12    1    3    3    0    0 -0.32402310648E+01  0.24290595821E+02 -0.29770879962E+02  0.38559531071E+02  0.00000000000E+00 0.  1.
</event>
<event>
 7    1  0.2817603E-011  0.5052886E+02  0.7816164E-02  0.1300439E+00
        -11   -1    0    0    0    0  0.00000000000E+00  0.00000000000E+00  0.45593999997E+02  0.45594000000E+02  0.51100000000E-03 0. -1.
         11   -1    0    0    0    0 -0.00000000000E+00 -0.00000000000E+00 -0.45593999997E+02  0.45594000000E+02  0.51100000000E-03 0.  1.
    9900012    2    1    2    0    0  0.39677549833E+02  0.88694173205E+01  0.43678056259E+00  0.50528864476E+02  0.30000014060E+02 0.  0.
        -12    1    1    2    0    0 -0.39677549833E+02 -0.88694173205E+01 -0.43678056259E+00  0.40659135524E+02  0.00000000000E+00 0.  1.
         11    1    3    3    0    0  0.10553756985E+02  0.70110251829E+01 -0.72434256537E+01  0.14594638607E+02  0.51100000000E-03 0. -1.
        -11    1    3    3    0    0  0.30135973385E+01 -0.88741433272E+00 -0.56689189513E+01  0.64811970695E+01  0.51100000000E-03 0.  1.
         12    1    3    3    0    0  0.26110195510E+02  0.27458064703E+01  0.13349125168E+02  0.29453028799E+02  0.00000000000E+00 0. -1.
</event>
<event>
 7    1  0.2817603E-011  0.5052886E+02  0.7816164E-02  0.1300439E+00
        -11   -1    0    0    0    0  0.00000000000E+00  0.00000000000E+00  0.45593999997E+02  0.45594000000E+02  0.51100000000E-03 0.  1.
         11   -1    0    0    0    0 -0.00000000000E+00 -0.00000000000E+00 -0.45593999997E+02  0.45594000000E+02  0.51100000000E-03 0. -1.
    9900012    2    1    2    0    0 -0.14865362680E+02 -0.85406007299E+01 -0.36867938803E+02  0.50528858593E+02  0.29999996178E+02 0.  0.
        -12    1    1    2    0    0  0.14865362680E+02  0.85406007299E+01  0.36867938803E+02  0.40659141407E+02  0.00000000000E+00 0.  1.
         11    1    3    3    0    0 -0.12814061840E+02 -0.11063661021E+02 -0.24312697832E+02  0.29626205497E+02  0.51100000000E-03 0. -1.
        -11    1    3    3    0    0  0.20066230339E+01  0.27184527851E+01 -0.15513439330E+02  0.15877132035E+02  0.51100000000E-03 0.  1.
        -12    1    3    3    0    0 -0.40579238741E+01 -0.19539249354E+00  0.29581983595E+01  0.50255210604E+01  0.00000000000E+00 0.  1.
</event>
<event>
 7    1  0.2817603E-011  0.5052886E+02  0.7816164E-02  0.1300439E+00
        -11   -1    0    0    0    0  0.00000000000E+00  0.00000000000E+00  0.45593999997E+02  0.45594000000E+02  0.51100000000E-03 0. -1.
         11   -1    0    0    0    0 -0.00000000000E+00 -0.00000000000E+00 -0.45593999997E+02  0.45594000000E+02  0.51100000000E-03 0.  1.
    9900012    2    1    2    0    0  0.39494708844E+02 -0.82619657513E+01  0.50073470576E+01  0.50528860445E+02  0.30000001810E+02 0.  0.
        -12    1    1    2    0    0 -0.39494708844E+02  0.82619657513E+01 -0.50073470576E+01  0.40659139555E+02  0.00000000000E+00 0.  1.
         11    1    3    3    0    0  0.24671793671E+02  0.21465724934E+01 -0.14099847078E+01  0.24805104990E+02  0.51100000000E-03 0. -1.
        -11    1    3    3    0    0  0.50103326065E+01  0.46299051463E+01  0.60009044159E+00  0.68483255829E+01  0.51100000000E-03 0.  1.
         12    1    3    3    0    0  0.98125825664E+01 -0.15038443391E+02  0.58172413238E+01  0.18875429872E+02  0.00000000000E+00 0. -1.
</event>
<event>
 7    1  0.2817603E-011  0.5052886E+02  0.7816164E-02  0.1300439E+00
        -11   -1    0    0    0    0  0.00000000000E+00  0.00000000000E+00  0.45593999997E+02  0.45594000000E+02  0.51100000000E-03 0. -1.
         11   -1    0    0    0    0 -0.00000000000E+00 -0.00000000000E+00 -0.45593999997E+02  0.45594000000E+02  0.51100000000E-03 0.  1.
    9900012    2    1    2    0    0 -0.33823908354E+01 -0.23124100468E+02  0.33271630037E+02  0.50528856434E+02  0.29999989616E+02 0.  0.
        -12    1    1    2    0    0  0.33823908354E+01  0.23124100468E+02 -0.33271630037E+02  0.40659143566E+02  0.00000000000E+00 0.  1.
         11    1    3    3    0    0 -0.42219240196E+01 -0.12229616008E+02  0.11688857204E+02  0.17436098564E+02  0.51100000000E-03 0. -1.
        -11    1    3    3    0    0 -0.89966795307E+01 -0.77617803466E+01  0.19069071977E+02  0.22468088104E+02  0.51100000000E-03 0.  1.
        -12    1    3    3    0    0  0.98362127149E+01 -0.31327041136E+01  0.25137008558E+01  0.10624669766E+02  0.00000000000E+00 0.  1.
</event>
<event>
 7    1  0.2817603E-011  0.5052886E+02  0.7816164E-02  0.1300439E+00
        -11   -1    0    0    0    0  0.00000000000E+00  0.00000000000E+00  0.45593999997E+02  0.45594000000E+02  0.51100000000E-03 0.  1.
         11   -1    0    0    0    0 -0.00000000000E+00 -0.00000000000E+00 -0.45593999997E+02  0.45594000000E+02  0.51100000000E-03 0. -1.
    9900012    2    1    2    0    0 -0.23398768817E+02 -0.33231512532E+02  0.11530284139E+01  0.50528864719E+02  0.30000014799E+02 0.  0.
        -12    1    1    2    0    0  0.23398768817E+02  0.33231512532E+02 -0.11530284139E+01  0.40659135281E+02  0.00000000000E+00 0.  1.
         11    1    3    3    0    0 -0.23277981733E+02 -0.25831468123E+02 -0.38258568080E+01  0.34982372125E+02  0.51100000000E-03 0. -1.
        -11    1    3    3    0    0 -0.22251398622E+01  0.32121237750E+01  0.12297273153E+01  0.40964882623E+01  0.51100000000E-03 0.  1.
        -12    1    3    3    0    0  0.21043527780E+01 -0.10612168184E+02  0.37491579066E+01  0.11450004331E+02  0.00000000000E+00 0.  1.
</event>
<event>
 7    1  0.2817603E-011  0.5052886E+02  0.7816164E-02  0.1300439E+00
        -11   -1    0    0    0    0  0.00000000000E+00  0.00000000000E+00  0.45593999997E+02  0.45594000000E+02  0.51100000000E-03 0.  1.
         11   -1    0    0    0    0 -0.00000000000E+00 -0.00000000000E+00 -0.45593999997E+02  0.45594000000E+02  0.51100000000E-03 0. -1.
    9900012    2    1    2    0    0  0.37026443428E+02 -0.15127873714E+02 -0.73044940983E+01  0.50528859453E+02  0.29999998792E+02 0.  0.
        -12    1    1    2    0    0 -0.37026443428E+02  0.15127873714E+02  0.73044940983E+01  0.40659140547E+02  0.00000000000E+00 0.  1.
         11    1    3    3    0    0  0.21399901947E+02 -0.66087094863E+01  0.23373672919E+01  0.22518750643E+02  0.51100000000E-03 0. -1.
        -11    1    3    3    0    0  0.92401173554E+01 -0.56512819268E+01  0.48868352744E+01  0.11882672907E+02  0.51100000000E-03 0.  1.
        -12    1    3    3    0    0  0.63864241254E+01 -0.28678823009E+01 -0.14528696665E+02  0.16127435902E+02  0.00000000000E+00 0.  1.
</event>
<event>
 7    1  0.2817603E-011  0.5052883E+02  0.7816164E-02  0.1300439E+00
        -11   -1    0    0    0    0  0.00000000000E+00  0.00000000000E+00  0.45593999997E+02  0.45594000000E+02  0.51100000000E-03 0.  1.
         11   -1    0    0    0    0 -0.00000000000E+00 -0.00000000000E+00 -0.45593999997E+02  0.45594000000E+02  0.51100000000E-03 0. -1.
    9900012    2    1    2    0    0 -0.53853041433E+01  0.35441710877E+02  0.19184666548E+02  0.50528833738E+02  0.29999920629E+02 0.  0.
        -12    1    1    2    0    0  0.53853041433E+01 -0.35441710877E+02 -0.19184666548E+02  0.40659166262E+02  0.00000000000E+00 0.  1.
         11    1    3    3    0    0 -0.11857405773E+01  0.31346665765E+02  0.18487793720E+02  0.36411783150E+02  0.51100000000E-03 0. -1.
        -11    1    3    3    0    0 -0.17787410566E+01  0.43659207978E+01  0.63806125658E+01  0.79333095953E+01  0.51100000000E-03 0.  1.
        -12    1    3    3    0    0 -0.24208225095E+01 -0.27087568591E+00 -0.56837397374E+01  0.61837409925E+01  0.00000000000E+00 0.  1.
</event>
<event>
 7    1  0.2817603E-011  0.5052886E+02  0.7816164E-02  0.1300439E+00
        -11   -1    0    0    0    0  0.00000000000E+00  0.00000000000E+00  0.45593999997E+02  0.45594000000E+02  0.51100000000E-03 0.  1.
         11   -1    0    0    0    0 -0.00000000000E+00 -0.00000000000E+00 -0.45593999997E+02  0.45594000000E+02  0.51100000000E-03 0. -1.
    9900012    2    1    2    0    0 -0.12182457946E+02  0.86830932593E+01 -0.37806842592E+02  0.50528859122E+02  0.29999997789E+02 0.  0.
        -12    1    1    2    0    0  0.12182457946E+02 -0.86830932593E+01  0.37806842592E+02  0.40659140878E+02  0.00000000000E+00 0.  1.
         11    1    3    3    0    0  0.23639908572E+01 -0.40748680433E+01  0.48665740294E+00  0.47360149949E+01  0.51100000000E-03 0. -1.
        -11    1    3    3    0    0 -0.33508769440E+01 -0.19699937726E+01 -0.77846262728E+00  0.39642472276E+01  0.51100000000E-03 0.  1.
         12    1    3    3    0    0 -0.11195571859E+02  0.14727955075E+02 -0.37515037367E+02  0.41828596900E+02  0.00000000000E+00 0. -1.
</event>
<event>
 7    1  0.2817603E-011  0.5052885E+02  0.7816164E-02  0.1300439E+00
        -11   -1    0    0    0    0  0.00000000000E+00  0.00000000000E+00  0.45593999997E+02  0.45594000000E+02  0.51100000000E-03 0. -1.
         11   -1    0    0    0    0 -0.00000000000E+00 -0.00000000000E+00 -0.45593999997E+02  0.45594000000E+02  0.51100000000E-03 0.  1.
    9900012    2    1    2    0    0 -0.26716079791E+02  0.29778615260E+02  0.72561446513E+01  0.50528849967E+02  0.29999969960E+02 0.  0.
        -12    1    1    2    0    0  0.26716079791E+02 -0.29778615260E+02 -0.72561446513E+01  0.40659150033E+02  0.00000000000E+00 0.  1.
         11    1    3    3    0    0 -0.12902115846E+02  0.59721069577E+01  0.88537188044E+01  0.16748701196E+02  0.51100000000E-03 0. -1.
        -11    1    3    3    0    0 -0.18507395820E+02  0.21741809455E+02 -0.20925552493E+01  0.28628810072E+02  0.51100000000E-03 0.  1.
         12    1    3    3    0    0  0.46934318758E+01  0.20646988478E+01  0.49498109624E+00  0.51513386989E+01  0.00000000000E+00 0. -1.
</event>
<event>
 7    1  0.2817603E-011  0.5052885E+02  0.7816164E-02  0.1300439E+00
        -11   -1    0    0    0    0  0.00000000000E+00  0.00000000000E+00  0.45593999997E+02  0.45594000000E+02  0.51100000000E-03 0.  1.
         11   -1    0    0    0    0 -0.00000000000E+00 -0.00000000000E+00 -0.45593999997E+02  0.45594000000E+02  0.51100000000E-03 0. -1.
    9900012    2    1    2    0    0  0.24219797860E+02 -0.18977504758E+02 -0.26578597489E+02  0.50528854169E+02  0.29999982733E+02 0.  0.
        -12    1    1    2    0    0 -0.24219797860E+02  0.18977504758E+02  0.26578597489E+02  0.40659145831E+02  0.00000000000E+00 0.  1.
         11    1    3    3    0    0  0.98809561781E+01 -0.67323955046E+01 -0.24765373693E+01  0.12210310472E+02  0.51100000000E-03 0. -1.
        -11    1    3    3    0    0  0.10962535648E+02 -0.11439035883E+02 -0.20279141696E+01  0.15973138887E+02  0.51100000000E-03 0.  1.
        -12    1    3    3    0    0  0.33763060342E+01 -0.80607337072E+00 -0.22074145950E+02  0.22345404810E+02  0.00000000000E+00 0.  1.
</event>
<event>
 7    1  0.2817603E-011  0.5052889E+02  0.7816164E-02  0.1300439E+00
        -11   -1    0    0    0    0  0.00000000000E+00  0.00000000000E+00  0.45593999997E+02  0.45594000000E+02  0.51100000000E-03 0. -1.
         11   -1    0    0    0    0 -0.00000000000E+00 -0.00000000000E+00 -0.45593999997E+02  0.45594000000E+02  0.51100000000E-03 0.  1.
    9900012    2    1    2    0    0  0.12663888883E+02 -0.32333804957E+02  0.21149810362E+02  0.50528886594E+02  0.30000081290E+02 0.  0.
        -12    1    1    2    0    0 -0.12663888883E+02  0.32333804957E+02 -0.21149810362E+02  0.40659113406E+02  0.00000000000E+00 0.  1.
         11    1    3    3    0    0  0.50237549648E+01 -0.56919983520E+01  0.19815492297E+02  0.21220054063E+02  0.51100000000E-03 0. -1.
        -11    1    3    3    0    0  0.20669102149E+01 -0.48225524789E+01  0.40469915162E+01  0.66262561708E+01  0.51100000000E-03 0.  1.
        -12    1    3    3    0    0  0.55732237028E+01 -0.21819254127E+02 -0.27126734515E+01  0.22682576360E+02  0.00000000000E+00 0.  1.
</event>
<event>
 7    1  0.2817603E-011  0.5052885E+02  0.7816164E-02  0.1300439E+00
        -11   -1    0    0    0    0  0.00000000000E+00  0.00000000000E+00  0.45593999997E+02  0.45594000000E+02  0.51100000000E-03 0.  1.
         11   -1    0    0    0    0 -0.00000000000E+00 -0.00000000000E+00 -0.45593999997E+02  0.45594000000E+02  0.51100000000E-03 0. -1.
    9900012    2    1    2    0    0  0.28092321619E+02 -0.11524770989E+02 -0.27040113521E+02  0.50528848269E+02  0.29999964798E+02 0.  0.
        -12    1    1    2    0    0 -0.28092321619E+02  0.11524770989E+02  0.27040113521E+02  0.40659151731E+02  0.00000000000E+00 0.  1.
         11    1    3    3    0    0  0.11025546394E+02 -0.62067535578E+01 -0.12916529554E+02  0.18081017643E+02  0.51100000000E-03 0. -1.
        -11    1    3    3    0    0 -0.72736808131E+00 -0.10553264334E+02 -0.39428399638E+01  0.11289217851E+02  0.51100000000E-03 0.  1.
         12    1    3    3    0    0  0.17794143306E+02  0.52352469028E+01 -0.10180744002E+02  0.21158612775E+02  0.00000000000E+00 0. -1.
</event>
<event>
 7    1  0.2817603E-011  0.5052887E+02  0.7816164E-02  0.1300439E+00
        -11   -1    0    0    0    0  0.00000000000E+00  0.00000000000E+00  0.45593999997E+02  0.45594000000E+02  0.51100000000E-03 0.  1.
         11   -1    0    0    0    0 -0.00000000000E+00 -0.00000000000E+00 -0.45593999997E+02  0.45594000000E+02  0.51100000000E-03 0. -1.
    9900012    2    1    2    0    0  0.16098074803E+02  0.55278826319E+01 -0.36925054516E+02  0.50528866342E+02  0.30000019734E+02 0.  0.
        -12    1    1    2    0    0 -0.16098074803E+02 -0.55278826319E+01  0.36925054516E+02  0.40659133658E+02  0.00000000000E+00 0.  1.
         11    1    3    3    0    0 -0.25179291244E+01  0.37862757639E+01 -0.73890200800E+01  0.86760284255E+01  0.51100000000E-03 0. -1.
        -11    1    3    3    0    0  0.43618334423E+01  0.10193933449E+02 -0.48081188532E+01  0.12085523460E+02  0.51100000000E-03 0.  1.
        -12    1    3    3    0    0  0.14254170485E+02 -0.84523265811E+01 -0.24727915583E+02  0.29767314456E+02  0.00000000000E+00 0.  1.
</event>
<event>
 7    1  0.2817603E-011  0.5052886E+02  0.7816164E-02  0.1300439E+00
        -11   -1    0    0    0    0  0.00000000000E+00  0.00000000000E+00  0.45593999997E+02  0.45594000000E+02  0.51100000000E-03 0.  1.
         11   -1    0    0    0    0 -0.00000000000E+00 -0.00000000000E+00 -0.45593999997E+02  0.45594000000E+02  0.51100000000E-03 0. -1.
    9900012    2    1    2    0    0 -0.26025982811E+02 -0.31188385312E+02  0.17602125109E+01  0.50528861941E+02  0.30000006355E+02 0.  0.
        -12    1    1    2    0    0  0.26025982811E+02  0.31188385312E+02 -0.17602125109E+01  0.40659138059E+02  0.00000000000E+00 0.  1.
         11    1    3    3    0    0 -0.29038751587E+00 -0.91237904583E+01 -0.21275412174E+01  0.93730629534E+01  0.51100000000E-03 0. -1.
        -11    1    3    3    0    0 -0.86103790200E-01 -0.96321121180E+01  0.77872821037E+01  0.12386555637E+02  0.51100000000E-03 0.  1.
        -12    1    3    3    0    0 -0.25649491505E+02 -0.12432482736E+02 -0.38995283753E+01  0.28769243351E+02  0.00000000000E+00 0.  1.
</event>
<event>
 7    1  0.2817603E-011  0.5052887E+02  0.7816164E-02  0.1300439E+00
        -11   -1    0    0    0    0  0.00000000000E+00  0.00000000000E+00  0.45593999997E+02  0.45594000000E+02  0.51100000000E-03 0.  1.
         11   -1    0    0    0    0 -0.00000000000E+00 -0.00000000000E+00 -0.45593999997E+02  0.45594000000E+02  0.51100000000E-03 0. -1.
    9900012    2    1    2    0    0  0.24264094751E+02 -0.32593478327E+02  0.14434024442E+01  0.50528873913E+02  0.30000042746E+02 0.  0.
        -12    1    1    2    0    0 -0.24264094751E+02  0.32593478327E+02 -0.14434024442E+01  0.40659126087E+02  0.00000000000E+00 0.  1.
         11    1    3    3    0    0 -0.16145109644E+01 -0.17368129858E+02 -0.15533806576E+01  0.17512040776E+02  0.51100000000E-03 0.  1.
        -11    1    3    3    0    0  0.96044401770E+01 -0.99740881753E+01 -0.41914108909E+01  0.14467053313E+02  0.51100000000E-03 0. -1.
        -12    1    3    3    0    0  0.16274165539E+02 -0.52512602936E+01  0.71881939927E+01  0.18549779824E+02  0.00000000000E+00 0.  1.
</event>
<event>
 7    1  0.2817603E-011  0.5052883E+02  0.7816164E-02  0.1300439E+00
        -11   -1    0    0    0    0  0.00000000000E+00  0.00000000000E+00  0.45593999997E+02  0.45594000000E+02  0.51100000000E-03 0. -1.
         11   -1    0    0    0    0 -0.00000000000E+00 -0.00000000000E+00 -0.45593999997E+02  0.45594000000E+02  0.51100000000E-03 0.  1.
    9900012    2    1    2    0    0 -0.11484704314E+02  0.13163013079E+02  0.36715189461E+02  0.50528825345E+02  0.29999895118E+02 0.  0.
        -12    1    1    2    0    0  0.11484704314E+02 -0.13163013079E+02 -0.36715189461E+02  0.40659174655E+02  0.00000000000E+00 0.  1.
         11    1    3    3    0    0 -0.45405244498E+01 -0.19312077910E+01 -0.13090542099E+01  0.51048554334E+01  0.51100000000E-03 0. -1.
        -11    1    3    3    0    0 -0.93641138027E+01  0.27593686499E+01  0.71846931306E+01  0.12121079090E+02  0.51100000000E-03 0.  1.
         12    1    3    3    0    0  0.24199339388E+01  0.12334852220E+02  0.30839550540E+02  0.33302890822E+02  0.00000000000E+00 0. -1.
</event>
<event>
 7    1  0.2817603E-011  0.5052886E+02  0.7816164E-02  0.1300439E+00
        -11   -1    0    0    0    0  0.00000000000E+00  0.00000000000E+00  0.45593999997E+02  0.45594000000E+02  0.51100000000E-03 0. -1.
         11   -1    0    0    0    0 -0.00000000000E+00 -0.00000000000E+00 -0.45593999997E+02  0.45594000000E+02  0.51100000000E-03 0.  1.
    9900012    2    1    2    0    0  0.32034254166E+02  0.22856319286E+02  0.10225503319E+02  0.50528859707E+02  0.29999999565E+02 0.  0.
        -12    1    1    2    0    0 -0.32034254166E+02 -0.22856319286E+02 -0.10225503319E+02  0.40659140293E+02  0.00000000000E+00 0.  1.
         11    1    3    3    0    0  0.21775884537E+02  0.12779626540E+02  0.61992301880E+01  0.25998816455E+02  0.51100000000E-03 0. -1.
        -11    1    3    3    0    0  0.14478819200E+02  0.11927698210E+02  0.56711099884E+00  0.18767733085E+02  0.51100000000E-03 0.  1.
        -12    1    3    3    0    0 -0.42204495709E+01 -0.18510054641E+01  0.34591621318E+01  0.57623101672E+01  0.00000000000E+00 0.  1.
</event>
<event>
 7    1  0.2817603E-011  0.5052886E+02  0.7816164E-02  0.1300439E+00
        -11   -1    0    0    0    0  0.00000000000E+00  0.00000000000E+00  0.45593999997E+02  0.45594000000E+02  0.51100000000E-03 0.  1.
         11   -1    0    0    0    0 -0.00000000000E+00 -0.00000000000E+00 -0.45593999997E+02  0.45594000000E+02  0.51100000000E-03 0. -1.
    9900012    2    1    2    0    0  0.22785717866E+02 -0.21309460464E+02 -0.26074584945E+02  0.50528855593E+02  0.29999987059E+02 0.  0.
        -12    1    1    2    0    0 -0.22785717866E+02  0.21309460464E+02  0.26074584945E+02  0.40659144407E+02  0.00000000000E+00 0.  1.
         11    1    3    3    0    0  0.13944292158E+02 -0.11931636029E+02 -0.81946492950E+01  0.20098743728E+02  0.51100000000E-03 0. -1.
        -11    1    3    3    0    0  0.13846692268E+02 -0.11745245668E+02 -0.97941410541E+01  0.20630241923E+02  0.51100000000E-03 0.  1.
        -12    1    3    3    0    0 -0.50052665597E+01  0.23674212334E+01 -0.80857945955E+01  0.97998699415E+01  0.00000000000E+00 0.  1.
</event>
<event>
 7    1  0.2817603E-011  0.5052886E+02  0.7816164E-02  0.1300439E+00
        -11   -1    0    0    0    0  0.00000000000E+00  0.00000000000E+00  0.45593999997E+02  0.45594000000E+02  0.51100000000E-03 0.  1.
         11   -1    0    0    0    0 -0.00000000000E+00 -0.00000000000E+00 -0.45593999997E+02  0.45594000000E+02  0.51100000000E-03 0. -1.
    9900012    2    1    2    0    0 -0.13601175510E+02  0.14629018335E+02 -0.35414197863E+02  0.50528861261E+02  0.30000004290E+02 0.  0.
        -12    1    1    2    0    0  0.13601175510E+02 -0.14629018335E+02  0.35414197863E+02  0.40659138739E+02  0.00000000000E+00 0.  1.
         11    1    3    3    0    0 -0.11634596931E+02  0.15374031077E+02 -0.23091218655E+02  0.30082038769E+02  0.51100000000E-03 0. -1.
        -11    1    3    3    0    0 -0.71855402375E+01 -0.20924619306E+00 -0.14860035017E+00  0.71901220295E+01  0.51100000000E-03 0.  1.
        -12    1    3    3    0    0  0.52189616578E+01 -0.53576654941E+00 -0.12174378858E+02  0.13256700463E+02  0.00000000000E+00 0.  1.
</event>
<event>
 7    1  0.2817603E-011  0.5052886E+02  0.7816164E-02  0.1300439E+00
        -11   -1    0    0    0    0  0.00000000000E+00  0.00000000000E+00  0.45593999997E+02  0.45594000000E+02  0.51100000000E-03 0.  1.
         11   -1    0    0    0    0 -0.00000000000E+00 -0.00000000000E+00 -0.45593999997E+02  0.45594000000E+02  0.51100000000E-03 0. -1.
    9900012    2    1    2    0    0 -0.10615459772E+02 -0.15069076273E+02 -0.36240870018E+02  0.50528859508E+02  0.29999998961E+02 0.  0.
        -12    1    1    2    0    0  0.10615459772E+02  0.15069076273E+02  0.36240870018E+02  0.40659140492E+02  0.00000000000E+00 0.  1.
         11    1    3    3    0    0 -0.52641560156E+01 -0.10775848232E+02 -0.22632779031E+02  0.25613920641E+02  0.51100000000E-03 0. -1.
        -11    1    3    3    0    0  0.79646160222E+00 -0.94623521354E+01 -0.13950383376E+02  0.16875534232E+02  0.51100000000E-03 0.  1.
         12    1    3    3    0    0 -0.61477653588E+01  0.51691240939E+01  0.34229238978E+00  0.80394046350E+01  0.00000000000E+00 0. -1.
</event>
<event>
 7    1  0.2817603E-011  0.5052890E+02  0.7816164E-02  0.1300439E+00
        -11   -1    0    0    0    0  0.00000000000E+00  0.00000000000E+00  0.45593999997E+02  0.45594000000E+02  0.51100000000E-03 0.  1.
         11   -1    0    0    0    0 -0.00000000000E+00 -0.00000000000E+00 -0.45593999997E+02  0.45594000000E+02  0.51100000000E-03 0. -1.
    9900012    2    1    2    0    0 -0.33172575370E+02  0.21752160996E+01  0.23409638902E+02  0.50528898740E+02  0.30000118210E+02 0.  0.
        -12    1    1    2    0    0  0.33172575370E+02 -0.21752160996E+01 -0.23409638902E+02  0.40659101260E+02  0.00000000000E+00 0.  1.
         11    1    3    3    0    0  0.88018695908E+00  0.16328251042E+01 -0.92141175332E+00  0.20711945307E+01  0.51100000000E-03 0. -1.
        -11    1    3    3    0    0 -0.17656590089E+01 -0.41878397279E+01  0.13230817684E+02  0.13989642246E+02  0.51100000000E-03 0.  1.
        -12    1    3    3    0    0 -0.32287103320E+02  0.47302307233E+01  0.11100232971E+02  0.34468061963E+02  0.00000000000E+00 0.  1.
</event>
<event>
 7    1  0.2817603E-011  0.5052886E+02  0.7816164E-02  0.1300439E+00
        -11   -1    0    0    0    0  0.00000000000E+00  0.00000000000E+00  0.45593999997E+02  0.45594000000E+02  0.51100000000E-03 0. -1.
         11   -1    0    0    0    0 -0.00000000000E+00 -0.00000000000E+00 -0.45593999997E+02  0.45594000000E+02  0.51100000000E-03 0.  1.
    9900012    2    1    2    0    0 -0.36127792528E+02 -0.71023184769E+01  0.17248335865E+02  0.50528863133E+02  0.30000009979E+02 0.  0.
        -12    1    1    2    0    0  0.36127792528E+02  0.71023184769E+01 -0.17248335865E+02  0.40659136867E+02  0.00000000000E+00 0.  1.
         11    1    3    3    0    0 -0.95828817369E+01 -0.49749567456E+01 -0.10827874083E+01  0.10851462843E+02  0.51100000000E-03 0. -1.
        -11    1    3    3    0    0 -0.24922459165E+02 -0.89384218099E+01  0.89026737189E+01  0.27933527433E+02  0.51100000000E-03 0.  1.
        -12    1    3    3    0    0 -0.16224516263E+01  0.68110600786E+01  0.94284495539E+01  0.11743872856E+02  0.00000000000E+00 0.  1.
</event>
<event>
 7    1  0.2817603E-011  0.5052886E+02  0.7816164E-02  0.1300439E+00
        -11   -1    0    0    0    0  0.00000000000E+00  0.00000000000E+00  0.45593999997E+02  0.45594000000E+02  0.51100000000E-03 0. -1.
         11   -1    0    0    0    0 -0.00000000000E+00 -0.00000000000E+00 -0.45593999997E+02  0.45594000000E+02  0.51100000000E-03 0.  1.
    9900012    2    1    2    0    0  0.18020167696E+02 -0.15147075253E+02  0.33151244482E+02  0.50528863964E+02  0.30000012506E+02 0.  0.
        -12    1    1    2    0    0 -0.18020167696E+02  0.15147075253E+02 -0.33151244482E+02  0.40659136036E+02  0.00000000000E+00 0.  1.
         11    1    3    3    0    0  0.41139734819E+01 -0.20403018369E+01  0.25843079364E+02  0.26247902024E+02  0.51100000000E-03 0. -1.
        -11    1    3    3    0    0 -0.10528616768E+00 -0.40611450129E+01  0.63975618941E+01  0.75784419535E+01  0.51100000000E-03 0.  1.
        -12    1    3    3    0    0  0.14011480381E+02 -0.90456284030E+01  0.91060322369E+00  0.16702519987E+02  0.00000000000E+00 0.  1.
</event>
<event>
 7    1  0.2817603E-011  0.5052885E+02  0.7816164E-02  0.1300439E+00
        -11   -1    0    0    0    0  0.00000000000E+00  0.00000000000E+00  0.45593999997E+02  0.45594000000E+02  0.51100000000E-03 0.  1.
         11   -1    0    0    0    0 -0.00000000000E+00 -0.00000000000E+00 -0.45593999997E+02  0.45594000000E+02  0.51100000000E-03 0. -1.
    9900012    2    1    2    0    0 -0.34977728026E+02  0.20163736886E+02  0.48113103003E+01  0.50528850354E+02  0.29999971137E+02 0.  0.
        -12    1    1    2    0    0  0.34977728026E+02 -0.20163736886E+02 -0.48113103003E+01  0.40659149646E+02  0.00000000000E+00 0.  1.
         11    1    3    3    0    0 -0.11021786724E+01 -0.24424790918E+01  0.89425093180E+00  0.28249224644E+01  0.51100000000E-03 0. -1.
        -11    1    3    3    0    0  0.37904898948E+01  0.27996989447E+01  0.19572526001E+01  0.51026430235E+01  0.51100000000E-03 0.  1.
         12    1    3    3    0    0 -0.37666039249E+02  0.19806517033E+02  0.19598067684E+01  0.42601284866E+02  0.00000000000E+00 0. -1.
</event>
<event>
 7    1  0.2817603E-011  0.5052887E+02  0.7816164E-02  0.1300439E+00
        -11   -1    0    0    0    0  0.00000000000E+00  0.00000000000E+00  0.45593999997E+02  0.45594000000E+02  0.51100000000E-03 0. -1.
         11   -1    0    0    0    0 -0.00000000000E+00 -0.00000000000E+00 -0.45593999997E+02  0.45594000000E+02  0.51100000000E-03 0.  1.
    9900012    2    1    2    0    0  0.26944211253E+00  0.40657915039E+02  0.16279604899E+00  0.50528866255E+02  0.30000019469E+02 0.  0.
        -12    1    1    2    0    0 -0.26944211253E+00 -0.40657915039E+02 -0.16279604899E+00  0.40659133745E+02  0.00000000000E+00 0.  1.
         11    1    3    3    0    0 -0.79915840704E+01  0.32558052109E+01  0.35077861225E+01  0.93150548719E+01  0.51100000000E-03 0. -1.
        -11    1    3    3    0    0  0.38986915819E+01  0.18334902237E+02  0.58000967692E+01  0.19621660452E+02  0.51100000000E-03 0.  1.
        -12    1    3    3    0    0  0.43623346010E+01  0.19067207591E+02 -0.91450868426E+01  0.21592150931E+02  0.00000000000E+00 0.  1.
</event>
<event>
 7    1  0.2817603E-011  0.5052887E+02  0.7816164E-02  0.1300439E+00
        -11   -1    0    0    0    0  0.00000000000E+00  0.00000000000E+00  0.45593999997E+02  0.45594000000E+02  0.51100000000E-03 0.  1.
         11   -1    0    0    0    0 -0.00000000000E+00 -0.00000000000E+00 -0.45593999997E+02  0.45594000000E+02  0.51100000000E-03 0. -1.
    9900012    2    1    2    0    0 -0.31889103885E+02  0.21493961311E+02 -0.13200746341E+02  0.50528867897E+02  0.30000024458E+02 0.  0.
        -12    1    1    2    0    0  0.31889103885E+02 -0.21493961311E+02  0.13200746341E+02  0.40659132103E+02  0.00000000000E+00 0.  1.
         11    1    3    3    0    0 -0.79419558139E+01 -0.27555758828E+01  0.81056932180E+00  0.84454060579E+01  0.51100000000E-03 0. -1.
        -11    1    3    3    0    0 -0.88607047490E+01  0.66960562924E+01  0.49530608282E+01  0.12160677216E+02  0.51100000000E-03 0.  1.
         12    1    3    3    0    0 -0.15086443322E+02  0.17553480902E+02 -0.18964376491E+02  0.29922784623E+02  0.00000000000E+00 0. -1.
</event>
<event>
 7    1  0.2817603E-011  0.5052886E+02  0.7816164E-02  0.1300439E+00
        -11   -1    0    0    0    0  0.00000000000E+00  0.00000000000E+00  0.45593999997E+02  0.45594000000E+02  0.51100000000E-03 0. -1.
         11   -1    0    0    0    0 -0.00000000000E+00 -0.00000000000E+00 -0.45593999997E+02  0.45594000000E+02  0.51100000000E-03 0.  1.
    9900012    2    1    2    0    0 -0.17789861571E+02  0.31756568955E+02  0.18116479000E+02  0.50528860095E+02  0.30000000744E+02 0.  0.
        -12    1    1    2    0    0  0.17789861571E+02 -0.31756568955E+02 -0.18116479000E+02  0.40659139905E+02  0.00000000000E+00 0.  1.
         11    1    3    3    0    0  0.90324395932E+00 -0.23787586409E+01  0.62555951348E+01  0.67532816522E+01  0.51100000000E-03 0. -1.
        -11    1    3    3    0    0  0.25306992655E+01  0.16399973233E+01 -0.46891758125E+00  0.30518705660E+01  0.51100000000E-03 0.  1.
         12    1    3    3    0    0 -0.21223804796E+02  0.32495330272E+02  0.12329801447E+02  0.40723707877E+02  0.00000000000E+00 0. -1.
</event>
<event>
 7    1  0.2817603E-011  0.5052888E+02  0.7816164E-02  0.1300439E+00
        -11   -1    0    0    0    0  0.00000000000E+00  0.00000000000E+00  0.45593999997E+02  0.45594000000E+02  0.51100000000E-03 0.  1.
         11   -1    0    0    0    0 -0.00000000000E+00 -0.00000000000E+00 -0.45593999997E+02  0.45594000000E+02  0.51100000000E-03 0. -1.
    9900012    2    1    2    0    0  0.16872876455E+02 -0.33282731446E+02 -0.16147143711E+02  0.50528875287E+02  0.30000046922E+02 0.  0.
        -12    1    1    2    0    0 -0.16872876455E+02  0.33282731446E+02  0.16147143711E+02  0.40659124713E+02  0.00000000000E+00 0.  1.
         11    1    3    3    0    0  0.11490417875E+01 -0.12101806449E+02  0.87811419917E+00  0.12187907990E+02  0.51100000000E-03 0.  1.
        -11    1    3    3    0    0  0.17368572294E+01  0.46515157024E+01 -0.21038239709E+01  0.53925269519E+01  0.51100000000E-03 0. -1.
         12    1    3    3    0    0  0.13986977438E+02 -0.25832440699E+02 -0.14921433940E+02  0.32948440345E+02  0.00000000000E+00 0. -1.
</event>
<event>
 7    1  0.2817603E-011  0.5052886E+02  0.7816164E-02  0.1300439E+00
        -11   -1    0    0    0    0  0.00000000000E+00  0.00000000000E+00  0.45593999997E+02  0.45594000000E+02  0.51100000000E-03 0. -1.
         11   -1    0    0    0    0 -0.00000000000E+00 -0.00000000000E+00 -0.45593999997E+02  0.45594000000E+02  0.51100000000E-03 0.  1.
    9900012    2    1    2    0    0 -0.18732864153E+01 -0.75822264096E+01  0.39901958557E+02  0.50528860117E+02  0.30000000813E+02 0.  0.
        -12    1    1    2    0    0  0.18732864153E+01  0.75822264096E+01 -0.39901958557E+02  0.40659139883E+02  0.00000000000E+00 0.  1.
         11    1    3    3    0    0 -0.15915884980E+01 -0.81208800478E+00  0.95312478497E+00  0.20251143156E+01  0.51100000000E-03 0. -1.
        -11    1    3    3    0    0 -0.12740411885E+02 -0.22467506798E+01  0.90194230232E+01  0.15770731611E+02  0.51100000000E-03 0.  1.
         12    1    3    3    0    0  0.12458713968E+02 -0.45233877251E+01  0.29929410749E+02  0.32733014191E+02  0.00000000000E+00 0. -1.
</event>
<event>
 7    1  0.2817603E-011  0.5052886E+02  0.7816164E-02  0.1300439E+00
        -11   -1    0    0    0    0  0.00000000000E+00  0.00000000000E+00  0.45593999997E+02  0.45594000000E+02  0.51100000000E-03 0.  1.
         11   -1    0    0    0    0 -0.00000000000E+00 -0.00000000000E+00 -0.45593999997E+02  0.45594000000E+02  0.51100000000E-03 0. -1.
    9900012    2    1    2    0    0 -0.17125467138E+02  0.89068768969E+01 -0.35784799451E+02  0.50528856471E+02  0.29999989731E+02 0.  0.
        -12    1    1    2    0    0  0.17125467138E+02 -0.89068768969E+01  0.35784799451E+02  0.40659143529E+02  0.00000000000E+00 0.  1.
         11    1    3    3    0    0 -0.64972133049E+01 -0.28663142511E+01 -0.94104263854E+01  0.11789218088E+02  0.51100000000E-03 0. -1.
        -11    1    3    3    0    0 -0.17410111234E+01 -0.18752402169E+00  0.42970309237E+01  0.46401249995E+01  0.51100000000E-03 0.  1.
        -12    1    3    3    0    0 -0.88872427098E+01  0.11960715170E+02 -0.30671403989E+02  0.34099513384E+02  0.00000000000E+00 0.  1.
</event>
<event>
 7    1  0.2817603E-011  0.5052885E+02  0.7816164E-02  0.1300439E+00
        -11   -1    0    0    0    0  0.00000000000E+00  0.00000000000E+00  0.45593999997E+02  0.45594000000E+02  0.51100000000E-03 0. -1.
         11   -1    0    0    0    0 -0.00000000000E+00 -0.00000000000E+00 -0.45593999997E+02  0.45594000000E+02  0.51100000000E-03 0.  1.
    9900012    2    1    2    0    0 -0.40179126196E+02 -0.59525449736E+01 -0.18361321639E+01  0.50528851523E+02  0.29999974689E+02 0.  0.
        -12    1    1    2    0    0  0.40179126196E+02  0.59525449736E+01  0.18361321639E+01  0.40659148477E+02  0.00000000000E+00 0.  1.
         11    1    3    3    0    0 -0.15374386758E+02  0.60874293552E+01 -0.55748488112E+01  0.17450143377E+02  0.51100000000E-03 0. -1.
        -11    1    3    3    0    0 -0.16859083971E+02 -0.94590924462E+01 -0.60061462094E+01  0.20242947780E+02  0.51100000000E-03 0.  1.
         12    1    3    3    0    0 -0.79456554667E+01 -0.25808818826E+01  0.97448628566E+01  0.12835760366E+02  0.00000000000E+00 0. -1.
</event>
<event>
 7    1  0.2817603E-011  0.5052886E+02  0.7816164E-02  0.1300439E+00
        -11   -1    0    0    0    0  0.00000000000E+00  0.00000000000E+00  0.45593999997E+02  0.45594000000E+02  0.51100000000E-03 0.  1.
         11   -1    0    0    0    0 -0.00000000000E+00 -0.00000000000E+00 -0.45593999997E+02  0.45594000000E+02  0.51100000000E-03 0. -1.
    9900012    2    1    2    0    0  0.19663457209E+02  0.34956952399E+02  0.66727539240E+01  0.50528859387E+02  0.29999998592E+02 0.  0.
        -12    1    1    2    0    0 -0.19663457209E+02 -0.34956952399E+02 -0.66727539240E+01  0.40659140613E+02  0.00000000000E+00 0.  1.
         11    1    3    3    0    0 -0.36012874447E+01  0.93027371793E+01  0.24056520481E+01  0.10261449816E+02  0.51100000000E-03 0.  1.
        -11    1    3    3    0    0 -0.19503137054E+01  0.66319635486E+00 -0.33738512138E+01  0.39530273498E+01  0.51100000000E-03 0. -1.
        -12    1    3    3    0    0  0.25215058359E+02  0.24991018865E+02  0.76409530896E+01  0.36314382221E+02  0.00000000000E+00 0.  1.
</event>
<event>
 7    1  0.2817603E-011  0.5052888E+02  0.7816164E-02  0.1300439E+00
        -11   -1    0    0    0    0  0.00000000000E+00  0.00000000000E+00  0.45593999997E+02  0.45594000000E+02  0.51100000000E-03 0.  1.
         11   -1    0    0    0    0 -0.00000000000E+00 -0.00000000000E+00 -0.45593999997E+02  0.45594000000E+02  0.51100000000E-03 0. -1.
    9900012    2    1    2    0    0 -0.21489961196E+02  0.24725505511E+02 -0.24083086104E+02  0.50528879359E+02  0.30000059301E+02 0.  0.
        -12    1    1    2    0    0  0.21489961196E+02 -0.24725505511E+02  0.24083086104E+02  0.40659120641E+02  0.00000000000E+00 0.  1.
         11    1    3    3    0    0 -0.11020884639E+02  0.92485634478E+01 -0.14597312385E+01  0.14461211555E+02  0.51100000000E-03 0. -1.
        -11    1    3    3    0    0 -0.34212225240E+01  0.60169091748E+01  0.32389571527E+01  0.76419109701E+01  0.51100000000E-03 0.  1.
         12    1    3    3    0    0 -0.70478540328E+01  0.94600328884E+01 -0.25862312018E+02  0.28425756835E+02  0.00000000000E+00 0. -1.
</event>
<event>
 7    1  0.2817603E-011  0.5052887E+02  0.7816164E-02  0.1300439E+00
        -11   -1    0    0    0    0  0.00000000000E+00  0.00000000000E+00  0.45593999997E+02  0.45594000000E+02  0.51100000000E-03 0. -1.
         11   -1    0    0    0    0 -0.00000000000E+00 -0.00000000000E+00 -0.45593999997E+02  0.45594000000E+02  0.51100000000E-03 0.  1.
    9900012    2    1    2    0    0  0.39995456803E+02  0.59933548468E+01  0.41961743288E+01  0.50528871306E+02  0.30000034821E+02 0.  0.
        -12    1    1    2    0    0 -0.39995456803E+02 -0.59933548468E+01 -0.41961743288E+01  0.40659128694E+02  0.00000000000E+00 0.  1.
         11    1    3    3    0    0  0.21499370506E+01 -0.15282511566E+01 -0.37492300170E+01  0.45841582544E+01  0.51100000000E-03 0.  1.
        -11    1    3    3    0    0  0.14603680347E+02  0.90926234014E+01  0.13651126586E+02  0.21961250814E+02  0.51100000000E-03 0. -1.
         12    1    3    3    0    0  0.23241839405E+02 -0.15710173980E+01 -0.57057222399E+01  0.23983462237E+02  0.00000000000E+00 0. -1.
</event>
<event>
 7    1  0.2817603E-011  0.5052886E+02  0.7816164E-02  0.1300439E+00
        -11   -1    0    0    0    0  0.00000000000E+00  0.00000000000E+00  0.45593999997E+02  0.45594000000E+02  0.51100000000E-03 0.  1.
         11   -1    0    0    0    0 -0.00000000000E+00 -0.00000000000E+00 -0.45593999997E+02  0.45594000000E+02  0.51100000000E-03 0. -1.
    9900012    2    1    2    0    0 -0.24650070164E+02 -0.17190676116E+02 -0.27386501853E+02  0.50528858492E+02  0.29999995874E+02 0.  0.
        -12    1    1    2    0    0  0.24650070164E+02  0.17190676116E+02  0.27386501853E+02  0.40659141508E+02  0.00000000000E+00 0.  1.
         11    1    3    3    0    0 -0.39733503838E+01 -0.11451648868E+01 -0.86141852087E+01  0.95552657190E+01  0.51100000000E-03 0. -1.
        -11    1    3    3    0    0 -0.17213396021E+02 -0.50968988391E+00 -0.18185768366E+02  0.25045617534E+02  0.51100000000E-03 0.  1.
        -12    1    3    3    0    0 -0.34633237594E+01 -0.15535821345E+02 -0.58654827773E+00  0.15927975239E+02  0.00000000000E+00 0.  1.
</event>
<event>
 7    1  0.2817603E-011  0.5052886E+02  0.7816164E-02  0.1300439E+00
        -11   -1    0    0    0    0  0.00000000000E+00  0.00000000000E+00  0.45593999997E+02  0.45594000000E+02  0.51100000000E-03 0. -1.
         11   -1    0    0    0    0 -0.00000000000E+00 -0.00000000000E+00 -0.45593999997E+02  0.45594000000E+02  0.51100000000E-03 0.  1.
    9900012    2    1    2    0    0 -0.28188612752E+02  0.38288523678E+01  0.29050085878E+02  0.50528862173E+02  0.30000007061E+02 0.  0.
        -12    1    1    2    0    0  0.28188612752E+02 -0.38288523678E+01 -0.29050085878E+02  0.40659137827E+02  0.00000000000E+00 0.  1.
         11    1    3    3    0    0 -0.94787163624E+01  0.38045480870E+00  0.13587326131E+02  0.16571247430E+02  0.51100000000E-03 0. -1.
        -11    1    3    3    0    0  0.29641199016E-01 -0.24488771809E+01  0.14049419761E+02  0.14261278832E+02  0.51100000000E-03 0.  1.
        -12    1    3    3    0    0 -0.18739537589E+02  0.58972747400E+01  0.14133399862E+01  0.19696335911E+02  0.00000000000E+00 0.  1.
</event>
<event>
 7    1  0.2817603E-011  0.5052886E+02  0.7816164E-02  0.1300439E+00
        -11   -1    0    0    0    0  0.00000000000E+00  0.00000000000E+00  0.45593999997E+02  0.45594000000E+02  0.51100000000E-03 0. -1.
         11   -1    0    0    0    0 -0.00000000000E+00 -0.00000000000E+00 -0.45593999997E+02  0.45594000000E+02  0.51100000000E-03 0.  1.
    9900012    2    1    2    0    0 -0.37438686623E+02  0.15564683981E+02  0.30416015529E+01  0.50528856090E+02  0.29999988572E+02 0.  0.
        -12    1    1    2    0    0  0.37438686623E+02 -0.15564683981E+02 -0.30416015529E+01  0.40659143910E+02  0.00000000000E+00 0.  1.
         11    1    3    3    0    0 -0.10170788554E+02  0.18288125482E+02  0.12777955100E+01  0.20965047939E+02  0.51100000000E-03 0.  1.
        -11    1    3    3    0    0 -0.28020539712E+01  0.10857548921E+01  0.36542245874E+01  0.47311444429E+01  0.51100000000E-03 0. -1.
        -12    1    3    3    0    0 -0.24465844098E+02 -0.38091963931E+01 -0.18904185445E+01  0.24832663709E+02  0.00000000000E+00 0.  1.
</event>
<event>
 7    1  0.2817603E-011  0.5052887E+02  0.7816164E-02  0.1300439E+00
        -11   -1    0    0    0    0  0.00000000000E+00  0.00000000000E+00  0.45593999997E+02  0.45594000000E+02  0.51100000000E-03 0. -1.
         11   -1    0    0    0    0 -0.00000000000E+00 -0.00000000000E+00 -0.45593999997E+02  0.45594000000E+02  0.51100000000E-03 0.  1.
    9900012    2    1    2    0    0 -0.38050872707E+02  0.13241905136E+02 -0.54724963390E+01  0.50528865951E+02  0.30000018545E+02 0.  0.
        -12    1    1    2    0    0  0.38050872707E+02 -0.13241905136E+02  0.54724963390E+01  0.40659134049E+02  0.00000000000E+00 0.  1.
         11    1    3    3    0    0 -0.12820909359E+02  0.45588640355E+01  0.63011142213E+01  0.14995432597E+02  0.51100000000E-03 0.  1.
        -11    1    3    3    0    0 -0.11271832850E+02  0.11228308819E+02  0.16576090701E+01  0.15996149625E+02  0.51100000000E-03 0. -1.
        -12    1    3    3    0    0 -0.13958130498E+02 -0.25452677177E+01 -0.13431219630E+02  0.19537283729E+02  0.00000000000E+00 0.  1.
</event>
<event>
 7    1  0.2817603E-011  0.5052886E+02  0.7816164E-02  0.1300439E+00
        -11   -1    0    0    0    0  0.00000000000E+00  0.00000000000E+00  0.45593999997E+02  0.45594000000E+02  0.51100000000E-03 0.  1.
         11   -1    0    0    0    0 -0.00000000000E+00 -0.00000000000E+00 -0.45593999997E+02  0.45594000000E+02  0.51100000000E-03 0. -1.
    9900012    2    1    2    0    0 -0.23890948213E+01 -0.39528095829E+02 -0.92188684526E+01  0.50528859952E+02  0.30000000309E+02 0.  0.
        -12    1    1    2    0    0  0.23890948213E+01  0.39528095829E+02  0.92188684526E+01  0.40659140048E+02  0.00000000000E+00 0.  1.
         11    1    3    3    0    0  0.38981947228E+01 -0.20509416189E+02 -0.13618549998E+02  0.24925829551E+02  0.51100000000E-03 0. -1.
        -11    1    3    3    0    0 -0.80397070894E+01 -0.19390288834E+02  0.15030327900E+00  0.20991493098E+02  0.51100000000E-03 0.  1.
        -12    1    3    3    0    0  0.17524175452E+01  0.37160919336E+00  0.42493782666E+01  0.46115373031E+01  0.00000000000E+00 0.  1.
</event>
<event>
 7    1  0.2817603E-011  0.5052887E+02  0.7816164E-02  0.1300439E+00
        -11   -1    0    0    0    0  0.00000000000E+00  0.00000000000E+00  0.45593999997E+02  0.45594000000E+02  0.51100000000E-03 0. -1.
         11   -1    0    0    0    0 -0.00000000000E+00 -0.00000000000E+00 -0.45593999997E+02  0.45594000000E+02  0.51100000000E-03 0.  1.
    9900012    2    1    2    0    0 -0.30784470472E+01  0.39961058587E+02  0.68411612836E+01  0.50528873997E+02  0.30000043000E+02 0.  0.
        -12    1    1    2    0    0  0.30784470472E+01 -0.39961058587E+02 -0.68411612836E+01  0.40659126003E+02  0.00000000000E+00 0.  1.
         11    1    3    3    0    0  0.68261512289E+01  0.10175924254E+02 -0.75005434845E+01  0.14366764697E+02  0.51100000000E-03 0. -1.
        -11    1    3    3    0    0 -0.67065993911E+01  0.65968151711E+01  0.17029039566E+01  0.95601426737E+01  0.51100000000E-03 0.  1.
        -12    1    3    3    0    0 -0.31979988851E+01  0.23188319162E+02  0.12638800812E+02  0.26601966626E+02  0.00000000000E+00 0.  1.
</event>
<event>
 7    1  0.2817603E-011  0.5052886E+02  0.7816164E-02  0.1300439E+00
        -11   -1    0    0    0    0  0.00000000000E+00  0.00000000000E+00  0.45593999997E+02  0.45594000000E+02  0.51100000000E-03 0.  1.
         11   -1    0    0    0    0 -0.00000000000E+00 -0.00000000000E+00 -0.45593999997E+02  0.45594000000E+02  0.51100000000E-03 0. -1.
    9900012    2    1    2    0    0  0.71194355607E+01  0.39977083792E+02  0.20766485975E+01  0.50528855142E+02  0.29999985689E+02 0.  0.
        -12    1    1    2    0    0 -0.71194355607E+01 -0.39977083792E+02 -0.20766485975E+01  0.40659144858E+02  0.00000000000E+00 0.  1.
         11    1    3    3    0    0  0.10837644040E+02  0.27150644261E+02  0.63102786682E+01  0.29907049825E+02  0.51100000000E-03 0. -1.
        -11    1    3    3    0    0  0.20952548324E+01  0.84849795688E+01  0.40305584123E+01  0.96244673864E+01  0.51100000000E-03 0.  1.
         12    1    3    3    0    0 -0.58134633114E+01  0.43414599620E+01 -0.82641884830E+01  0.10997337930E+02  0.00000000000E+00 0. -1.
</event>
<event>
 7    1  0.2817603E-011  0.5052884E+02  0.7816164E-02  0.1300439E+00
        -11   -1    0    0    0    0  0.00000000000E+00  0.00000000000E+00  0.45593999997E+02  0.45594000000E+02  0.51100000000E-03 0.  1.
         11   -1    0    0    0    0 -0.00000000000E+00 -0.00000000000E+00 -0.45593999997E+02  0.45594000000E+02  0.51100000000E-03 0. -1.
    9900012    2    1    2    0    0 -0.19860178335E+02 -0.33233254065E+02  0.12421395634E+02  0.50528844466E+02  0.29999953240E+02 0.  0.
        -12    1    1    2    0    0  0.19860178335E+02  0.33233254065E+02 -0.12421395634E+02  0.40659155534E+02  0.00000000000E+00 0.  1.
         11    1    3    3    0    0 -0.63223582015E+01 -0.79739344269E+01  0.15106210679E+02  0.18214100165E+02  0.51100000000E-03 0. -1.
        -11    1    3    3    0    0 -0.99665865340E+00 -0.16717689122E+01  0.42849061959E+01  0.47062257847E+01  0.51100000000E-03 0.  1.
         12    1    3    3    0    0 -0.12541161480E+02 -0.23587550726E+02 -0.69697212413E+01  0.27608518517E+02  0.00000000000E+00 0. -1.
</event>
<event>
 7    1  0.2817603E-011  0.5052886E+02  0.7816164E-02  0.1300439E+00
        -11   -1    0    0    0    0  0.00000000000E+00  0.00000000000E+00  0.45593999997E+02  0.45594000000E+02  0.51100000000E-03 0. -1.
         11   -1    0    0    0    0 -0.00000000000E+00 -0.00000000000E+00 -0.45593999997E+02  0.45594000000E+02  0.51100000000E-03 0.  1.
    9900012    2    1    2    0    0  0.31186804862E+02 -0.19712346114E+02  0.17087206483E+02  0.50528855736E+02  0.29999987496E+02 0.  0.
        -12    1    1    2    0    0 -0.31186804862E+02  0.19712346114E+02 -0.17087206483E+02  0.40659144264E+02  0.00000000000E+00 0.  1.
         11    1    3    3    0    0  0.13967813786E+02 -0.29176440877E+01  0.47055488486E+01  0.15025134250E+02  0.51100000000E-03 0. -1.
        -11    1    3    3    0    0 -0.28258816034E+01 -0.36944363232E+01 -0.42884610045E+01  0.63265602527E+01  0.51100000000E-03 0.  1.
         12    1    3    3    0    0  0.20044872679E+02 -0.13100265704E+02  0.16670118639E+02  0.29177161234E+02  0.00000000000E+00 0. -1.
</event>
<event>
 7    1  0.2817603E-011  0.5052886E+02  0.7816164E-02  0.1300439E+00
        -11   -1    0    0    0    0  0.00000000000E+00  0.00000000000E+00  0.45593999997E+02  0.45594000000E+02  0.51100000000E-03 0.  1.
         11   -1    0    0    0    0 -0.00000000000E+00 -0.00000000000E+00 -0.45593999997E+02  0.45594000000E+02  0.51100000000E-03 0. -1.
    9900012    2    1    2    0    0  0.19304972813E+02  0.32206184253E+02 -0.15596321538E+02  0.50528861729E+02  0.30000005711E+02 0.  0.
        -12    1    1    2    0    0 -0.19304972813E+02 -0.32206184253E+02  0.15596321538E+02  0.40659138271E+02  0.00000000000E+00 0.  1.
         11    1    3    3    0    0  0.77589666339E+01 -0.10560721517E+01 -0.39770623578E+01  0.87825894174E+01  0.51100000000E-03 0. -1.
        -11    1    3    3    0    0  0.92830223576E+00  0.29779332426E+01 -0.90262254304E+01  0.95500040429E+01  0.51100000000E-03 0.  1.
         12    1    3    3    0    0  0.10617703943E+02  0.30284323162E+02 -0.25930337497E+01  0.32196268269E+02  0.00000000000E+00 0. -1.
</event>
<event>
 7    1  0.2817603E-011  0.5052884E+02  0.7816164E-02  0.1300439E+00
        -11   -1    0    0    0    0  0.00000000000E+00  0.00000000000E+00  0.45593999997E+02  0.45594000000E+02  0.51100000000E-03 0.  1.
         11   -1    0    0    0    0 -0.00000000000E+00 -0.00000000000E+00 -0.45593999997E+02  0.45594000000E+02  0.51100000000E-03 0. -1.
    9900012    2    1    2    0    0 -0.83914579826E+01 -0.34574461592E+02 -0.19681389550E+02  0.50528842900E+02  0.29999948479E+02 0.  0.
        -12    1    1    2    0    0  0.83914579826E+01  0.34574461592E+02  0.19681389550E+02  0.40659157100E+02  0.00000000000E+00 0.  1.
         11    1    3    3    0    0 -0.65047812767E+01 -0.13418715113E+02  0.39840742353E+01  0.15435249998E+02  0.51100000000E-03 0. -1.
        -11    1    3    3    0    0  0.14813131208E+01  0.82199510965E+00  0.93433019559E+00  0.19346673351E+01  0.51100000000E-03 0.  1.
         12    1    3    3    0    0 -0.33679898267E+01 -0.21977741589E+02 -0.24599793981E+02  0.33158925567E+02  0.00000000000E+00 0. -1.
</event>
<event>
 7    1  0.2817603E-011  0.5052886E+02  0.7816164E-02  0.1300439E+00
        -11   -1    0    0    0    0  0.00000000000E+00  0.00000000000E+00  0.45593999997E+02  0.45594000000E+02  0.51100000000E-03 0.  1.
         11   -1    0    0    0    0 -0.00000000000E+00 -0.00000000000E+00 -0.45593999997E+02  0.45594000000E+02  0.51100000000E-03 0. -1.
    9900012    2    1    2    0    0 -0.44302854435E+01  0.35027860559E+02 -0.20164013689E+02  0.50528857209E+02  0.29999991971E+02 0.  0.
        -12    1    1    2    0    0  0.44302854435E+01 -0.35027860559E+02  0.20164013689E+02  0.40659142791E+02  0.00000000000E+00 0.  1.
         11    1    3    3    0    0  0.69106738687E+01  0.92416594392E+01 -0.75342152381E+01  0.13781512327E+02  0.51100000000E-03 0. -1.
        -11    1    3    3    0    0 -0.88392247037E+00  0.57153458830E+01 -0.12875189049E+02  0.14114424919E+02  0.51100000000E-03 0.  1.
         12    1    3    3    0    0 -0.10457036842E+02  0.20070855237E+02  0.24539059787E+00  0.22632919962E+02  0.00000000000E+00 0. -1.
</event>
<event>
 7    1  0.2817603E-011  0.5052886E+02  0.7816164E-02  0.1300439E+00
        -11   -1    0    0    0    0  0.00000000000E+00  0.00000000000E+00  0.45593999997E+02  0.45594000000E+02  0.51100000000E-03 0. -1.
         11   -1    0    0    0    0 -0.00000000000E+00 -0.00000000000E+00 -0.45593999997E+02  0.45594000000E+02  0.51100000000E-03 0.  1.
    9900012    2    1    2    0    0  0.22545623985E+02  0.54040949572E+01 -0.33401446002E+02  0.50528855909E+02  0.29999988021E+02 0.  0.
        -12    1    1    2    0    0 -0.22545623985E+02 -0.54040949572E+01  0.33401446002E+02  0.40659144091E+02  0.00000000000E+00 0.  1.
         11    1    3    3    0    0 -0.31062937938E+01  0.10656236855E+01 -0.69139218572E+01  0.76542099972E+01  0.51100000000E-03 0. -1.
        -11    1    3    3    0    0  0.29091019857E+01 -0.75074985634E+01 -0.69637383499E+01  0.10645142606E+02  0.51100000000E-03 0.  1.
         12    1    3    3    0    0  0.22742815793E+02  0.11845969835E+02 -0.19523785795E+02  0.32229503305E+02  0.00000000000E+00 0. -1.
</event>
<event>
 7    1  0.2817603E-011  0.5052886E+02  0.7816164E-02  0.1300439E+00
        -11   -1    0    0    0    0  0.00000000000E+00  0.00000000000E+00  0.45593999997E+02  0.45594000000E+02  0.51100000000E-03 0.  1.
         11   -1    0    0    0    0 -0.00000000000E+00 -0.00000000000E+00 -0.45593999997E+02  0.45594000000E+02  0.51100000000E-03 0. -1.
    9900012    2    1    2    0    0  0.32271776542E+02 -0.15389381420E+02 -0.19361437957E+02  0.50528857099E+02  0.29999991639E+02 0.  0.
        -12    1    1    2    0    0 -0.32271776542E+02  0.15389381420E+02  0.19361437957E+02  0.40659142901E+02  0.00000000000E+00 0.  1.
         11    1    3    3    0    0 -0.20815812767E+01 -0.41874845733E+01 -0.29460028599E+01  0.55269286928E+01  0.51100000000E-03 0.  1.
        -11    1    3    3    0    0  0.25652728783E+02 -0.15466189068E+02 -0.55864742078E+01  0.30470874498E+02  0.51100000000E-03 0. -1.
         12    1    3    3    0    0  0.87006290351E+01  0.42642922214E+01 -0.10828960889E+02  0.14531053909E+02  0.00000000000E+00 0. -1.
</event>
<event>
 7    1  0.2817603E-011  0.5052894E+02  0.7816164E-02  0.1300439E+00
        -11   -1    0    0    0    0  0.00000000000E+00  0.00000000000E+00  0.45593999997E+02  0.45594000000E+02  0.51100000000E-03 0.  1.
         11   -1    0    0    0    0 -0.00000000000E+00 -0.00000000000E+00 -0.45593999997E+02  0.45594000000E+02  0.51100000000E-03 0. -1.
    9900012    2    1    2    0    0 -0.12483103127E+01  0.18466181944E+02 -0.36202221476E+02  0.50528942042E+02  0.30000249830E+02 0.  0.
        -12    1    1    2    0    0  0.12483103127E+01 -0.18466181944E+02  0.36202221476E+02  0.40659057958E+02  0.00000000000E+00 0.  1.
         11    1    3    3    0    0 -0.62042703533E+01  0.52885992992E+01 -0.14064788726E+01  0.82728735180E+01  0.51100000000E-03 0. -1.
        -11    1    3    3    0    0 -0.58316588380E+01  0.41866095658E+01 -0.22408396979E+02  0.23530240116E+02  0.51100000000E-03 0.  1.
        -12    1    3    3    0    0  0.10787618879E+02  0.89909730785E+01 -0.12387345624E+02  0.18725828408E+02  0.00000000000E+00 0.  1.
</event>
<event>
 7    1  0.2817603E-011  0.5052885E+02  0.7816164E-02  0.1300439E+00
        -11   -1    0    0    0    0  0.00000000000E+00  0.00000000000E+00  0.45593999997E+02  0.45594000000E+02  0.51100000000E-03 0.  1.
         11   -1    0    0    0    0 -0.00000000000E+00 -0.00000000000E+00 -0.45593999997E+02  0.45594000000E+02  0.51100000000E-03 0. -1.
    9900012    2    1    2    0    0  0.44334443902E+01  0.27906156648E+02 -0.29236239455E+02  0.50528847211E+02  0.29999961584E+02 0.  0.
        -12    1    1    2    0    0 -0.44334443902E+01 -0.27906156648E+02  0.29236239455E+02  0.40659152789E+02  0.00000000000E+00 0.  1.
         11    1    3    3    0    0 -0.39935616740E+01  0.15953304380E+02 -0.66947389088E+01  0.17756012639E+02  0.51100000000E-03 0. -1.
        -11    1    3    3    0    0  0.35077323576E-01  0.11489493635E+02 -0.35836682619E+01  0.12035463135E+02  0.51100000000E-03 0.  1.
        -12    1    3    3    0    0  0.83919287406E+01  0.46335863219E+00 -0.18957832285E+02  0.20737371438E+02  0.00000000000E+00 0.  1.
</event>
<event>
 7    1  0.2817603E-011  0.5052875E+02  0.7816164E-02  0.1300439E+00
        -11   -1    0    0    0    0  0.00000000000E+00  0.00000000000E+00  0.45593999997E+02  0.45594000000E+02  0.51100000000E-03 0.  1.
         11   -1    0    0    0    0 -0.00000000000E+00 -0.00000000000E+00 -0.45593999997E+02  0.45594000000E+02  0.51100000000E-03 0. -1.
    9900012    2    1    2    0    0  0.26182944383E+02  0.29199723463E+02 -0.10723997879E+02  0.50528750654E+02  0.29999668086E+02 0.  0.
        -12    1    1    2    0    0 -0.26182944383E+02 -0.29199723463E+02  0.10723997879E+02  0.40659249346E+02  0.00000000000E+00 0.  1.
         11    1    3    3    0    0  0.53364882913E+01  0.30758191284E+01 -0.11401848510E+02  0.12959202148E+02  0.51100000000E-03 0. -1.
        -11    1    3    3    0    0 -0.12211379207E+01  0.56621285417E+01  0.43614207395E+01  0.72507150386E+01  0.51100000000E-03 0.  1.
         12    1    3    3    0    0  0.22067594012E+02  0.20461775793E+02 -0.36835701084E+01  0.30318833468E+02  0.00000000000E+00 0. -1.
</event>
<event>
 7    1  0.2817603E-011  0.5052886E+02  0.7816164E-02  0.1300439E+00
        -11   -1    0    0    0    0  0.00000000000E+00  0.00000000000E+00  0.45593999997E+02  0.45594000000E+02  0.51100000000E-03 0.  1.
         11   -1    0    0    0    0 -0.00000000000E+00 -0.00000000000E+00 -0.45593999997E+02  0.45594000000E+02  0.51100000000E-03 0. -1.
    9900012    2    1    2    0    0 -0.12905584626E+02 -0.34249693981E+02 -0.17707906829E+02  0.50528860602E+02  0.30000002287E+02 0.  0.
        -12    1    1    2    0    0  0.12905584626E+02  0.34249693981E+02  0.17707906829E+02  0.40659139398E+02  0.00000000000E+00 0.  1.
         11    1    3    3    0    0 -0.90517730772E+01 -0.10023997199E+02 -0.13586317973E+02  0.19157326328E+02  0.51100000000E-03 0. -1.
        -11    1    3    3    0    0 -0.73042730545E+01 -0.93955507836E+01 -0.94955162442E+01  0.15224769568E+02  0.51100000000E-03 0.  1.
        -12    1    3    3    0    0  0.34504615061E+01 -0.14830145998E+02  0.53739273887E+01  0.16146764707E+02  0.00000000000E+00 0.  1.
</event>
<event>
 7    1  0.2817603E-011  0.5052881E+02  0.7816164E-02  0.1300439E+00
        -11   -1    0    0    0    0  0.00000000000E+00  0.00000000000E+00  0.45593999997E+02  0.45594000000E+02  0.51100000000E-03 0. -1.
         11   -1    0    0    0    0 -0.00000000000E+00 -0.00000000000E+00 -0.45593999997E+02  0.45594000000E+02  0.51100000000E-03 0.  1.
    9900012    2    1    2    0    0 -0.82324742457E+01  0.39594596665E+02  0.42028544027E+01  0.50528810357E+02  0.29999849560E+02 0.  0.
        -12    1    1    2    0    0  0.82324742457E+01 -0.39594596665E+02 -0.42028544027E+01  0.40659189643E+02  0.00000000000E+00 0.  1.
         11    1    3    3    0    0 -0.10819206451E+02  0.19614185362E+02 -0.60128560082E+01  0.23193230333E+02  0.51100000000E-03 0. -1.
        -11    1    3    3    0    0  0.40829048986E+01  0.10185565492E+02 -0.24609462466E+01  0.11245982104E+02  0.51100000000E-03 0.  1.
         12    1    3    3    0    0 -0.14961726936E+01  0.97948458113E+01  0.12676656658E+02  0.16089597919E+02  0.00000000000E+00 0. -1.
</event>
<event>
 7    1  0.2817603E-011  0.5052887E+02  0.7816164E-02  0.1300439E+00
        -11   -1    0    0    0    0  0.00000000000E+00  0.00000000000E+00  0.45593999997E+02  0.45594000000E+02  0.51100000000E-03 0.  1.
         11   -1    0    0    0    0 -0.00000000000E+00 -0.00000000000E+00 -0.45593999997E+02  0.45594000000E+02  0.51100000000E-03 0. -1.
    9900012    2    1    2    0    0 -0.20274598846E+02  0.10314077653E+02 -0.33700525867E+02  0.50528868185E+02  0.30000025336E+02 0.  0.
        -12    1    1    2    0    0  0.20274598846E+02 -0.10314077653E+02  0.33700525867E+02  0.40659131815E+02  0.00000000000E+00 0.  1.
         11    1    3    3    0    0 -0.14431644460E+02  0.95078369910E+00 -0.10282101130E+02  0.17745364335E+02  0.51100000000E-03 0. -1.
        -11    1    3    3    0    0 -0.56254223766E+00 -0.63373329427E+01 -0.59753457799E+01  0.87282873490E+01  0.51100000000E-03 0.  1.
         12    1    3    3    0    0 -0.52804121482E+01  0.15700626897E+02 -0.17443078957E+02  0.24055216501E+02  0.00000000000E+00 0. -1.
</event>
<event>
 7    1  0.2817603E-011  0.5052890E+02  0.7816164E-02  0.1300439E+00
        -11   -1    0    0    0    0  0.00000000000E+00  0.00000000000E+00  0.45593999997E+02  0.45594000000E+02  0.51100000000E-03 0.  1.
         11   -1    0    0    0    0 -0.00000000000E+00 -0.00000000000E+00 -0.45593999997E+02  0.45594000000E+02  0.51100000000E-03 0. -1.
    9900012    2    1    2    0    0  0.21652255937E+02  0.23789438041E+02 -0.24867752991E+02  0.50528896612E+02  0.30000111743E+02 0.  0.
        -12    1    1    2    0    0 -0.21652255937E+02 -0.23789438041E+02  0.24867752991E+02  0.40659103388E+02  0.00000000000E+00 0.  1.
         11    1    3    3    0    0 -0.57744442975E+01  0.19091406370E+01 -0.60586033286E+00  0.61119630169E+01  0.51100000000E-03 0.  1.
        -11    1    3    3    0    0 -0.98699681488E+00  0.14176919034E+01 -0.29717659934E+01  0.34373545680E+01  0.51100000000E-03 0. -1.
         12    1    3    3    0    0  0.28413697049E+02  0.20462605500E+02 -0.21290126665E+02  0.40979579028E+02  0.00000000000E+00 0. -1.
</event>
<event>
 7    1  0.2817603E-011  0.5052888E+02  0.7816164E-02  0.1300439E+00
        -11   -1    0    0    0    0  0.00000000000E+00  0.00000000000E+00  0.45593999997E+02  0.45594000000E+02  0.51100000000E-03 0.  1.
         11   -1    0    0    0    0 -0.00000000000E+00 -0.00000000000E+00 -0.45593999997E+02  0.45594000000E+02  0.51100000000E-03 0. -1.
    9900012    2    1    2    0    0 -0.15064378252E+02  0.28574487714E+02 -0.24692662905E+02  0.50528875052E+02  0.30000046207E+02 0.  0.
        -12    1    1    2    0    0  0.15064378252E+02 -0.28574487714E+02  0.24692662905E+02  0.40659124948E+02  0.00000000000E+00 0.  1.
         11    1    3    3    0    0 -0.64790038066E+01  0.96435328493E+01 -0.20046559613E+02  0.23169802949E+02  0.51100000000E-03 0. -1.
        -11    1    3    3    0    0 -0.29820294607E+01 -0.20807205952E+01 -0.42718470425E+01  0.56098641084E+01  0.51100000000E-03 0.  1.
         12    1    3    3    0    0 -0.56033449842E+01  0.21011675459E+02 -0.37425625010E+00  0.21749207994E+02  0.00000000000E+00 0. -1.
</event>
<event>
 7    1  0.2817603E-011  0.5052886E+02  0.7816164E-02  0.1300439E+00
        -11   -1    0    0    0    0  0.00000000000E+00  0.00000000000E+00  0.45593999997E+02  0.45594000000E+02  0.51100000000E-03 0. -1.
         11   -1    0    0    0    0 -0.00000000000E+00 -0.00000000000E+00 -0.45593999997E+02  0.45594000000E+02  0.51100000000E-03 0.  1.
    9900012    2    1    2    0    0 -0.29417046391E+01  0.44162196843E+01  0.40311404861E+02  0.50528856080E+02  0.29999988540E+02 0.  0.
        -12    1    1    2    0    0  0.29417046391E+01 -0.44162196843E+01 -0.40311404861E+02  0.40659143920E+02  0.00000000000E+00 0.  1.
         11    1    3    3    0    0  0.11983047604E+01 -0.11769473724E+01 -0.33938298105E+00  0.17135695157E+01  0.51100000000E-03 0.  1.
        -11    1    3    3    0    0 -0.11421580732E+02 -0.14387352475E+01  0.65522351062E+01  0.13245914490E+02  0.51100000000E-03 0. -1.
         12    1    3    3    0    0  0.72815713326E+01  0.70319023042E+01  0.34098552735E+02  0.35569372074E+02  0.00000000000E+00 0. -1.
</event>
<event>
 7    1  0.2817603E-011  0.5052887E+02  0.7816164E-02  0.1300439E+00
        -11   -1    0    0    0    0  0.00000000000E+00  0.00000000000E+00  0.45593999997E+02  0.45594000000E+02  0.51100000000E-03 0. -1.
         11   -1    0    0    0    0 -0.00000000000E+00 -0.00000000000E+00 -0.45593999997E+02  0.45594000000E+02  0.51100000000E-03 0.  1.
    9900012    2    1    2    0    0  0.35152272383E+02 -0.31822119643E+01 -0.20183074621E+02  0.50528865383E+02  0.30000016817E+02 0.  0.
        -12    1    1    2    0    0 -0.35152272383E+02  0.31822119643E+01  0.20183074621E+02  0.40659134617E+02  0.00000000000E+00 0.  1.
         11    1    3    3    0    0  0.22211695246E+02 -0.15467864736E+01 -0.48116093394E+01  0.22779454313E+02  0.51100000000E-03 0. -1.
        -11    1    3    3    0    0  0.17002891885E+02 -0.28758021162E+01 -0.74992931256E+01  0.18804466701E+02  0.51100000000E-03 0.  1.
        -12    1    3    3    0    0 -0.40623147489E+01  0.12403766255E+01 -0.78721721565E+01  0.89449443684E+01  0.00000000000E+00 0.  1.
</event>
<event>
 7    1  0.2817603E-011  0.5052882E+02  0.7816164E-02  0.1300439E+00
        -11   -1    0    0    0    0  0.00000000000E+00  0.00000000000E+00  0.45593999997E+02  0.45594000000E+02  0.51100000000E-03 0. -1.
         11   -1    0    0    0    0 -0.00000000000E+00 -0.00000000000E+00 -0.45593999997E+02  0.45594000000E+02  0.51100000000E-03 0.  1.
    9900012    2    1    2    0    0 -0.39086968725E+01  0.23431279498E+02  0.32997976349E+02  0.50528816372E+02  0.29999867845E+02 0.  0.
        -12    1    1    2    0    0  0.39086968725E+01 -0.23431279498E+02 -0.32997976349E+02  0.40659183628E+02  0.00000000000E+00 0.  1.
         11    1    3    3    0    0 -0.26865292845E+01  0.15426190906E+01  0.15616011320E+01  0.34692523131E+01  0.51100000000E-03 0. -1.
        -11    1    3    3    0    0 -0.51784214171E+01  0.12873893879E+02 -0.25049051919E+00  0.13878614403E+02  0.51100000000E-03 0.  1.
         12    1    3    3    0    0  0.39562538292E+01  0.90147665282E+01  0.31686865736E+02  0.33180949656E+02  0.00000000000E+00 0. -1.
</event>
<event>
 7    1  0.2817603E-011  0.5052885E+02  0.7816164E-02  0.1300439E+00
        -11   -1    0    0    0    0  0.00000000000E+00  0.00000000000E+00  0.45593999997E+02  0.45594000000E+02  0.51100000000E-03 0.  1.
         11   -1    0    0    0    0 -0.00000000000E+00 -0.00000000000E+00 -0.45593999997E+02  0.45594000000E+02  0.51100000000E-03 0. -1.
    9900012    2    1    2    0    0  0.22223787499E+01 -0.34211001734E+02 -0.21859434525E+02  0.50528849926E+02  0.29999969835E+02 0.  0.
        -12    1    1    2    0    0 -0.22223787499E+01  0.34211001734E+02  0.21859434525E+02  0.40659150074E+02  0.00000000000E+00 0.  1.
         11    1    3    3    0    0  0.35039693619E+00  0.45484038049E+01 -0.61150579340E+01  0.76291997603E+01  0.51100000000E-03 0. -1.
        -11    1    3    3    0    0 -0.38125359414E+01 -0.15427834261E+02 -0.63069063269E+01  0.17097677268E+02  0.51100000000E-03 0.  1.
        -12    1    3    3    0    0  0.56845177551E+01 -0.23331571278E+02 -0.94374702646E+01  0.25801972897E+02  0.00000000000E+00 0.  1.
</event>
<event>
 7    1  0.2817603E-011  0.5052886E+02  0.7816164E-02  0.1300439E+00
        -11   -1    0    0    0    0  0.00000000000E+00  0.00000000000E+00  0.45593999997E+02  0.45594000000E+02  0.51100000000E-03 0.  1.
         11   -1    0    0    0    0 -0.00000000000E+00 -0.00000000000E+00 -0.45593999997E+02  0.45594000000E+02  0.51100000000E-03 0. -1.
    9900012    2    1    2    0    0  0.32977505759E+02 -0.24360760335E+01 -0.23658307246E+02  0.50528857679E+02  0.29999993400E+02 0.  0.
        -12    1    1    2    0    0 -0.32977505759E+02  0.24360760335E+01  0.23658307246E+02  0.40659142321E+02  0.00000000000E+00 0.  1.
         11    1    3    3    0    0  0.14246584678E+02 -0.63118929890E+01 -0.79170881794E+01  0.17478142167E+02  0.51100000000E-03 0. -1.
        -11    1    3    3    0    0  0.17177509472E+02 -0.45184612350E+01 -0.16800154334E+02  0.24448486855E+02  0.51100000000E-03 0.  1.
        -12    1    3    3    0    0  0.15534116095E+01  0.83942781905E+01  0.10589352670E+01  0.86022286570E+01  0.00000000000E+00 0.  1.
</event>
<event>
 7    1  0.2817603E-011  0.5052890E+02  0.7816164E-02  0.1300439E+00
        -11   -1    0    0    0    0  0.00000000000E+00  0.00000000000E+00  0.45593999997E+02  0.45594000000E+02  0.51100000000E-03 0.  1.
         11   -1    0    0    0    0 -0.00000000000E+00 -0.00000000000E+00 -0.45593999997E+02  0.45594000000E+02  0.51100000000E-03 0. -1.
    9900012    2    1    2    0    0  0.40564796401E+02  0.27665506293E+01 -0.77813791636E-01  0.50528898136E+02  0.30000116373E+02 0.  0.
        -12    1    1    2    0    0 -0.40564796401E+02 -0.27665506293E+01  0.77813791636E-01  0.40659101864E+02  0.00000000000E+00 0.  1.
         11    1    3    3    0    0  0.18366740401E+02  0.30692629279E+00  0.99410824742E+01  0.20886753643E+02  0.51100000000E-03 0. -1.
        -11    1    3    3    0    0  0.14360258279E+02  0.91977461790E+01 -0.34601794661E+01  0.17400815924E+02  0.51100000000E-03 0.  1.
        -12    1    3    3    0    0  0.78377977210E+01 -0.67381218425E+01 -0.65587167998E+01  0.12241328569E+02  0.00000000000E+00 0.  1.
</event>
<event>
 7    1  0.2817603E-011  0.5052885E+02  0.7816164E-02  0.1300439E+00
        -11   -1    0    0    0    0  0.00000000000E+00  0.00000000000E+00  0.45593999997E+02  0.45594000000E+02  0.51100000000E-03 0. -1.
         11   -1    0    0    0    0 -0.00000000000E+00 -0.00000000000E+00 -0.45593999997E+02  0.45594000000E+02  0.51100000000E-03 0.  1.
    9900012    2    1    2    0    0  0.74554395302E+01 -0.39596128004E+02 -0.54525086107E+01  0.50528846275E+02  0.29999958737E+02 0.  0.
        -12    1    1    2    0    0 -0.74554395302E+01  0.39596128004E+02  0.54525086107E+01  0.40659153725E+02  0.00000000000E+00 0.  1.
         11    1    3    3    0    0  0.34492912172E+01 -0.99494813959E+01  0.60045240354E+01  0.12122050120E+02  0.51100000000E-03 0. -1.
        -11    1    3    3    0    0  0.36981023944E-01  0.12919353266E+01  0.35604650342E+01  0.37877930257E+01  0.51100000000E-03 0.  1.
        -12    1    3    3    0    0  0.39691672891E+01 -0.30938581935E+02 -0.15017497680E+02  0.34619003130E+02  0.00000000000E+00 0.  1.
</event>
<event>
 7    1  0.2817603E-011  0.5052886E+02  0.7816164E-02  0.1300439E+00
        -11   -1    0    0    0    0  0.00000000000E+00  0.00000000000E+00  0.45593999997E+02  0.45594000000E+02  0.51100000000E-03 0. -1.
         11   -1    0    0    0    0 -0.00000000000E+00 -0.00000000000E+00 -0.45593999997E+02  0.45594000000E+02  0.51100000000E-03 0.  1.
    9900012    2    1    2    0    0  0.35395934683E+01 -0.26753538576E+02  0.30411927255E+02  0.50528857515E+02  0.29999992904E+02 0.  0.
        -12    1    1    2    0    0 -0.35395934683E+01  0.26753538576E+02 -0.30411927255E+02  0.40659142485E+02  0.00000000000E+00 0.  1.
         11    1    3    3    0    0 -0.26846956713E+01 -0.42528850262E+01  0.17077739605E+02  0.17802915834E+02  0.51100000000E-03 0. -1.
        -11    1    3    3    0    0 -0.46974831917E+01 -0.16198739794E+02  0.49280189451E+01  0.17571308723E+02  0.51100000000E-03 0.  1.
        -12    1    3    3    0    0  0.10921772331E+02 -0.63019137556E+01  0.84061687042E+01  0.15154632959E+02  0.00000000000E+00 0.  1.
</event>
<event>
 7    1  0.2817603E-011  0.5052884E+02  0.7816164E-02  0.1300439E+00
        -11   -1    0    0    0    0  0.00000000000E+00  0.00000000000E+00  0.45593999997E+02  0.45594000000E+02  0.51100000000E-03 0. -1.
         11   -1    0    0    0    0 -0.00000000000E+00 -0.00000000000E+00 -0.45593999997E+02  0.45594000000E+02  0.51100000000E-03 0.  1.
    9900012    2    1    2    0    0 -0.33890675124E+02  0.20054835388E+02 -0.10118955360E+02  0.50528836944E+02  0.29999930376E+02 0.  0.
        -12    1    1    2    0    0  0.33890675124E+02 -0.20054835388E+02  0.10118955360E+02  0.40659163056E+02  0.00000000000E+00 0.  1.
         11    1    3    3    0    0  0.16288943578E+01  0.26128939159E+01  0.26208741718E+01  0.40434506464E+01  0.51100000000E-03 0. -1.
        -11    1    3    3    0    0  0.10376059829E+01  0.63891424728E+01 -0.25577379936E+01  0.69598700863E+01  0.51100000000E-03 0.  1.
         12    1    3    3    0    0 -0.36557175465E+02  0.11052798999E+02 -0.10182091538E+02  0.39525516212E+02  0.00000000000E+00 0. -1.
</event>
<event>
 7    1  0.2956516E-011  0.5052886E+02  0.7816164E-02  0.1300439E+00
        -11   -1    0    0    0    0  0.00000000000E+00  0.00000000000E+00  0.45593999997E+02  0.45594000000E+02  0.51100000000E-03 0. -1.
         11   -1    0    0    0    0 -0.00000000000E+00 -0.00000000000E+00 -0.45593999997E+02  0.45594000000E+02  0.51100000000E-03 0.  1.
    9900012    2    1    2    0    0  0.70068475243E+01  0.39063059802E+02 -0.88400881473E+01  0.50528859432E+02  0.29999998728E+02 0.  0.
        -12    1    1    2    0    0 -0.70068475243E+01 -0.39063059802E+02  0.88400881473E+01  0.40659140568E+02  0.00000000000E+00 0.  1.
         11    1    3    3    0    0 -0.93813380448E+00  0.30715774621E+02 -0.80705591165E+01  0.31772202164E+02  0.51100000000E-03 0. -1.
        -11    1    3    3    0    0  0.64171365639E+01  0.54208019179E+01 -0.74993155309E+01  0.11260749034E+02  0.51100000000E-03 0.  1.
        -12    1    3    3    0    0  0.15278447649E+01  0.29264832626E+01  0.67297865002E+01  0.74959082338E+01  0.00000000000E+00 0.  1.
</event>
<event>
 7    1  0.2817603E-011  0.5052885E+02  0.7816164E-02  0.1300439E+00
        -11   -1    0    0    0    0  0.00000000000E+00  0.00000000000E+00  0.45593999997E+02  0.45594000000E+02  0.51100000000E-03 0.  1.
         11   -1    0    0    0    0 -0.00000000000E+00 -0.00000000000E+00 -0.45593999997E+02  0.45594000000E+02  0.51100000000E-03 0. -1.
    9900012    2    1    2    0    0 -0.62944096232E+01 -0.63619572157E+01 -0.39661977721E+02  0.50528848891E+02  0.29999966691E+02 0.  0.
        -12    1    1    2    0    0  0.62944096232E+01  0.63619572157E+01  0.39661977721E+02  0.40659151109E+02  0.00000000000E+00 0.  1.
         11    1    3    3    0    0  0.25376554332E+01  0.34583592302E+01 -0.78494326459E+01  0.89450286073E+01  0.51100000000E-03 0. -1.
        -11    1    3    3    0    0 -0.21588412319E+01  0.43350827478E+01 -0.23241885936E+02  0.23741078325E+02  0.51100000000E-03 0.  1.
        -12    1    3    3    0    0 -0.66732238245E+01 -0.14155399194E+02 -0.85706591387E+01  0.17842741959E+02  0.00000000000E+00 0.  1.
</event>
<event>
 7    1  0.2817603E-011  0.5052885E+02  0.7816164E-02  0.1300439E+00
        -11   -1    0    0    0    0  0.00000000000E+00  0.00000000000E+00  0.45593999997E+02  0.45594000000E+02  0.51100000000E-03 0.  1.
         11   -1    0    0    0    0 -0.00000000000E+00 -0.00000000000E+00 -0.45593999997E+02  0.45594000000E+02  0.51100000000E-03 0. -1.
    9900012    2    1    2    0    0  0.26320057666E+02 -0.32940857136E+01 -0.30815088080E+02  0.50528854785E+02  0.29999984605E+02 0.  0.
        -12    1    1    2    0    0 -0.26320057666E+02  0.32940857136E+01  0.30815088080E+02  0.40659145215E+02  0.00000000000E+00 0.  1.
         11    1    3    3    0    0  0.17246404517E+02 -0.75609976108E+01 -0.28383047892E+02  0.34061775666E+02  0.51100000000E-03 0. -1.
        -11    1    3    3    0    0 -0.12968899101E+01  0.52851752340E+01 -0.26313705016E+01  0.60447590251E+01  0.51100000000E-03 0.  1.
        -12    1    3    3    0    0  0.10370543059E+02 -0.10182633368E+01  0.19933031370E+00  0.10422320094E+02  0.00000000000E+00 0.  1.
</event>
<event>
 7    1  0.2817603E-011  0.5052886E+02  0.7816164E-02  0.1300439E+00
        -11   -1    0    0    0    0  0.00000000000E+00  0.00000000000E+00  0.45593999997E+02  0.45594000000E+02  0.51100000000E-03 0.  1.
         11   -1    0    0    0    0 -0.00000000000E+00 -0.00000000000E+00 -0.45593999997E+02  0.45594000000E+02  0.51100000000E-03 0. -1.
    9900012    2    1    2    0    0 -0.11719028331E+02 -0.22412475797E+02 -0.31835682137E+02  0.50528863837E+02  0.30000012120E+02 0.  0.
        -12    1    1    2    0    0  0.11719028331E+02  0.22412475797E+02  0.31835682137E+02  0.40659136163E+02  0.00000000000E+00 0.  1.
         11    1    3    3    0    0 -0.39678834478E+01  0.32329468316E+00  0.17333252748E+01  0.43420082078E+01  0.51100000000E-03 0. -1.
        -11    1    3    3    0    0 -0.76531024651E+01 -0.11474048935E+02 -0.37216936952E+01  0.14285474459E+02  0.51100000000E-03 0.  1.
         12    1    3    3    0    0 -0.98042418206E-01 -0.11261721545E+02 -0.29847313717E+02  0.31901381171E+02  0.00000000000E+00 0. -1.
</event>
<event>
 7    1  0.2817603E-011  0.5052884E+02  0.7816164E-02  0.1300439E+00
        -11   -1    0    0    0    0  0.00000000000E+00  0.00000000000E+00  0.45593999997E+02  0.45594000000E+02  0.51100000000E-03 0.  1.
         11   -1    0    0    0    0 -0.00000000000E+00 -0.00000000000E+00 -0.45593999997E+02  0.45594000000E+02  0.51100000000E-03 0. -1.
    9900012    2    1    2    0    0 -0.34893827515E+02  0.15830655269E+02 -0.13600691693E+02  0.50528835481E+02  0.29999925928E+02 0.  0.
        -12    1    1    2    0    0  0.34893827515E+02 -0.15830655269E+02  0.13600691693E+02  0.40659164519E+02  0.00000000000E+00 0.  1.
         11    1    3    3    0    0 -0.21130819748E+02  0.16129364560E+01 -0.10603008927E+01  0.21218796985E+02  0.51100000000E-03 0. -1.
        -11    1    3    3    0    0 -0.15645590653E+01 -0.23384806936E+01 -0.76793501810E+01  0.81785546698E+01  0.51100000000E-03 0.  1.
         12    1    3    3    0    0 -0.12198448702E+02  0.16556199506E+02 -0.48610406196E+01  0.21131483827E+02  0.00000000000E+00 0. -1.
</event>
<event>
 7    1  0.2817603E-011  0.5052886E+02  0.7816164E-02  0.1300439E+00
        -11   -1    0    0    0    0  0.00000000000E+00  0.00000000000E+00  0.45593999997E+02  0.45594000000E+02  0.51100000000E-03 0.  1.
         11   -1    0    0    0    0 -0.00000000000E+00 -0.00000000000E+00 -0.45593999997E+02  0.45594000000E+02  0.51100000000E-03 0. -1.
    9900012    2    1    2    0    0  0.12610246646E+01 -0.29586805557E+02 -0.27860302519E+02  0.50528859543E+02  0.29999999068E+02 0.  0.
        -12    1    1    2    0    0 -0.12610246646E+01  0.29586805557E+02  0.27860302519E+02  0.40659140457E+02  0.00000000000E+00 0.  1.
         11    1    3    3    0    0  0.29420056063E+01 -0.17463021878E+02 -0.13697254869E+02  0.22388106693E+02  0.51100000000E-03 0. -1.
        -11    1    3    3    0    0 -0.31419378042E+01 -0.17852407885E+02 -0.87632487381E+01  0.20133920859E+02  0.51100000000E-03 0.  1.
        -12    1    3    3    0    0  0.14609568625E+01  0.57286242060E+01 -0.53997989114E+01  0.80068319910E+01  0.00000000000E+00 0.  1.
</event>
<event>
 7    1  0.2817603E-011  0.5052885E+02  0.7816164E-02  0.1300439E+00
        -11   -1    0    0    0    0  0.00000000000E+00  0.00000000000E+00  0.45593999997E+02  0.45594000000E+02  0.51100000000E-03 0.  1.
         11   -1    0    0    0    0 -0.00000000000E+00 -0.00000000000E+00 -0.45593999997E+02  0.45594000000E+02  0.51100000000E-03 0. -1.
    9900012    2    1    2    0    0 -0.32758483466E+02  0.11687083968E+02 -0.21058500538E+02  0.50528848317E+02  0.29999964945E+02 0.  0.
        -12    1    1    2    0    0  0.32758483466E+02 -0.11687083968E+02  0.21058500538E+02  0.40659151683E+02  0.00000000000E+00 0.  1.
         11    1    3    3    0    0 -0.13709621838E+02  0.21557898071E+01 -0.99773896186E+01  0.17092380305E+02  0.51100000000E-03 0. -1.
        -11    1    3    3    0    0 -0.14236392324E+02 -0.58363708949E+01 -0.64193145958E+01  0.16671703325E+02  0.51100000000E-03 0.  1.
         12    1    3    3    0    0 -0.48124693045E+01  0.15367665055E+02 -0.46617963238E+01  0.16764764688E+02  0.00000000000E+00 0. -1.
</event>
<event>
 7    1  0.2817603E-011  0.5052886E+02  0.7816164E-02  0.1300439E+00
        -11   -1    0    0    0    0  0.00000000000E+00  0.00000000000E+00  0.45593999997E+02  0.45594000000E+02  0.51100000000E-03 0. -1.
         11   -1    0    0    0    0 -0.00000000000E+00 -0.00000000000E+00 -0.45593999997E+02  0.45594000000E+02  0.51100000000E-03 0.  1.
    9900012    2    1    2    0    0  0.20534098030E+02 -0.34915578759E+02  0.35240778943E+01  0.50528856539E+02  0.29999989937E+02 0.  0.
        -12    1    1    2    0    0 -0.20534098030E+02  0.34915578759E+02 -0.35240778943E+01  0.40659143461E+02  0.00000000000E+00 0.  1.
         11    1    3    3    0    0  0.14094580467E+02 -0.71725866440E+01 -0.22200554688E+01  0.15969716474E+02  0.51100000000E-03 0. -1.
        -11    1    3    3    0    0  0.33799320001E+01 -0.54762610024E+01 -0.63458314479E+01  0.90378621321E+01  0.51100000000E-03 0.  1.
         12    1    3    3    0    0  0.30595855631E+01 -0.22266731112E+02  0.12089964811E+02  0.25521277934E+02  0.00000000000E+00 0. -1.
</event>
<event>
 7    1  0.2817603E-011  0.5052885E+02  0.7816164E-02  0.1300439E+00
        -11   -1    0    0    0    0  0.00000000000E+00  0.00000000000E+00  0.45593999997E+02  0.45594000000E+02  0.51100000000E-03 0.  1.
         11   -1    0    0    0    0 -0.00000000000E+00 -0.00000000000E+00 -0.45593999997E+02  0.45594000000E+02  0.51100000000E-03 0. -1.
    9900012    2    1    2    0    0 -0.28677593546E+02  0.12416217906E+02 -0.26011521550E+02  0.50528854755E+02  0.29999984515E+02 0.  0.
        -12    1    1    2    0    0  0.28677593546E+02 -0.12416217906E+02  0.26011521550E+02  0.40659145245E+02  0.00000000000E+00 0.  1.
         11    1    3    3    0    0 -0.23661521558E+02  0.18166809738E+02 -0.18920248094E+02  0.35325293583E+02  0.51100000000E-03 0. -1.
        -11    1    3    3    0    0 -0.57957433065E+01  0.15184741473E+01 -0.20884384818E+01  0.63449176326E+01  0.51100000000E-03 0.  1.
        -12    1    3    3    0    0  0.77967131897E+00 -0.72690659798E+01 -0.50028349749E+01  0.88586435401E+01  0.00000000000E+00 0.  1.
</event>
<event>
 7    1  0.2817603E-011  0.5052890E+02  0.7816164E-02  0.1300439E+00
        -11   -1    0    0    0    0  0.00000000000E+00  0.00000000000E+00  0.45593999997E+02  0.45594000000E+02  0.51100000000E-03 0.  1.
         11   -1    0    0    0    0 -0.00000000000E+00 -0.00000000000E+00 -0.45593999997E+02  0.45594000000E+02  0.51100000000E-03 0. -1.
    9900012    2    1    2    0    0  0.16258294851E+01  0.63494552080E+01 -0.40127337242E+02  0.50528903882E+02  0.30000133840E+02 0.  0.
        -12    1    1    2    0    0 -0.16258294851E+01 -0.63494552080E+01  0.40127337242E+02  0.40659096118E+02  0.00000000000E+00 0.  1.
         11    1    3    3    0    0  0.40239279443E+00 -0.17537647507E+01 -0.17529031791E+02  0.17621139763E+02  0.51100000000E-03 0. -1.
        -11    1    3    3    0    0  0.15955876474E+01  0.60895942574E+01 -0.27174594186E+02  0.27894222119E+02  0.51100000000E-03 0.  1.
        -12    1    3    3    0    0 -0.37215095677E+00  0.20136257013E+01  0.45762887350E+01  0.50135420000E+01  0.00000000000E+00 0.  1.
</event>
<event>
 7    1  0.2817603E-011  0.5052886E+02  0.7816164E-02  0.1300439E+00
        -11   -1    0    0    0    0  0.00000000000E+00  0.00000000000E+00  0.45593999997E+02  0.45594000000E+02  0.51100000000E-03 0.  1.
         11   -1    0    0    0    0 -0.00000000000E+00 -0.00000000000E+00 -0.45593999997E+02  0.45594000000E+02  0.51100000000E-03 0. -1.
    9900012    2    1    2    0    0 -0.14715929726E+02  0.34550609911E+02 -0.15584048301E+02  0.50528858416E+02  0.29999995640E+02 0.  0.
        -12    1    1    2    0    0  0.14715929726E+02 -0.34550609911E+02  0.15584048301E+02  0.40659141584E+02  0.00000000000E+00 0.  1.
         11    1    3    3    0    0 -0.21947843491E+01  0.59623971108E+01 -0.85349723355E+01  0.10640160275E+02  0.51100000000E-03 0. -1.
        -11    1    3    3    0    0 -0.42840118975E+01  0.27884304107E+02 -0.11540036532E+02  0.30480479275E+02  0.51100000000E-03 0.  1.
        -12    1    3    3    0    0 -0.82371334798E+01  0.70390869349E+00  0.44909605659E+01  0.94082188653E+01  0.00000000000E+00 0.  1.
</event>
<event>
 7    1  0.2817603E-011  0.5052891E+02  0.7816164E-02  0.1300439E+00
        -11   -1    0    0    0    0  0.00000000000E+00  0.00000000000E+00  0.45593999997E+02  0.45594000000E+02  0.51100000000E-03 0.  1.
         11   -1    0    0    0    0 -0.00000000000E+00 -0.00000000000E+00 -0.45593999997E+02  0.45594000000E+02  0.51100000000E-03 0. -1.
    9900012    2    1    2    0    0 -0.35446251979E+02  0.10467153838E+02 -0.16945900539E+02  0.50528909578E+02  0.30000151153E+02 0.  0.
        -12    1    1    2    0    0  0.35446251979E+02 -0.10467153838E+02  0.16945900539E+02  0.40659090422E+02  0.00000000000E+00 0.  1.
         11    1    3    3    0    0 -0.13402740467E+02  0.25002412908E+01  0.28370545284E+01  0.13926002197E+02  0.51100000000E-03 0. -1.
        -11    1    3    3    0    0 -0.60757301536E+01  0.70811138976E+01  0.20367218056E+01  0.95501260151E+01  0.51100000000E-03 0.  1.
        -12    1    3    3    0    0 -0.15967781359E+02  0.88579864980E+00 -0.21819676873E+02  0.27052781366E+02  0.00000000000E+00 0.  1.
</event>
<event>
 7    1  0.2817603E-011  0.5052885E+02  0.7816164E-02  0.1300439E+00
        -11   -1    0    0    0    0  0.00000000000E+00  0.00000000000E+00  0.45593999997E+02  0.45594000000E+02  0.51100000000E-03 0. -1.
         11   -1    0    0    0    0 -0.00000000000E+00 -0.00000000000E+00 -0.45593999997E+02  0.45594000000E+02  0.51100000000E-03 0.  1.
    9900012    2    1    2    0    0 -0.16930261166E+02  0.36020026081E+02 -0.83120485286E+01  0.50528853762E+02  0.29999981495E+02 0.  0.
        -12    1    1    2    0    0  0.16930261166E+02 -0.36020026081E+02  0.83120485286E+01  0.40659146238E+02  0.00000000000E+00 0.  1.
         11    1    3    3    0    0  0.22995294385E+01  0.15537501152E+01  0.48043461627E+00  0.28165213900E+01  0.51100000000E-03 0. -1.
        -11    1    3    3    0    0 -0.17026179048E+02  0.97015260475E+01  0.36132715128E+01  0.19926517807E+02  0.51100000000E-03 0.  1.
         12    1    3    3    0    0 -0.22036115571E+01  0.24764749919E+02 -0.12405754658E+02  0.27785814565E+02  0.00000000000E+00 0. -1.
</event>
<event>
 7    1  0.2817603E-011  0.5052886E+02  0.7816164E-02  0.1300439E+00
        -11   -1    0    0    0    0  0.00000000000E+00  0.00000000000E+00  0.45593999997E+02  0.45594000000E+02  0.51100000000E-03 0. -1.
         11   -1    0    0    0    0 -0.00000000000E+00 -0.00000000000E+00 -0.45593999997E+02  0.45594000000E+02  0.51100000000E-03 0.  1.
    9900012    2    1    2    0    0 -0.71645456602E+01  0.15182115438E+02  0.37031582858E+02  0.50528862372E+02  0.30000007665E+02 0.  0.
        -12    1    1    2    0    0  0.71645456602E+01 -0.15182115438E+02 -0.37031582858E+02  0.40659137628E+02  0.00000000000E+00 0.  1.
         11    1    3    3    0    0 -0.60783465926E+01 -0.10321882409E+01  0.25284165489E+02  0.26025002105E+02  0.51100000000E-03 0. -1.
        -11    1    3    3    0    0  0.23622761709E+01  0.33057080337E+01  0.10290279832E+02  0.11063359055E+02  0.51100000000E-03 0.  1.
        -12    1    3    3    0    0 -0.34484752384E+01  0.12908595645E+02  0.14571375378E+01  0.13440501211E+02  0.00000000000E+00 0.  1.
</event>
<event>
 7    1  0.2817603E-011  0.5052881E+02  0.7816164E-02  0.1300439E+00
        -11   -1    0    0    0    0  0.00000000000E+00  0.00000000000E+00  0.45593999997E+02  0.45594000000E+02  0.51100000000E-03 0. -1.
         11   -1    0    0    0    0 -0.00000000000E+00 -0.00000000000E+00 -0.45593999997E+02  0.45594000000E+02  0.51100000000E-03 0.  1.
    9900012    2    1    2    0    0 -0.13473086876E+02  0.93336355867E+01  0.37209261812E+02  0.50528806847E+02  0.29999838893E+02 0.  0.
        -12    1    1    2    0    0  0.13473086876E+02 -0.93336355867E+01 -0.37209261812E+02  0.40659193153E+02  0.00000000000E+00 0.  1.
         11    1    3    3    0    0 -0.95552743311E+01 -0.24416482836E+01  0.15173135445E+02  0.18096655862E+02  0.51100000000E-03 0.  1.
        -11    1    3    3    0    0 -0.69742722319E+00 -0.56977075744E+01  0.33443390865E+01  0.66434088028E+01  0.51100000000E-03 0. -1.
         12    1    3    3    0    0 -0.32203853219E+01  0.17472991445E+02  0.18691787280E+02  0.25788742183E+02  0.00000000000E+00 0. -1.
</event>
<event>
 7    1  0.2817603E-011  0.5052886E+02  0.7816164E-02  0.1300439E+00
        -11   -1    0    0    0    0  0.00000000000E+00  0.00000000000E+00  0.45593999997E+02  0.45594000000E+02  0.51100000000E-03 0.  1.
         11   -1    0    0    0    0 -0.00000000000E+00 -0.00000000000E+00 -0.45593999997E+02  0.45594000000E+02  0.51100000000E-03 0. -1.
    9900012    2    1    2    0    0 -0.32628083200E+01 -0.62642218215E+00 -0.40523171083E+02  0.50528859360E+02  0.29999998512E+02 0.  0.
        -12    1    1    2    0    0  0.32628083200E+01  0.62642218215E+00  0.40523171083E+02  0.40659140640E+02  0.00000000000E+00 0.  1.
         11    1    3    3    0    0  0.42185506451E+01 -0.93786179752E+01 -0.50201405201E+01  0.11443620746E+02  0.51100000000E-03 0. -1.
        -11    1    3    3    0    0  0.16625869512E+01 -0.12509123430E+01 -0.99021627849E+01  0.10118389454E+02  0.51100000000E-03 0.  1.
         12    1    3    3    0    0 -0.91439459163E+01  0.10003108136E+02 -0.25600867778E+02  0.28966849161E+02  0.00000000000E+00 0. -1.
</event>
<event>
 7    1  0.2817603E-011  0.5052886E+02  0.7816164E-02  0.1300439E+00
        -11   -1    0    0    0    0  0.00000000000E+00  0.00000000000E+00  0.45593999997E+02  0.45594000000E+02  0.51100000000E-03 0.  1.
         11   -1    0    0    0    0 -0.00000000000E+00 -0.00000000000E+00 -0.45593999997E+02  0.45594000000E+02  0.51100000000E-03 0. -1.
    9900012    2    1    2    0    0 -0.23997899000E+02 -0.85942753753E+01 -0.31676567739E+02  0.50528859953E+02  0.30000000313E+02 0.  0.
        -12    1    1    2    0    0  0.23997899000E+02  0.85942753753E+01  0.31676567739E+02  0.40659140047E+02  0.00000000000E+00 0.  1.
         11    1    3    3    0    0 -0.60745101533E+01  0.25587730426E+01  0.17156894281E+01  0.68110633209E+01  0.51100000000E-03 0.  1.
        -11    1    3    3    0    0 -0.15624133040E+02 -0.10264537177E+02 -0.12066985724E+02  0.22250537104E+02  0.51100000000E-03 0. -1.
         12    1    3    3    0    0 -0.22992558069E+01 -0.88851124093E+00 -0.21325271443E+02  0.21467259528E+02  0.00000000000E+00 0. -1.
</event>
<event>
 7    1  0.2817603E-011  0.5052885E+02  0.7816164E-02  0.1300439E+00
        -11   -1    0    0    0    0  0.00000000000E+00  0.00000000000E+00  0.45593999997E+02  0.45594000000E+02  0.51100000000E-03 0.  1.
         11   -1    0    0    0    0 -0.00000000000E+00 -0.00000000000E+00 -0.45593999997E+02  0.45594000000E+02  0.51100000000E-03 0. -1.
    9900012    2    1    2    0    0  0.35166014544E+01  0.20893260115E+01 -0.40452866145E+02  0.50528854063E+02  0.29999982411E+02 0.  0.
        -12    1    1    2    0    0 -0.35166014544E+01 -0.20893260115E+01  0.40452866145E+02  0.40659145937E+02  0.00000000000E+00 0.  1.
         11    1    3    3    0    0  0.44135822195E+01 -0.56793899062E+01 -0.21931535115E+02  0.23080888425E+02  0.51100000000E-03 0. -1.
        -11    1    3    3    0    0 -0.25693488518E+01  0.61976091778E+01 -0.22156040651E+02  0.23149558325E+02  0.51100000000E-03 0.  1.
        -12    1    3    3    0    0  0.16723680867E+01  0.15711067399E+01  0.36347096211E+01  0.42984073138E+01  0.00000000000E+00 0.  1.
</event>
<event>
 7    1  0.2817603E-011  0.5052887E+02  0.7816164E-02  0.1300439E+00
        -11   -1    0    0    0    0  0.00000000000E+00  0.00000000000E+00  0.45593999997E+02  0.45594000000E+02  0.51100000000E-03 0.  1.
         11   -1    0    0    0    0 -0.00000000000E+00 -0.00000000000E+00 -0.45593999997E+02  0.45594000000E+02  0.51100000000E-03 0. -1.
    9900012    2    1    2    0    0  0.29424909050E+02 -0.13446721736E+02 -0.24627735323E+02  0.50528868858E+02  0.30000027381E+02 0.  0.
        -12    1    1    2    0    0 -0.29424909050E+02  0.13446721736E+02  0.24627735323E+02  0.40659131142E+02  0.00000000000E+00 0.  1.
         11    1    3    3    0    0  0.26772453819E+02 -0.15482931197E+02 -0.16158369067E+02  0.34893815112E+02  0.51100000000E-03 0. -1.
        -11    1    3    3    0    0  0.58342260249E+01 -0.30337492076E+01 -0.21201420257E+01  0.69091844696E+01  0.51100000000E-03 0.  1.
         12    1    3    3    0    0 -0.31817707933E+01  0.50699586691E+01 -0.63492242312E+01  0.87258692762E+01  0.00000000000E+00 0. -1.
</event>
<event>
 7    1  0.2817603E-011  0.5052885E+02  0.7816164E-02  0.1300439E+00
        -11   -1    0    0    0    0  0.00000000000E+00  0.00000000000E+00  0.45593999997E+02  0.45594000000E+02  0.51100000000E-03 0.  1.
         11   -1    0    0    0    0 -0.00000000000E+00 -0.00000000000E+00 -0.45593999997E+02  0.45594000000E+02  0.51100000000E-03 0. -1.
    9900012    2    1    2    0    0 -0.23922217810E+02  0.53064531663E+01 -0.32445880535E+02  0.50528854487E+02  0.29999983698E+02 0.  0.
        -12    1    1    2    0    0  0.23922217810E+02 -0.53064531663E+01  0.32445880535E+02  0.40659145513E+02  0.00000000000E+00 0.  1.
         11    1    3    3    0    0 -0.16566876266E+01  0.69645392126E+01 -0.10076095211E+02  0.12360304013E+02  0.51100000000E-03 0. -1.
        -11    1    3    3    0    0  0.39013849972E+01  0.50577610110E+00 -0.61682547487E+01  0.73160085612E+01  0.51100000000E-03 0.  1.
        -12    1    3    3    0    0 -0.26166915181E+02 -0.21638621473E+01 -0.16201530575E+02  0.30852541913E+02  0.00000000000E+00 0.  1.
</event>
<event>
 7    1  0.2817603E-011  0.5052886E+02  0.7816164E-02  0.1300439E+00
        -11   -1    0    0    0    0  0.00000000000E+00  0.00000000000E+00  0.45593999997E+02  0.45594000000E+02  0.51100000000E-03 0.  1.
         11   -1    0    0    0    0 -0.00000000000E+00 -0.00000000000E+00 -0.45593999997E+02  0.45594000000E+02  0.51100000000E-03 0. -1.
    9900012    2    1    2    0    0  0.32058640207E+02  0.82382517837E+01 -0.23612300939E+02  0.50528856379E+02  0.29999989449E+02 0.  0.
        -12    1    1    2    0    0 -0.32058640207E+02 -0.82382517837E+01  0.23612300939E+02  0.40659143621E+02  0.00000000000E+00 0.  1.
         11    1    3    3    0    0 -0.30296263336E+01  0.15315920423E+00  0.13644689982E+01  0.33262395241E+01  0.51100000000E-03 0.  1.
        -11    1    3    3    0    0  0.77286580184E+01 -0.24613110915E+01 -0.13429497037E+02  0.15688900471E+02  0.51100000000E-03 0. -1.
        -12    1    3    3    0    0  0.27359608522E+02  0.10546403671E+02 -0.11547272900E+02  0.31513716384E+02  0.00000000000E+00 0.  1.
</event>
<event>
 7    1  0.2817603E-011  0.5052890E+02  0.7816164E-02  0.1300439E+00
        -11   -1    0    0    0    0  0.00000000000E+00  0.00000000000E+00  0.45593999997E+02  0.45594000000E+02  0.51100000000E-03 0.  1.
         11   -1    0    0    0    0 -0.00000000000E+00 -0.00000000000E+00 -0.45593999997E+02  0.45594000000E+02  0.51100000000E-03 0. -1.
    9900012    2    1    2    0    0 -0.33246391808E+02 -0.22361957504E+02 -0.69124872721E+01  0.50528902717E+02  0.30000130297E+02 0.  0.
        -12    1    1    2    0    0  0.33246391808E+02  0.22361957504E+02  0.69124872721E+01  0.40659097283E+02  0.00000000000E+00 0.  1.
         11    1    3    3    0    0  0.11956514687E+01 -0.10197550211E+00 -0.49650228233E+01  0.51079774211E+01  0.51100000000E-03 0. -1.
        -11    1    3    3    0    0 -0.18708768531E+02 -0.16130582672E+02 -0.10079351833E+02  0.26679712347E+02  0.51100000000E-03 0.  1.
        -12    1    3    3    0    0 -0.15733274745E+02 -0.61293993294E+01  0.81318873841E+01  0.18741212948E+02  0.00000000000E+00 0.  1.
</event>
<event>
 7    1  0.2817603E-011  0.5052886E+02  0.7816164E-02  0.1300439E+00
        -11   -1    0    0    0    0  0.00000000000E+00  0.00000000000E+00  0.45593999997E+02  0.45594000000E+02  0.51100000000E-03 0.  1.
         11   -1    0    0    0    0 -0.00000000000E+00 -0.00000000000E+00 -0.45593999997E+02  0.45594000000E+02  0.51100000000E-03 0. -1.
    9900012    2    1    2    0    0  0.31578965244E+02  0.20058644968E+02 -0.15924359887E+02  0.50528861769E+02  0.30000005834E+02 0.  0.
        -12    1    1    2    0    0 -0.31578965244E+02 -0.20058644968E+02  0.15924359887E+02  0.40659138231E+02  0.00000000000E+00 0.  1.
         11    1    3    3    0    0  0.96630411094E+01  0.75489270569E+01 -0.68019143003E+01  0.14022364337E+02  0.51100000000E-03 0. -1.
        -11    1    3    3    0    0  0.23316918329E+02  0.13302855543E+02 -0.14765950862E+02  0.30637851607E+02  0.51100000000E-03 0.  1.
        -12    1    3    3    0    0 -0.14009941943E+01 -0.79313763154E+00  0.56435052750E+01  0.58686458254E+01  0.00000000000E+00 0.  1.
</event>
<event>
 7    1  0.2817603E-011  0.5052888E+02  0.7816164E-02  0.1300439E+00
        -11   -1    0    0    0    0  0.00000000000E+00  0.00000000000E+00  0.45593999997E+02  0.45594000000E+02  0.51100000000E-03 0.  1.
         11   -1    0    0    0    0 -0.00000000000E+00 -0.00000000000E+00 -0.45593999997E+02  0.45594000000E+02  0.51100000000E-03 0. -1.
    9900012    2    1    2    0    0  0.20369045908E+02  0.67016690768E+01  0.34544952574E+02  0.50528878662E+02  0.30000057182E+02 0.  0.
        -12    1    1    2    0    0 -0.20369045908E+02 -0.67016690768E+01 -0.34544952574E+02  0.40659121338E+02  0.00000000000E+00 0.  1.
         11    1    3    3    0    0  0.10600166528E+02 -0.36120999250E+00 -0.22875267371E+00  0.10608785564E+02  0.51100000000E-03 0. -1.
        -11    1    3    3    0    0  0.13836032157E+02  0.45638965726E+01  0.23132709014E+02  0.27338382621E+02  0.51100000000E-03 0.  1.
        -12    1    3    3    0    0 -0.40671527767E+01  0.24989824967E+01  0.11640996234E+02  0.12581710477E+02  0.00000000000E+00 0.  1.
</event>
<event>
 7    1  0.2817603E-011  0.5052886E+02  0.7816164E-02  0.1300439E+00
        -11   -1    0    0    0    0  0.00000000000E+00  0.00000000000E+00  0.45593999997E+02  0.45594000000E+02  0.51100000000E-03 0.  1.
         11   -1    0    0    0    0 -0.00000000000E+00 -0.00000000000E+00 -0.45593999997E+02  0.45594000000E+02  0.51100000000E-03 0. -1.
    9900012    2    1    2    0    0 -0.42968888383E+01  0.12562668815E+02 -0.38430218028E+02  0.50528861309E+02  0.30000004434E+02 0.  0.
        -12    1    1    2    0    0  0.42968888383E+01 -0.12562668815E+02  0.38430218028E+02  0.40659138691E+02  0.00000000000E+00 0.  1.
         11    1    3    3    0    0 -0.76420946435E+01  0.10790442494E+02 -0.33513904356E+02  0.36028003625E+02  0.51100000000E-03 0. -1.
        -11    1    3    3    0    0 -0.18467256438E+01  0.56036759197E+01  0.70627534206E+00  0.59422558458E+01  0.51100000000E-03 0.  1.
         12    1    3    3    0    0  0.51919314489E+01 -0.38314495991E+01 -0.56225890140E+01  0.85586018380E+01  0.00000000000E+00 0. -1.
</event>
<event>
 7    1  0.2817603E-011  0.5052886E+02  0.7816164E-02  0.1300439E+00
        -11   -1    0    0    0    0  0.00000000000E+00  0.00000000000E+00  0.45593999997E+02  0.45594000000E+02  0.51100000000E-03 0.  1.
         11   -1    0    0    0    0 -0.00000000000E+00 -0.00000000000E+00 -0.45593999997E+02  0.45594000000E+02  0.51100000000E-03 0. -1.
    9900012    2    1    2    0    0  0.96968366668E+01 -0.27406549499E+02 -0.28425658775E+02  0.50528859901E+02  0.30000000155E+02 0.  0.
        -12    1    1    2    0    0 -0.96968366668E+01  0.27406549499E+02  0.28425658775E+02  0.40659140099E+02  0.00000000000E+00 0.  1.
         11    1    3    3    0    0 -0.19442518862E+01  0.12741950517E+01 -0.11732562746E+02  0.11960631977E+02  0.51100000000E-03 0. -1.
        -11    1    3    3    0    0 -0.57745630204E+00  0.98551383506E+00 -0.38386761244E+01  0.40050128526E+01  0.51100000000E-03 0.  1.
        -12    1    3    3    0    0  0.12218544855E+02 -0.29666258386E+02 -0.12854419905E+02  0.34563215072E+02  0.00000000000E+00 0.  1.
</event>
<event>
 7    1  0.2817603E-011  0.5052886E+02  0.7816164E-02  0.1300439E+00
        -11   -1    0    0    0    0  0.00000000000E+00  0.00000000000E+00  0.45593999997E+02  0.45594000000E+02  0.51100000000E-03 0.  1.
         11   -1    0    0    0    0 -0.00000000000E+00 -0.00000000000E+00 -0.45593999997E+02  0.45594000000E+02  0.51100000000E-03 0. -1.
    9900012    2    1    2    0    0  0.20729424829E+02 -0.12322684453E+02 -0.32735420139E+02  0.50528864034E+02  0.30000012717E+02 0.  0.
        -12    1    1    2    0    0 -0.20729424829E+02  0.12322684453E+02  0.32735420139E+02  0.40659135966E+02  0.00000000000E+00 0.  1.
         11    1    3    3    0    0 -0.73162120063E+00  0.25549339370E+01  0.13785020586E+01  0.29938645912E+01  0.51100000000E-03 0. -1.
        -11    1    3    3    0    0  0.23372109648E+01 -0.29811557705E+01  0.25070879212E+01  0.45426132267E+01  0.51100000000E-03 0.  1.
        -12    1    3    3    0    0  0.19123835064E+02 -0.11896462619E+02 -0.36621010119E+02  0.42992386216E+02  0.00000000000E+00 0.  1.
</event>
<event>
 7    1  0.2817603E-011  0.5052888E+02  0.7816164E-02  0.1300439E+00
        -11   -1    0    0    0    0  0.00000000000E+00  0.00000000000E+00  0.45593999997E+02  0.45594000000E+02  0.51100000000E-03 0.  1.
         11   -1    0    0    0    0 -0.00000000000E+00 -0.00000000000E+00 -0.45593999997E+02  0.45594000000E+02  0.51100000000E-03 0. -1.
    9900012    2    1    2    0    0  0.97949445278E+01  0.23598118283E+01 -0.39391047101E+02  0.50528877507E+02  0.30000053670E+02 0.  0.
        -12    1    1    2    0    0 -0.97949445278E+01 -0.23598118283E+01  0.39391047101E+02  0.40659122493E+02  0.00000000000E+00 0.  1.
         11    1    3    3    0    0 -0.22874339542E+01 -0.70263744186E-01  0.22907925646E+01  0.32380583571E+01  0.51100000000E-03 0. -1.
        -11    1    3    3    0    0  0.20867294308E+01  0.61705400865E+01 -0.30143354861E+01  0.71774802932E+01  0.51100000000E-03 0.  1.
         12    1    3    3    0    0  0.99956490512E+01 -0.37404645140E+01 -0.38667504180E+02  0.40113338857E+02  0.00000000000E+00 0. -1.
</event>
<event>
 7    1  0.2892125E-011  0.5052886E+02  0.7816164E-02  0.1300439E+00
        -11   -1    0    0    0    0  0.00000000000E+00  0.00000000000E+00  0.45593999997E+02  0.45594000000E+02  0.51100000000E-03 0. -1.
         11   -1    0    0    0    0 -0.00000000000E+00 -0.00000000000E+00 -0.45593999997E+02  0.45594000000E+02  0.51100000000E-03 0.  1.
    9900012    2    1    2    0    0 -0.19843512706E+02 -0.30992311053E+02  0.17288077931E+02  0.50528856139E+02  0.29999988721E+02 0.  0.
        -12    1    1    2    0    0  0.19843512706E+02  0.30992311053E+02 -0.17288077931E+02  0.40659143861E+02  0.00000000000E+00 0.  1.
         11    1    3    3    0    0 -0.11377686486E+02 -0.15351230740E+02  0.10655088365E+02  0.21877909940E+02  0.51100000000E-03 0. -1.
        -11    1    3    3    0    0 -0.93611706552E+01 -0.43936037282E+01  0.12263137080E+02  0.16041190762E+02  0.51100000000E-03 0.  1.
        -12    1    3    3    0    0  0.89534443581E+00 -0.11247476585E+02 -0.56301475129E+01  0.12609755438E+02  0.00000000000E+00 0.  1.
</event>
<event>
 7    1  0.2817603E-011  0.5052885E+02  0.7816164E-02  0.1300439E+00
        -11   -1    0    0    0    0  0.00000000000E+00  0.00000000000E+00  0.45593999997E+02  0.45594000000E+02  0.51100000000E-03 0.  1.
         11   -1    0    0    0    0 -0.00000000000E+00 -0.00000000000E+00 -0.45593999997E+02  0.45594000000E+02  0.51100000000E-03 0. -1.
    9900012    2    1    2    0    0  0.54916164107E+01 -0.21745143139E+02 -0.33913968658E+02  0.50528851324E+02  0.29999974085E+02 0.  0.
        -12    1    1    2    0    0 -0.54916164107E+01  0.21745143139E+02  0.33913968658E+02  0.40659148676E+02  0.00000000000E+00 0.  1.
         11    1    3    3    0    0  0.56274896183E+01 -0.19498655298E+02 -0.21931213917E+02  0.29880501032E+02  0.51100000000E-03 0. -1.
        -11    1    3    3    0    0  0.81652537089E+01  0.43049582866E-01 -0.65377593681E+01  0.10460187341E+02  0.51100000000E-03 0.  1.
         12    1    3    3    0    0 -0.83011269165E+01 -0.22895374236E+01 -0.54449953729E+01  0.10188162951E+02  0.00000000000E+00 0. -1.
</event>
<event>
 7    1  0.2817603E-011  0.5052886E+02  0.7816164E-02  0.1300439E+00
        -11   -1    0    0    0    0  0.00000000000E+00  0.00000000000E+00  0.45593999997E+02  0.45594000000E+02  0.51100000000E-03 0.  1.
         11   -1    0    0    0    0 -0.00000000000E+00 -0.00000000000E+00 -0.45593999997E+02  0.45594000000E+02  0.51100000000E-03 0. -1.
    9900012    2    1    2    0    0  0.16998454941E+01  0.11860708220E+02 -0.38853570218E+02  0.50528858435E+02  0.29999995698E+02 0.  0.
        -12    1    1    2    0    0 -0.16998454941E+01 -0.11860708220E+02  0.38853570218E+02  0.40659141565E+02  0.00000000000E+00 0.  1.
         11    1    3    3    0    0  0.78790495052E-01 -0.31922724714E+01 -0.15819825552E+02  0.16138887577E+02  0.51100000000E-03 0. -1.
        -11    1    3    3    0    0  0.16831797215E+01  0.82806802980E-01  0.35224785948E+01  0.39048439986E+01  0.51100000000E-03 0.  1.
         12    1    3    3    0    0 -0.62124722485E-01  0.14970173889E+02 -0.26556223261E+02  0.30485126859E+02  0.00000000000E+00 0. -1.
</event>
<event>
 7    1  0.2817603E-011  0.5052887E+02  0.7816164E-02  0.1300439E+00
        -11   -1    0    0    0    0  0.00000000000E+00  0.00000000000E+00  0.45593999997E+02  0.45594000000E+02  0.51100000000E-03 0.  1.
         11   -1    0    0    0    0 -0.00000000000E+00 -0.00000000000E+00 -0.45593999997E+02  0.45594000000E+02  0.51100000000E-03 0. -1.
    9900012    2    1    2    0    0 -0.64853736022E+01  0.75838773021E+01 -0.39415598087E+02  0.50528872633E+02  0.30000038855E+02 0.  0.
        -12    1    1    2    0    0  0.64853736022E+01 -0.75838773021E+01  0.39415598087E+02  0.40659127367E+02  0.00000000000E+00 0.  1.
         11    1    3    3    0    0  0.16855265032E+01  0.21346973617E+01 -0.49292095450E+01  0.56298347594E+01  0.51100000000E-03 0. -1.
        -11    1    3    3    0    0 -0.18087453235E-01 -0.10655028735E+02 -0.14035112970E+02  0.17621417674E+02  0.51100000000E-03 0.  1.
         12    1    3    3    0    0 -0.81528126522E+01  0.16104208676E+02 -0.20451275572E+02  0.27277620199E+02  0.00000000000E+00 0. -1.
</event>
<event>
 7    1  0.2817603E-011  0.5052886E+02  0.7816164E-02  0.1300439E+00
        -11   -1    0    0    0    0  0.00000000000E+00  0.00000000000E+00  0.45593999997E+02  0.45594000000E+02  0.51100000000E-03 0.  1.
         11   -1    0    0    0    0 -0.00000000000E+00 -0.00000000000E+00 -0.45593999997E+02  0.45594000000E+02  0.51100000000E-03 0. -1.
    9900012    2    1    2    0    0  0.38877838353E+02  0.78090826187E+01 -0.89831784683E+01  0.50528861031E+02  0.30000003589E+02 0.  0.
        -12    1    1    2    0    0 -0.38877838353E+02 -0.78090826187E+01  0.89831784683E+01  0.40659138969E+02  0.00000000000E+00 0.  1.
         11    1    3    3    0    0  0.14367667447E+01  0.23034329133E+01  0.14315922381E+01  0.30691299194E+01  0.51100000000E-03 0. -1.
        -11    1    3    3    0    0  0.11589493407E+02  0.12103644433E+02  0.38663112291E+01  0.17197759412E+02  0.51100000000E-03 0.  1.
         12    1    3    3    0    0  0.25851578201E+02 -0.65979947278E+01 -0.14281081936E+02  0.30261971700E+02  0.00000000000E+00 0. -1.
</event>
<event>
 7    1  0.2817603E-011  0.5052886E+02  0.7816164E-02  0.1300439E+00
        -11   -1    0    0    0    0  0.00000000000E+00  0.00000000000E+00  0.45593999997E+02  0.45594000000E+02  0.51100000000E-03 0.  1.
         11   -1    0    0    0    0 -0.00000000000E+00 -0.00000000000E+00 -0.45593999997E+02  0.45594000000E+02  0.51100000000E-03 0. -1.
    9900012    2    1    2    0    0  0.11124544540E+02 -0.36426222622E+02 -0.14231666557E+02  0.50528861806E+02  0.30000005944E+02 0.  0.
        -12    1    1    2    0    0 -0.11124544540E+02  0.36426222622E+02  0.14231666557E+02  0.40659138194E+02  0.00000000000E+00 0.  1.
         11    1    3    3    0    0  0.20377873846E+01 -0.11032133460E+01  0.98147410793E+00  0.25165350777E+01  0.51100000000E-03 0.  1.
        -11    1    3    3    0    0 -0.90628540691E+01 -0.19285880217E+02 -0.66329670307E+01  0.22317633197E+02  0.51100000000E-03 0. -1.
         12    1    3    3    0    0  0.18149611225E+02 -0.16037129059E+02 -0.85801736342E+01  0.25694693531E+02  0.00000000000E+00 0. -1.
</event>
<event>
 7    1  0.2817603E-011  0.5052886E+02  0.7816164E-02  0.1300439E+00
        -11   -1    0    0    0    0  0.00000000000E+00  0.00000000000E+00  0.45593999997E+02  0.45594000000E+02  0.51100000000E-03 0.  1.
         11   -1    0    0    0    0 -0.00000000000E+00 -0.00000000000E+00 -0.45593999997E+02  0.45594000000E+02  0.51100000000E-03 0. -1.
    9900012    2    1    2    0    0 -0.17206193249E+02  0.22407197321E+02 -0.29240897984E+02  0.50528859665E+02  0.29999999437E+02 0.  0.
        -12    1    1    2    0    0  0.17206193249E+02 -0.22407197321E+02  0.29240897984E+02  0.40659140335E+02  0.00000000000E+00 0.  1.
         11    1    3    3    0    0 -0.90811644772E+01  0.15251855414E+01 -0.53369468867E+01  0.10643154679E+02  0.51100000000E-03 0. -1.
        -11    1    3    3    0    0 -0.13667893010E+02  0.10843856423E+02 -0.22289379819E+02  0.28305776343E+02  0.51100000000E-03 0.  1.
        -12    1    3    3    0    0  0.55428642383E+01  0.10038155357E+02 -0.16145712788E+01  0.11579928642E+02  0.00000000000E+00 0.  1.
</event>
<event>
 7    1  0.2817603E-011  0.5052887E+02  0.7816164E-02  0.1300439E+00
        -11   -1    0    0    0    0  0.00000000000E+00  0.00000000000E+00  0.45593999997E+02  0.45594000000E+02  0.51100000000E-03 0.  1.
         11   -1    0    0    0    0 -0.00000000000E+00 -0.00000000000E+00 -0.45593999997E+02  0.45594000000E+02  0.51100000000E-03 0. -1.
    9900012    2    1    2    0    0 -0.35970349535E+02  0.13472647118E+02 -0.13333675991E+02  0.50528865953E+02  0.30000018551E+02 0.  0.
        -12    1    1    2    0    0  0.35970349535E+02 -0.13472647118E+02  0.13333675991E+02  0.40659134047E+02  0.00000000000E+00 0.  1.
         11    1    3    3    0    0 -0.29655045162E+01 -0.41176324569E+00  0.62845544706E+01  0.69612779834E+01  0.51100000000E-03 0. -1.
        -11    1    3    3    0    0 -0.70943583269E+01  0.36311739547E+01  0.20960244352E+01  0.82406712745E+01  0.51100000000E-03 0.  1.
         12    1    3    3    0    0 -0.25910486692E+02  0.10253236409E+02 -0.21714254897E+02  0.35326916695E+02  0.00000000000E+00 0. -1.
</event>
<event>
 7    1  0.2817603E-011  0.5052886E+02  0.7816164E-02  0.1300439E+00
        -11   -1    0    0    0    0  0.00000000000E+00  0.00000000000E+00  0.45593999997E+02  0.45594000000E+02  0.51100000000E-03 0.  1.
         11   -1    0    0    0    0 -0.00000000000E+00 -0.00000000000E+00 -0.45593999997E+02  0.45594000000E+02  0.51100000000E-03 0. -1.
    9900012    2    1    2    0    0 -0.11762459891E+02  0.51252495390E+01 -0.38581624276E+02  0.50528863544E+02  0.30000011230E+02 0.  0.
        -12    1    1    2    0    0  0.11762459891E+02 -0.51252495390E+01  0.38581624276E+02  0.40659136456E+02  0.00000000000E+00 0.  1.
         11    1    3    3    0    0 -0.12878894656E+02  0.35681620869E+01 -0.28638608448E+02  0.31603284676E+02  0.51100000000E-03 0. -1.
        -11    1    3    3    0    0 -0.74017280061E+01  0.90207716753E-01 -0.37937172718E+01  0.83178125674E+01  0.51100000000E-03 0.  1.
        -12    1    3    3    0    0  0.85181627710E+01  0.14668797353E+01 -0.61492985564E+01  0.10607766301E+02  0.00000000000E+00 0.  1.
</event>
<event>
 7    1  0.2817603E-011  0.5052886E+02  0.7816164E-02  0.1300439E+00
        -11   -1    0    0    0    0  0.00000000000E+00  0.00000000000E+00  0.45593999997E+02  0.45594000000E+02  0.51100000000E-03 0.  1.
         11   -1    0    0    0    0 -0.00000000000E+00 -0.00000000000E+00 -0.45593999997E+02  0.45594000000E+02  0.51100000000E-03 0. -1.
    9900012    2    1    2    0    0 -0.16629135002E+02  0.36783443206E+02  0.48596108260E+01  0.50528860285E+02  0.30000001322E+02 0.  0.
        -12    1    1    2    0    0  0.16629135002E+02 -0.36783443206E+02 -0.48596108260E+01  0.40659139715E+02  0.00000000000E+00 0.  1.
         11    1    3    3    0    0 -0.61904235401E+01  0.32144146588E+02  0.95301530410E+01  0.34093860455E+02  0.51100000000E-03 0. -1.
        -11    1    3    3    0    0 -0.72931553680E+01  0.25026705798E+01  0.26767452404E+01  0.81620120434E+01  0.51100000000E-03 0.  1.
        -12    1    3    3    0    0 -0.31455560934E+01  0.21366260379E+01 -0.73472874553E+01  0.82729877864E+01  0.00000000000E+00 0.  1.
</event>
<event>
 7    1  0.2817603E-011  0.5052887E+02  0.7816164E-02  0.1300439E+00
        -11   -1    0    0    0    0  0.00000000000E+00  0.00000000000E+00  0.45593999997E+02  0.45594000000E+02  0.51100000000E-03 0. -1.
         11   -1    0    0    0    0 -0.00000000000E+00 -0.00000000000E+00 -0.45593999997E+02  0.45594000000E+02  0.51100000000E-03 0.  1.
    9900012    2    1    2    0    0  0.94029945288E+00 -0.40478966630E+02  0.37059811310E+01  0.50528865742E+02  0.30000017909E+02 0.  0.
        -12    1    1    2    0    0 -0.94029945288E+00  0.40478966630E+02 -0.37059811310E+01  0.40659134258E+02  0.00000000000E+00 0.  1.
         11    1    3    3    0    0  0.47763001886E+00 -0.20727473815E+01  0.35588715146E+01  0.41460799391E+01  0.51100000000E-03 0. -1.
        -11    1    3    3    0    0  0.70041554408E+01 -0.28732521305E+02  0.98801908891E+01  0.31180669432E+02  0.51100000000E-03 0.  1.
        -12    1    3    3    0    0 -0.65414860068E+01 -0.96736979434E+01 -0.97330812727E+01  0.15202116370E+02  0.00000000000E+00 0.  1.
</event>
<event>
 7    1  0.2817603E-011  0.5052884E+02  0.7816164E-02  0.1300439E+00
        -11   -1    0    0    0    0  0.00000000000E+00  0.00000000000E+00  0.45593999997E+02  0.45594000000E+02  0.51100000000E-03 0.  1.
         11   -1    0    0    0    0 -0.00000000000E+00 -0.00000000000E+00 -0.45593999997E+02  0.45594000000E+02  0.51100000000E-03 0. -1.
    9900012    2    1    2    0    0 -0.24827987328E+02  0.57135938474E+01 -0.31687426911E+02  0.50528841946E+02  0.29999945580E+02 0.  0.
        -12    1    1    2    0    0  0.24827987328E+02 -0.57135938474E+01  0.31687426911E+02  0.40659158054E+02  0.00000000000E+00 0.  1.
         11    1    3    3    0    0 -0.16053353848E+02  0.84135923874E+01 -0.32302742679E+02  0.37040057930E+02  0.51100000000E-03 0. -1.
        -11    1    3    3    0    0 -0.77410071552E+00 -0.13327190712E+01 -0.39051821285E+01  0.41983115366E+01  0.51100000000E-03 0.  1.
        -12    1    3    3    0    0 -0.80005327648E+01 -0.13672794687E+01  0.45204978963E+01  0.92904724798E+01  0.00000000000E+00 0.  1.
</event>
<event>
 7    1  0.2817603E-011  0.5052886E+02  0.7816164E-02  0.1300439E+00
        -11   -1    0    0    0    0  0.00000000000E+00  0.00000000000E+00  0.45593999997E+02  0.45594000000E+02  0.51100000000E-03 0. -1.
         11   -1    0    0    0    0 -0.00000000000E+00 -0.00000000000E+00 -0.45593999997E+02  0.45594000000E+02  0.51100000000E-03 0.  1.
    9900012    2    1    2    0    0 -0.34270228728E+02  0.14584250825E+02 -0.16310015315E+02  0.50528861436E+02  0.30000004820E+02 0.  0.
        -12    1    1    2    0    0  0.34270228728E+02 -0.14584250825E+02  0.16310015315E+02  0.40659138564E+02  0.00000000000E+00 0.  1.
         11    1    3    3    0    0 -0.42487985828E+01 -0.35470594876E+01 -0.46019543225E+01  0.71980486421E+01  0.51100000000E-03 0. -1.
        -11    1    3    3    0    0 -0.20519569877E+02 -0.47509334332E+00 -0.32016697472E+01  0.20773279737E+02  0.51100000000E-03 0.  1.
        -12    1    3    3    0    0 -0.95018602684E+01  0.18606403656E+02 -0.85063912457E+01  0.22557533056E+02  0.00000000000E+00 0.  1.
</event>
<event>
 7    1  0.2817603E-011  0.5052886E+02  0.7816164E-02  0.1300439E+00
        -11   -1    0    0    0    0  0.00000000000E+00  0.00000000000E+00  0.45593999997E+02  0.45594000000E+02  0.51100000000E-03 0. -1.
         11   -1    0    0    0    0 -0.00000000000E+00 -0.00000000000E+00 -0.45593999997E+02  0.45594000000E+02  0.51100000000E-03 0.  1.
    9900012    2    1    2    0    0  0.24379621253E+02 -0.22496447848E+02 -0.23509767712E+02  0.50528864789E+02  0.30000015012E+02 0.  0.
        -12    1    1    2    0    0 -0.24379621253E+02  0.22496447848E+02  0.23509767712E+02  0.40659135211E+02  0.00000000000E+00 0.  1.
         11    1    3    3    0    0  0.94099253553E+01 -0.86755879946E+01 -0.69688392503E+01  0.14573168599E+02  0.51100000000E-03 0. -1.
        -11    1    3    3    0    0  0.18030334974E+02 -0.16394616410E+02 -0.66103997407E+01  0.25250223989E+02  0.51100000000E-03 0.  1.
        -12    1    3    3    0    0 -0.30606390766E+01  0.25737565562E+01 -0.99305287213E+01  0.10705472201E+02  0.00000000000E+00 0.  1.
</event>
<event>
 7    1  0.2817603E-011  0.5052886E+02  0.7816164E-02  0.1300439E+00
        -11   -1    0    0    0    0  0.00000000000E+00  0.00000000000E+00  0.45593999997E+02  0.45594000000E+02  0.51100000000E-03 0. -1.
         11   -1    0    0    0    0 -0.00000000000E+00 -0.00000000000E+00 -0.45593999997E+02  0.45594000000E+02  0.51100000000E-03 0.  1.
    9900012    2    1    2    0    0  0.17918265845E+02 -0.28896767485E+02 -0.22295252584E+02  0.50528859456E+02  0.29999998803E+02 0.  0.
        -12    1    1    2    0    0 -0.17918265845E+02  0.28896767485E+02  0.22295252584E+02  0.40659140544E+02  0.00000000000E+00 0.  1.
         11    1    3    3    0    0  0.53458587845E+01 -0.64555010305E+01  0.36030757947E+01  0.91232590197E+01  0.51100000000E-03 0. -1.
        -11    1    3    3    0    0 -0.18770989573E+01  0.16933014571E+01  0.77131604015E+00  0.26430472971E+01  0.51100000000E-03 0.  1.
        -12    1    3    3    0    0  0.14449506018E+02 -0.24134567912E+02 -0.26669644419E+02  0.38762553139E+02  0.00000000000E+00 0.  1.
</event>
<event>
 7    1  0.2817603E-011  0.5052883E+02  0.7816164E-02  0.1300439E+00
        -11   -1    0    0    0    0  0.00000000000E+00  0.00000000000E+00  0.45593999997E+02  0.45594000000E+02  0.51100000000E-03 0.  1.
         11   -1    0    0    0    0 -0.00000000000E+00 -0.00000000000E+00 -0.45593999997E+02  0.45594000000E+02  0.51100000000E-03 0. -1.
    9900012    2    1    2    0    0  0.16070012352E+02 -0.16631454106E+02 -0.33441258926E+02  0.50528826850E+02  0.29999899693E+02 0.  0.
        -12    1    1    2    0    0 -0.16070012352E+02  0.16631454106E+02  0.33441258926E+02  0.40659173150E+02  0.00000000000E+00 0.  1.
         11    1    3    3    0    0  0.30503345813E+01 -0.10588645334E+02 -0.26097008232E+02  0.28328038937E+02  0.51100000000E-03 0. -1.
        -11    1    3    3    0    0 -0.17261058266E+01 -0.44518646144E+01  0.14098893714E+01  0.49785869652E+01  0.51100000000E-03 0.  1.
         12    1    3    3    0    0  0.14745783597E+02 -0.15909441582E+01 -0.87541400651E+01  0.17222200948E+02  0.00000000000E+00 0. -1.
</event>
<event>
 7    1  0.2817603E-011  0.5052887E+02  0.7816164E-02  0.1300439E+00
        -11   -1    0    0    0    0  0.00000000000E+00  0.00000000000E+00  0.45593999997E+02  0.45594000000E+02  0.51100000000E-03 0. -1.
         11   -1    0    0    0    0 -0.00000000000E+00 -0.00000000000E+00 -0.45593999997E+02  0.45594000000E+02  0.51100000000E-03 0.  1.
    9900012    2    1    2    0    0  0.28543151491E+02  0.14815932783E+02  0.24878533106E+02  0.50528871003E+02  0.30000033901E+02 0.  0.
        -12    1    1    2    0    0 -0.28543151491E+02 -0.14815932783E+02 -0.24878533106E+02  0.40659128997E+02  0.00000000000E+00 0.  1.
         11    1    3    3    0    0  0.17194380896E+01 -0.42380330456E+01  0.11337336722E+02  0.12225080599E+02  0.51100000000E-03 0. -1.
        -11    1    3    3    0    0  0.15948898687E+02  0.50359715311E+01  0.11817092116E+02  0.20478575266E+02  0.51100000000E-03 0.  1.
        -12    1    3    3    0    0  0.10874814714E+02  0.14017994297E+02  0.17241042682E+01  0.17825215138E+02  0.00000000000E+00 0.  1.
</event>
<event>
 7    1  0.2817603E-011  0.5052886E+02  0.7816164E-02  0.1300439E+00
        -11   -1    0    0    0    0  0.00000000000E+00  0.00000000000E+00  0.45593999997E+02  0.45594000000E+02  0.51100000000E-03 0. -1.
         11   -1    0    0    0    0 -0.00000000000E+00 -0.00000000000E+00 -0.45593999997E+02  0.45594000000E+02  0.51100000000E-03 0.  1.
    9900012    2    1    2    0    0 -0.13355359218E+01 -0.26552854968E+02  0.30762445765E+02  0.50528857946E+02  0.29999994211E+02 0.  0.
        -12    1    1    2    0    0  0.13355359218E+01  0.26552854968E+02 -0.30762445765E+02  0.40659142054E+02  0.00000000000E+00 0.  1.
         11    1    3    3    0    0  0.83274329713E+00  0.43669680775E+00 -0.12542726199E+01  0.15675986626E+01  0.51100000000E-03 0.  1.
        -11    1    3    3    0    0  0.24268320422E+01  0.39916090289E+01  0.79712032781E+00  0.47389721964E+01  0.51100000000E-03 0. -1.
         12    1    3    3    0    0 -0.45951112611E+01 -0.30981160805E+02  0.31219598057E+02  0.44222287087E+02  0.00000000000E+00 0. -1.
</event>
<event>
 7    1  0.2817603E-011  0.5052888E+02  0.7816164E-02  0.1300439E+00
        -11   -1    0    0    0    0  0.00000000000E+00  0.00000000000E+00  0.45593999997E+02  0.45594000000E+02  0.51100000000E-03 0. -1.
         11   -1    0    0    0    0 -0.00000000000E+00 -0.00000000000E+00 -0.45593999997E+02  0.45594000000E+02  0.51100000000E-03 0.  1.
    9900012    2    1    2    0    0 -0.10761202662E+02 -0.36417361843E+02  0.14530524788E+02  0.50528881995E+02  0.30000067311E+02 0.  0.
        -12    1    1    2    0    0  0.10761202662E+02  0.36417361843E+02 -0.14530524788E+02  0.40659118005E+02  0.00000000000E+00 0.  1.
         11    1    3    3    0    0 -0.13706654316E+02 -0.91200406928E+01  0.87025394285E+01  0.18622075812E+02  0.51100000000E-03 0.  1.
        -11    1    3    3    0    0 -0.53401146288E+01 -0.11430752637E+02  0.60803593501E+01  0.14005345415E+02  0.51100000000E-03 0. -1.
        -12    1    3    3    0    0  0.82855662824E+01 -0.15866568513E+02 -0.25237399049E+00  0.17901460768E+02  0.00000000000E+00 0.  1.
</event>
