<event>
 7    1  0.2656097E-013  0.7246158E+02  0.7816164E-02  0.1226708E+00
        -11   -1    0    0    0    0  0.00000000000E+00  0.00000000000E+00  0.45593999997E+02  0.45594000000E+02  0.51100000000E-03 0.  1.
         11   -1    0    0    0    0 -0.00000000000E+00 -0.00000000000E+00 -0.45593999997E+02  0.45594000000E+02  0.51100000000E-03 0. -1.
    9900012    2    1    2    0    0  0.58405308360E+00 -0.59794556579E+01 -0.17736507890E+02  0.72461582294E+02  0.70000015632E+02 0.  0.
        -12    1    1    2    0    0 -0.58405308360E+00  0.59794556579E+01  0.17736507890E+02  0.18726417706E+02  0.00000000000E+00 0.  1.
         11    1    3    3    0    0 -0.21234643309E+02 -0.57952997809E+01 -0.24167755276E+02  0.32689080308E+02  0.51100000000E-03 0. -1.
        -11    1    3    3    0    0 -0.59796680375E+01  0.26260878092E+01 -0.62948429851E+01  0.90707119615E+01  0.51100000000E-03 0.  1.
        -12    1    3    3    0    0  0.27798364430E+02 -0.28102436862E+01  0.12726090372E+02  0.30701790025E+02  0.00000000000E+00 0.  1.
</event>
<event>
 7    1  0.2656097E-013  0.7246153E+02  0.7816164E-02  0.1226708E+00
        -11   -1    0    0    0    0  0.00000000000E+00  0.00000000000E+00  0.45593999997E+02  0.45594000000E+02  0.51100000000E-03 0. -1.
         11   -1    0    0    0    0 -0.00000000000E+00 -0.00000000000E+00 -0.45593999997E+02  0.45594000000E+02  0.51100000000E-03 0.  1.
    9900012    2    1    2    0    0 -0.59220066727E+01  0.17728101087E+02  0.11510074535E+01  0.72461533453E+02  0.69999952008E+02 0.  0.
        -12    1    1    2    0    0  0.59220066727E+01 -0.17728101087E+02 -0.11510074535E+01  0.18726466547E+02  0.00000000000E+00 0.  1.
         11    1    3    3    0    0  0.81508687379E+01 -0.10981300171E+01  0.43863797980E+01  0.93210985785E+01  0.51100000000E-03 0. -1.
        -11    1    3    3    0    0 -0.53549680265E+01 -0.17702503484E+02 -0.14971216861E+02  0.23794781922E+02  0.51100000000E-03 0.  1.
         12    1    3    3    0    0 -0.87179073841E+01  0.36528734588E+02  0.11735844517E+02  0.39345652952E+02  0.00000000000E+00 0. -1.
</event>
<event>
 7    1  0.2656097E-013  0.7246154E+02  0.7816164E-02  0.1226708E+00
        -11   -1    0    0    0    0  0.00000000000E+00  0.00000000000E+00  0.45593999997E+02  0.45594000000E+02  0.51100000000E-03 0.  1.
         11   -1    0    0    0    0 -0.00000000000E+00 -0.00000000000E+00 -0.45593999997E+02  0.45594000000E+02  0.51100000000E-03 0. -1.
    9900012    2    1    2    0    0  0.16614790385E+02 -0.50067840996E+01 -0.70399685155E+01  0.72461540023E+02  0.69999960566E+02 0.  0.
        -12    1    1    2    0    0 -0.16614790385E+02  0.50067840996E+01  0.70399685155E+01  0.18726459977E+02  0.00000000000E+00 0.  1.
         11    1    3    3    0    0 -0.82528357499E+00  0.29496764325E+02  0.44245138104E+01  0.29838172218E+02  0.51100000000E-03 0. -1.
        -11    1    3    3    0    0  0.56722842390E+01 -0.30018213378E+01  0.14868482604E+01  0.65875987919E+01  0.51100000000E-03 0.  1.
        -12    1    3    3    0    0  0.11767789721E+02 -0.31501727087E+02 -0.12951330586E+02  0.36035769013E+02  0.00000000000E+00 0.  1.
</event>
<event>
 7    1  0.2656097E-013  0.7246153E+02  0.7816164E-02  0.1226708E+00
        -11   -1    0    0    0    0  0.00000000000E+00  0.00000000000E+00  0.45593999997E+02  0.45594000000E+02  0.51100000000E-03 0.  1.
         11   -1    0    0    0    0 -0.00000000000E+00 -0.00000000000E+00 -0.45593999997E+02  0.45594000000E+02  0.51100000000E-03 0. -1.
    9900012    2    1    2    0    0 -0.46676537634E+00  0.10200751867E+02 -0.15697365967E+02  0.72461534587E+02  0.69999953485E+02 0.  0.
        -12    1    1    2    0    0  0.46676537634E+00 -0.10200751867E+02  0.15697365967E+02  0.18726465413E+02  0.00000000000E+00 0.  1.
         11    1    3    3    0    0 -0.10379655405E+02  0.24926066009E+02 -0.93098739572E+01  0.28560808224E+02  0.51100000000E-03 0.  1.
        -11    1    3    3    0    0  0.55790877121E+01  0.90103534551E+01 -0.14926615101E+02  0.18306188235E+02  0.51100000000E-03 0. -1.
        -12    1    3    3    0    0  0.43338023166E+01 -0.23735667598E+02  0.85391230910E+01  0.25594538128E+02  0.00000000000E+00 0.  1.
</event>
<event>
 7    1  0.2673601E-013  0.7246225E+02  0.7816164E-02  0.1226706E+00
        -11   -1    0    0    0    0  0.00000000000E+00  0.00000000000E+00  0.45593999997E+02  0.45594000000E+02  0.51100000000E-03 0.  1.
         11   -1    0    0    0    0 -0.00000000000E+00 -0.00000000000E+00 -0.45593999997E+02  0.45594000000E+02  0.51100000000E-03 0. -1.
    9900012    2    1    2    0    0 -0.60918602870E+01 -0.14476277688E+02  0.10197067422E+02  0.72462254048E+02  0.70000890710E+02 0.  0.
        -12    1    1    2    0    0  0.60918602870E+01  0.14476277688E+02 -0.10197067422E+02  0.18725745952E+02  0.00000000000E+00 0.  1.
         11    1    3    3    0    0  0.14581498325E+02 -0.12144146433E+02  0.28192672853E+02  0.33984219703E+02  0.51100000000E-03 0. -1.
        -11    1    3    3    0    0 -0.34100853630E+01  0.11390136618E+02 -0.51523411839E+01  0.12958028951E+02  0.51100000000E-03 0.  1.
        -12    1    3    3    0    0 -0.17263273249E+02 -0.13722267873E+02 -0.12843264246E+02  0.25520005394E+02  0.00000000000E+00 0.  1.
</event>
<event>
 7    1  0.2656097E-013  0.7246228E+02  0.7816164E-02  0.1226706E+00
        -11   -1    0    0    0    0  0.00000000000E+00  0.00000000000E+00  0.45593999997E+02  0.45594000000E+02  0.51100000000E-03 0.  1.
         11   -1    0    0    0    0 -0.00000000000E+00 -0.00000000000E+00 -0.45593999997E+02  0.45594000000E+02  0.51100000000E-03 0. -1.
    9900012    2    1    2    0    0 -0.18306995333E+02  0.16581548529E+01  0.35717045457E+01  0.72462278946E+02  0.70000923144E+02 0.  0.
        -12    1    1    2    0    0  0.18306995333E+02 -0.16581548529E+01 -0.35717045457E+01  0.18725721054E+02  0.00000000000E+00 0.  1.
         11    1    3    3    0    0  0.17918958781E+02  0.80904884003E+00  0.60219289472E+01  0.18921080105E+02  0.51100000000E-03 0. -1.
        -11    1    3    3    0    0 -0.91828842226E+01 -0.18204851245E+02 -0.34110631582E+00  0.20392604671E+02  0.51100000000E-03 0.  1.
         12    1    3    3    0    0 -0.27043069892E+02  0.19053957257E+02 -0.21091180858E+01  0.33148594170E+02  0.00000000000E+00 0. -1.
</event>
<event>
 7    1  0.2656097E-013  0.7246147E+02  0.7816164E-02  0.1226708E+00
        -11   -1    0    0    0    0  0.00000000000E+00  0.00000000000E+00  0.45593999997E+02  0.45594000000E+02  0.51100000000E-03 0.  1.
         11   -1    0    0    0    0 -0.00000000000E+00 -0.00000000000E+00 -0.45593999997E+02  0.45594000000E+02  0.51100000000E-03 0. -1.
    9900012    2    1    2    0    0 -0.14812175849E+02 -0.11220122931E+02 -0.23218627354E+01  0.72461474467E+02  0.69999875167E+02 0.  0.
        -12    1    1    2    0    0  0.14812175849E+02  0.11220122931E+02  0.23218627354E+01  0.18726525533E+02  0.00000000000E+00 0.  1.
         11    1    3    3    0    0 -0.83944626159E+01 -0.15045171021E+01  0.76542865252E+01  0.11459436146E+02  0.51100000000E-03 0. -1.
        -11    1    3    3    0    0  0.13745991476E+02 -0.20878868214E+02  0.13240837484E+02  0.28287792369E+02  0.51100000000E-03 0.  1.
         12    1    3    3    0    0 -0.20163704710E+02  0.11163262384E+02 -0.23216986745E+02  0.32714245952E+02  0.00000000000E+00 0. -1.
</event>
<event>
 7    1  0.2656097E-013  0.7246159E+02  0.7816164E-02  0.1226708E+00
        -11   -1    0    0    0    0  0.00000000000E+00  0.00000000000E+00  0.45593999997E+02  0.45594000000E+02  0.51100000000E-03 0. -1.
         11   -1    0    0    0    0 -0.00000000000E+00 -0.00000000000E+00 -0.45593999997E+02  0.45594000000E+02  0.51100000000E-03 0.  1.
    9900012    2    1    2    0    0 -0.35584305727E+01  0.15727771849E+00  0.18384537340E+02  0.72461591439E+02  0.70000027544E+02 0.  0.
        -12    1    1    2    0    0  0.35584305727E+01 -0.15727771849E+00 -0.18384537340E+02  0.18726408561E+02  0.00000000000E+00 0.  1.
         11    1    3    3    0    0  0.23945777689E+02  0.11722421375E+02  0.34211320458E+01  0.26879724268E+02  0.51100000000E-03 0. -1.
        -11    1    3    3    0    0  0.67648614716E+00  0.14551774832E+01 -0.72398649733E+01  0.74155795530E+01  0.51100000000E-03 0.  1.
         12    1    3    3    0    0 -0.28180694409E+02 -0.13020321139E+02  0.22203270267E+02  0.38166287617E+02  0.00000000000E+00 0. -1.
</event>
<event>
 7    1  0.2656097E-013  0.7246147E+02  0.7816164E-02  0.1226708E+00
        -11   -1    0    0    0    0  0.00000000000E+00  0.00000000000E+00  0.45593999997E+02  0.45594000000E+02  0.51100000000E-03 0.  1.
         11   -1    0    0    0    0 -0.00000000000E+00 -0.00000000000E+00 -0.45593999997E+02  0.45594000000E+02  0.51100000000E-03 0. -1.
    9900012    2    1    2    0    0 -0.72000195090E+01  0.40902875560E+01 -0.16796194841E+02  0.72461470841E+02  0.69999870443E+02 0.  0.
        -12    1    1    2    0    0  0.72000195090E+01 -0.40902875560E+01  0.16796194841E+02  0.18726529159E+02  0.00000000000E+00 0.  1.
         11    1    3    3    0    0 -0.10263843715E+02 -0.58955355536E+01  0.10456849449E+02  0.15793971253E+02  0.51100000000E-03 0. -1.
        -11    1    3    3    0    0 -0.20114867023E+02  0.44964751982E+01 -0.18639972664E+00  0.20612154416E+02  0.51100000000E-03 0.  1.
         12    1    3    3    0    0  0.23178691229E+02  0.54893479115E+01 -0.27066644563E+02  0.36055345172E+02  0.00000000000E+00 0. -1.
</event>
<event>
 7    1  0.2656097E-013  0.7246154E+02  0.7816164E-02  0.1226708E+00
        -11   -1    0    0    0    0  0.00000000000E+00  0.00000000000E+00  0.45593999997E+02  0.45594000000E+02  0.51100000000E-03 0.  1.
         11   -1    0    0    0    0 -0.00000000000E+00 -0.00000000000E+00 -0.45593999997E+02  0.45594000000E+02  0.51100000000E-03 0. -1.
    9900012    2    1    2    0    0 -0.12305980335E+02  0.10351348381E+02 -0.95965046448E+01  0.72461535659E+02  0.69999954881E+02 0.  0.
        -12    1    1    2    0    0  0.12305980335E+02 -0.10351348381E+02  0.95965046448E+01  0.18726464341E+02  0.00000000000E+00 0.  1.
         11    1    3    3    0    0 -0.36694047753E+02  0.77320098809E+01 -0.71800012741E+01  0.38181010147E+02  0.51100000000E-03 0. -1.
        -11    1    3    3    0    0 -0.31824805781E+01 -0.21571278024E+01 -0.48553452719E+01  0.61932028028E+01  0.51100000000E-03 0.  1.
        -12    1    3    3    0    0  0.27570547996E+02  0.47764663026E+01  0.24388419012E+01  0.28087322709E+02  0.00000000000E+00 0.  1.
</event>
<event>
 7    1  0.2656097E-013  0.7246152E+02  0.7816164E-02  0.1226708E+00
        -11   -1    0    0    0    0  0.00000000000E+00  0.00000000000E+00  0.45593999997E+02  0.45594000000E+02  0.51100000000E-03 0. -1.
         11   -1    0    0    0    0 -0.00000000000E+00 -0.00000000000E+00 -0.45593999997E+02  0.45594000000E+02  0.51100000000E-03 0.  1.
    9900012    2    1    2    0    0  0.11523466241E+02 -0.12780134070E+02 -0.73864094028E+01  0.72461517551E+02  0.69999931292E+02 0.  0.
        -12    1    1    2    0    0 -0.11523466241E+02  0.12780134070E+02  0.73864094028E+01  0.18726482449E+02  0.00000000000E+00 0.  1.
         11    1    3    3    0    0  0.13223871823E+02  0.63501785454E+01 -0.16357204166E+02  0.21971656331E+02  0.51100000000E-03 0. -1.
        -11    1    3    3    0    0 -0.10690304740E+02  0.14555119785E+01 -0.14452969685E+02  0.18035782864E+02  0.51100000000E-03 0.  1.
        -12    1    3    3    0    0  0.89898991578E+01 -0.20585824594E+02  0.23423764447E+02  0.32454078356E+02  0.00000000000E+00 0.  1.
</event>
<event>
 7    1  0.2656097E-013  0.7246157E+02  0.7816164E-02  0.1226708E+00
        -11   -1    0    0    0    0  0.00000000000E+00  0.00000000000E+00  0.45593999997E+02  0.45594000000E+02  0.51100000000E-03 0. -1.
         11   -1    0    0    0    0 -0.00000000000E+00 -0.00000000000E+00 -0.45593999997E+02  0.45594000000E+02  0.51100000000E-03 0.  1.
    9900012    2    1    2    0    0 -0.15465558294E+02  0.10414821525E+02 -0.17398883803E+01  0.72461569151E+02  0.69999998511E+02 0.  0.
        -12    1    1    2    0    0  0.15465558294E+02 -0.10414821525E+02  0.17398883803E+01  0.18726430849E+02  0.00000000000E+00 0.  1.
         11    1    3    3    0    0 -0.29383624305E+02 -0.15742750152E+02 -0.11645236806E+02  0.35310665530E+02  0.51100000000E-03 0.  1.
        -11    1    3    3    0    0  0.10011549847E+02  0.71958965416E+00  0.34941650043E+01  0.10628176182E+02  0.51100000000E-03 0. -1.
        -12    1    3    3    0    0  0.39065161637E+01  0.25437982023E+02  0.64111834209E+01  0.26522727439E+02  0.00000000000E+00 0.  1.
</event>
<event>
 7    1  0.2656097E-013  0.7246167E+02  0.7816164E-02  0.1226708E+00
        -11   -1    0    0    0    0  0.00000000000E+00  0.00000000000E+00  0.45593999997E+02  0.45594000000E+02  0.51100000000E-03 0. -1.
         11   -1    0    0    0    0 -0.00000000000E+00 -0.00000000000E+00 -0.45593999997E+02  0.45594000000E+02  0.51100000000E-03 0.  1.
    9900012    2    1    2    0    0 -0.14755234606E+02  0.62566060129E+01  0.96857322856E+01  0.72461668886E+02  0.70000128434E+02 0.  0.
        -12    1    1    2    0    0  0.14755234606E+02 -0.62566060129E+01 -0.96857322856E+01  0.18726331114E+02  0.00000000000E+00 0.  1.
         11    1    3    3    0    0  0.66052460360E+01  0.42666941465E+01 -0.12467795591E+01  0.79616840974E+01  0.51100000000E-03 0. -1.
        -11    1    3    3    0    0  0.11358157833E+02 -0.20133270935E+02 -0.13007275887E+01  0.23152715617E+02  0.51100000000E-03 0.  1.
         12    1    3    3    0    0 -0.32718638475E+02  0.22123182802E+02  0.12233239433E+02  0.41347269172E+02  0.00000000000E+00 0. -1.
</event>
<event>
 7    1  0.2656097E-013  0.7246158E+02  0.7816164E-02  0.1226708E+00
        -11   -1    0    0    0    0  0.00000000000E+00  0.00000000000E+00  0.45593999997E+02  0.45594000000E+02  0.51100000000E-03 0.  1.
         11   -1    0    0    0    0 -0.00000000000E+00 -0.00000000000E+00 -0.45593999997E+02  0.45594000000E+02  0.51100000000E-03 0. -1.
    9900012    2    1    2    0    0 -0.16526286014E+02 -0.24877456483E+01 -0.84481796839E+01  0.72461581554E+02  0.70000014668E+02 0.  0.
        -12    1    1    2    0    0  0.16526286014E+02  0.24877456483E+01  0.84481796839E+01  0.18726418446E+02  0.00000000000E+00 0.  1.
         11    1    3    3    0    0  0.98712435046E+01 -0.14153555746E+01 -0.56196771644E+01  0.11446634939E+02  0.51100000000E-03 0. -1.
        -11    1    3    3    0    0 -0.30485447121E+02 -0.50215922932E+01  0.20450982055E+02  0.37051606478E+02  0.51100000000E-03 0.  1.
         12    1    3    3    0    0  0.40879176023E+01  0.39492022196E+01 -0.23279484574E+02  0.23963340137E+02  0.00000000000E+00 0. -1.
</event>
<event>
 7    1  0.2656097E-013  0.7246216E+02  0.7816164E-02  0.1226706E+00
        -11   -1    0    0    0    0  0.00000000000E+00  0.00000000000E+00  0.45593999997E+02  0.45594000000E+02  0.51100000000E-03 0. -1.
         11   -1    0    0    0    0 -0.00000000000E+00 -0.00000000000E+00 -0.45593999997E+02  0.45594000000E+02  0.51100000000E-03 0.  1.
    9900012    2    1    2    0    0  0.13897011085E+02 -0.12012103395E+02  0.36385964717E+01  0.72462164121E+02  0.70000773566E+02 0.  0.
        -12    1    1    2    0    0 -0.13897011085E+02  0.12012103395E+02 -0.36385964717E+01  0.18725835879E+02  0.00000000000E+00 0.  1.
         11    1    3    3    0    0  0.75464094074E+01 -0.26427395153E+02  0.35975525485E+01  0.27718187064E+02  0.51100000000E-03 0. -1.
        -11    1    3    3    0    0  0.16567721203E+02  0.75278655674E+01 -0.16195822390E+02  0.24361092115E+02  0.51100000000E-03 0.  1.
         12    1    3    3    0    0 -0.10217119526E+02  0.68874261906E+01  0.16236866313E+02  0.20382884943E+02  0.00000000000E+00 0. -1.
</event>
<event>
 7    1  0.2656097E-013  0.7246157E+02  0.7816164E-02  0.1226708E+00
        -11   -1    0    0    0    0  0.00000000000E+00  0.00000000000E+00  0.45593999997E+02  0.45594000000E+02  0.51100000000E-03 0.  1.
         11   -1    0    0    0    0 -0.00000000000E+00 -0.00000000000E+00 -0.45593999997E+02  0.45594000000E+02  0.51100000000E-03 0. -1.
    9900012    2    1    2    0    0  0.13687632816E+02  0.11811152506E+02  0.48810311017E+01  0.72461572678E+02  0.70000003105E+02 0.  0.
        -12    1    1    2    0    0 -0.13687632816E+02 -0.11811152506E+02 -0.48810311017E+01  0.18726427322E+02  0.00000000000E+00 0.  1.
         11    1    3    3    0    0 -0.70645424409E+01  0.90501668221E+00  0.19026403462E+01  0.73720319887E+01  0.51100000000E-03 0. -1.
        -11    1    3    3    0    0  0.86901465522E+01 -0.18846817441E+02  0.19938930376E+02  0.28779890888E+02  0.51100000000E-03 0.  1.
         12    1    3    3    0    0  0.12062028704E+02  0.29752953265E+02 -0.16960539620E+02  0.36309649801E+02  0.00000000000E+00 0. -1.
</event>
<event>
 7    1  0.2656097E-013  0.7246159E+02  0.7816164E-02  0.1226708E+00
        -11   -1    0    0    0    0  0.00000000000E+00  0.00000000000E+00  0.45593999997E+02  0.45594000000E+02  0.51100000000E-03 0. -1.
         11   -1    0    0    0    0 -0.00000000000E+00 -0.00000000000E+00 -0.45593999997E+02  0.45594000000E+02  0.51100000000E-03 0.  1.
    9900012    2    1    2    0    0 -0.13308851243E+02  0.76027493215E+01 -0.10758776009E+02  0.72461586039E+02  0.70000020510E+02 0.  0.
        -12    1    1    2    0    0  0.13308851243E+02 -0.76027493215E+01  0.10758776009E+02  0.18726413961E+02  0.00000000000E+00 0.  1.
         11    1    3    3    0    0  0.82784148485E+01 -0.15093986962E+02 -0.62413747190E+01  0.18311617991E+02  0.51100000000E-03 0. -1.
        -11    1    3    3    0    0  0.10860057253E+02  0.15971009495E+02 -0.78454259301E+01  0.20846215391E+02  0.51100000000E-03 0.  1.
         12    1    3    3    0    0 -0.32447323344E+02  0.67257267877E+01  0.33280246403E+01  0.33303752657E+02  0.00000000000E+00 0. -1.
</event>
<event>
 7    1  0.2656097E-013  0.7246160E+02  0.7816164E-02  0.1226708E+00
        -11   -1    0    0    0    0  0.00000000000E+00  0.00000000000E+00  0.45593999997E+02  0.45594000000E+02  0.51100000000E-03 0. -1.
         11   -1    0    0    0    0 -0.00000000000E+00 -0.00000000000E+00 -0.45593999997E+02  0.45594000000E+02  0.51100000000E-03 0.  1.
    9900012    2    1    2    0    0  0.11436443004E+02  0.14700803803E+02 -0.19421660745E+01  0.72461604989E+02  0.70000045196E+02 0.  0.
        -12    1    1    2    0    0 -0.11436443004E+02 -0.14700803803E+02  0.19421660745E+01  0.18726395011E+02  0.00000000000E+00 0.  1.
         11    1    3    3    0    0  0.12967350245E+02  0.12074374705E+02  0.21872573323E+02  0.28148750610E+02  0.51100000000E-03 0. -1.
        -11    1    3    3    0    0  0.11918232397E+01 -0.30294187879E+00  0.10094228012E+02  0.10168857155E+02  0.51100000000E-03 0.  1.
        -12    1    3    3    0    0 -0.27227304808E+01  0.29293709776E+01 -0.33908967410E+02  0.34143997223E+02  0.00000000000E+00 0.  1.
</event>
<event>
 7    1  0.2656097E-013  0.7246153E+02  0.7816164E-02  0.1226708E+00
        -11   -1    0    0    0    0  0.00000000000E+00  0.00000000000E+00  0.45593999997E+02  0.45594000000E+02  0.51100000000E-03 0.  1.
         11   -1    0    0    0    0 -0.00000000000E+00 -0.00000000000E+00 -0.45593999997E+02  0.45594000000E+02  0.51100000000E-03 0. -1.
    9900012    2    1    2    0    0  0.80837257370E+01  0.13254575236E+02 -0.10471401713E+02  0.72461531024E+02  0.69999948843E+02 0.  0.
        -12    1    1    2    0    0 -0.80837257370E+01 -0.13254575236E+02  0.10471401713E+02  0.18726468976E+02  0.00000000000E+00 0.  1.
         11    1    3    3    0    0 -0.18956677408E+02  0.24413935115E+02 -0.21434970520E+02  0.37614542502E+02  0.51100000000E-03 0. -1.
        -11    1    3    3    0    0  0.67793488846E+01  0.16928258193E+01 -0.23935359916E+01  0.73860845756E+01  0.51100000000E-03 0.  1.
        -12    1    3    3    0    0  0.20261054260E+02 -0.12852185698E+02  0.13357104799E+02  0.27460903947E+02  0.00000000000E+00 0.  1.
</event>
<event>
 7    1  0.2656097E-013  0.7246127E+02  0.7816164E-02  0.1226709E+00
        -11   -1    0    0    0    0  0.00000000000E+00  0.00000000000E+00  0.45593999997E+02  0.45594000000E+02  0.51100000000E-03 0. -1.
         11   -1    0    0    0    0 -0.00000000000E+00 -0.00000000000E+00 -0.45593999997E+02  0.45594000000E+02  0.51100000000E-03 0.  1.
    9900012    2    1    2    0    0 -0.10592564090E+02 -0.24557343756E+01 -0.15246548419E+02  0.72461273537E+02  0.69999613418E+02 0.  0.
        -12    1    1    2    0    0  0.10592564090E+02  0.24557343756E+01  0.15246548419E+02  0.18726726463E+02  0.00000000000E+00 0.  1.
         11    1    3    3    0    0  0.18267830562E+01 -0.11710690149E+02 -0.79459284140E+01  0.14269379059E+02  0.51100000000E-03 0. -1.
        -11    1    3    3    0    0  0.19243391152E+02 -0.60173974594E+01  0.53016801853E+01  0.20847661458E+02  0.51100000000E-03 0.  1.
         12    1    3    3    0    0 -0.31662738298E+02  0.15272353233E+02 -0.12602300190E+02  0.37344233021E+02  0.00000000000E+00 0. -1.
</event>
<event>
 7    1  0.2656097E-013  0.7246158E+02  0.7816164E-02  0.1226708E+00
        -11   -1    0    0    0    0  0.00000000000E+00  0.00000000000E+00  0.45593999997E+02  0.45594000000E+02  0.51100000000E-03 0.  1.
         11   -1    0    0    0    0 -0.00000000000E+00 -0.00000000000E+00 -0.45593999997E+02  0.45594000000E+02  0.51100000000E-03 0. -1.
    9900012    2    1    2    0    0 -0.11710382720E+02  0.14096036966E+02 -0.38532641980E+01  0.72461575713E+02  0.70000007059E+02 0.  0.
        -12    1    1    2    0    0  0.11710382720E+02 -0.14096036966E+02  0.38532641980E+01  0.18726424287E+02  0.00000000000E+00 0.  1.
         11    1    3    3    0    0  0.64727791721E+01  0.12339025204E+02 -0.27910943699E+01  0.14210510942E+02  0.51100000000E-03 0. -1.
        -11    1    3    3    0    0 -0.30091324256E+02  0.18993215121E+02  0.61156109551E+01  0.36105826590E+02  0.51100000000E-03 0.  1.
         12    1    3    3    0    0  0.11908162363E+02 -0.17236203360E+02 -0.71777807831E+01  0.22145238181E+02  0.00000000000E+00 0. -1.
</event>
<event>
 7    1  0.2656097E-013  0.7246152E+02  0.7816164E-02  0.1226708E+00
        -11   -1    0    0    0    0  0.00000000000E+00  0.00000000000E+00  0.45593999997E+02  0.45594000000E+02  0.51100000000E-03 0. -1.
         11   -1    0    0    0    0 -0.00000000000E+00 -0.00000000000E+00 -0.45593999997E+02  0.45594000000E+02  0.51100000000E-03 0.  1.
    9900012    2    1    2    0    0 -0.53419366309E+01  0.12240656049E+02  0.13126736240E+02  0.72461517367E+02  0.69999931053E+02 0.  0.
        -12    1    1    2    0    0  0.53419366309E+01 -0.12240656049E+02 -0.13126736240E+02  0.18726482633E+02  0.00000000000E+00 0.  1.
         11    1    3    3    0    0 -0.39084904599E+01 -0.12958875732E+02 -0.16019543727E+02  0.20972232580E+02  0.51100000000E-03 0. -1.
        -11    1    3    3    0    0  0.14151478988E+02  0.37378788887E+01  0.45793011570E+01  0.15336430337E+02  0.51100000000E-03 0.  1.
        -12    1    3    3    0    0 -0.15584925159E+02  0.21461652892E+02  0.24566978810E+02  0.36152854450E+02  0.00000000000E+00 0.  1.
</event>
<event>
 7    1  0.2656097E-013  0.7246192E+02  0.7816164E-02  0.1226707E+00
        -11   -1    0    0    0    0  0.00000000000E+00  0.00000000000E+00  0.45593999997E+02  0.45594000000E+02  0.51100000000E-03 0.  1.
         11   -1    0    0    0    0 -0.00000000000E+00 -0.00000000000E+00 -0.45593999997E+02  0.45594000000E+02  0.51100000000E-03 0. -1.
    9900012    2    1    2    0    0 -0.92923761422E+01  0.55232378832E+01 -0.15290900825E+02  0.72461920348E+02  0.70000456009E+02 0.  0.
        -12    1    1    2    0    0  0.92923761422E+01 -0.55232378832E+01  0.15290900825E+02  0.18726079652E+02  0.00000000000E+00 0.  1.
         11    1    3    3    0    0  0.30254686054E+01  0.18337029019E+02  0.43725762465E+01  0.19092394214E+02  0.51100000000E-03 0. -1.
        -11    1    3    3    0    0 -0.21817219547E+02  0.98447642276E+01 -0.40958515686E+01  0.24283460457E+02  0.51100000000E-03 0.  1.
         12    1    3    3    0    0  0.94993747991E+01 -0.22658555364E+02 -0.15567625503E+02  0.29086065677E+02  0.00000000000E+00 0. -1.
</event>
<event>
 7    1  0.2656097E-013  0.7246156E+02  0.7816164E-02  0.1226708E+00
        -11   -1    0    0    0    0  0.00000000000E+00  0.00000000000E+00  0.45593999997E+02  0.45594000000E+02  0.51100000000E-03 0.  1.
         11   -1    0    0    0    0 -0.00000000000E+00 -0.00000000000E+00 -0.45593999997E+02  0.45594000000E+02  0.51100000000E-03 0. -1.
    9900012    2    1    2    0    0 -0.31004982085E+01  0.18199926747E+02 -0.31351717843E+01  0.72461555467E+02  0.69999980684E+02 0.  0.
        -12    1    1    2    0    0  0.31004982085E+01 -0.18199926747E+02  0.31351717843E+01  0.18726444533E+02  0.00000000000E+00 0.  1.
         11    1    3    3    0    0  0.10377836653E+01  0.18767834648E+02 -0.21697787445E+02  0.28707187124E+02  0.51100000000E-03 0. -1.
        -11    1    3    3    0    0  0.16250091887E+02 -0.23302750804E+01  0.44501965320E+00  0.16422354004E+02  0.51100000000E-03 0.  1.
        -12    1    3    3    0    0 -0.20388373761E+02  0.17623671792E+01  0.18117596007E+02  0.27332014338E+02  0.00000000000E+00 0.  1.
</event>
<event>
 7    1  0.2656097E-013  0.7246158E+02  0.7816164E-02  0.1226708E+00
        -11   -1    0    0    0    0  0.00000000000E+00  0.00000000000E+00  0.45593999997E+02  0.45594000000E+02  0.51100000000E-03 0. -1.
         11   -1    0    0    0    0 -0.00000000000E+00 -0.00000000000E+00 -0.45593999997E+02  0.45594000000E+02  0.51100000000E-03 0.  1.
    9900012    2    1    2    0    0 -0.37415581874E+01 -0.17405692975E+02  0.58070194233E+01  0.72461578019E+02  0.70000010063E+02 0.  0.
        -12    1    1    2    0    0  0.37415581874E+01  0.17405692975E+02 -0.58070194233E+01  0.18726421981E+02  0.00000000000E+00 0.  1.
         11    1    3    3    0    0 -0.78352860553E+01 -0.21592544982E+02  0.10474975178E+02  0.25245887024E+02  0.51100000000E-03 0. -1.
        -11    1    3    3    0    0  0.63815389642E+01 -0.20558830988E+02  0.16010895240E+01  0.21585945869E+02  0.51100000000E-03 0.  1.
         12    1    3    3    0    0 -0.22878110964E+01  0.24745682995E+02 -0.62690452788E+01  0.25629745126E+02  0.00000000000E+00 0. -1.
</event>
<event>
 7    1  0.2656097E-013  0.7246157E+02  0.7816164E-02  0.1226708E+00
        -11   -1    0    0    0    0  0.00000000000E+00  0.00000000000E+00  0.45593999997E+02  0.45594000000E+02  0.51100000000E-03 0. -1.
         11   -1    0    0    0    0 -0.00000000000E+00 -0.00000000000E+00 -0.45593999997E+02  0.45594000000E+02  0.51100000000E-03 0.  1.
    9900012    2    1    2    0    0 -0.80141522372E+01 -0.11003960142E+02  0.12859446072E+02  0.72461571398E+02  0.70000001438E+02 0.  0.
        -12    1    1    2    0    0  0.80141522372E+01  0.11003960142E+02 -0.12859446072E+02  0.18726428602E+02  0.00000000000E+00 0.  1.
         11    1    3    3    0    0  0.13194978529E+02  0.59917156051E+01 -0.13550608927E+02  0.19840038226E+02  0.51100000000E-03 0.  1.
        -11    1    3    3    0    0 -0.25065963738E+02  0.16308500854E+01  0.85635650520E+01  0.26538591838E+02  0.51100000000E-03 0. -1.
         12    1    3    3    0    0  0.38568329719E+01 -0.18626525833E+02  0.17846489947E+02  0.26082941334E+02  0.00000000000E+00 0. -1.
</event>
<event>
 7    1  0.2656097E-013  0.7246158E+02  0.7816164E-02  0.1226708E+00
        -11   -1    0    0    0    0  0.00000000000E+00  0.00000000000E+00  0.45593999997E+02  0.45594000000E+02  0.51100000000E-03 0.  1.
         11   -1    0    0    0    0 -0.00000000000E+00 -0.00000000000E+00 -0.45593999997E+02  0.45594000000E+02  0.51100000000E-03 0. -1.
    9900012    2    1    2    0    0 -0.16543128947E+02  0.53475423605E+01 -0.69575530999E+01  0.72461578297E+02  0.70000010425E+02 0.  0.
        -12    1    1    2    0    0  0.16543128947E+02 -0.53475423605E+01  0.69575530999E+01  0.18726421703E+02  0.00000000000E+00 0.  1.
         11    1    3    3    0    0 -0.19707601492E+02  0.74097912653E+01 -0.71273915267E+01  0.22228231450E+02  0.51100000000E-03 0. -1.
        -11    1    3    3    0    0 -0.22901520975E+01  0.22746259029E+02 -0.68764470374E+01  0.23873052184E+02  0.51100000000E-03 0.  1.
         12    1    3    3    0    0  0.54546246419E+01 -0.24808507934E+02  0.70462854642E+01  0.26360294663E+02  0.00000000000E+00 0. -1.
</event>
<event>
 7    1  0.2656097E-013  0.7246156E+02  0.7816164E-02  0.1226708E+00
        -11   -1    0    0    0    0  0.00000000000E+00  0.00000000000E+00  0.45593999997E+02  0.45594000000E+02  0.51100000000E-03 0. -1.
         11   -1    0    0    0    0 -0.00000000000E+00 -0.00000000000E+00 -0.45593999997E+02  0.45594000000E+02  0.51100000000E-03 0.  1.
    9900012    2    1    2    0    0 -0.12344889320E+02 -0.98434733122E+01 -0.10069224958E+02  0.72461560124E+02  0.69999986752E+02 0.  0.
        -12    1    1    2    0    0  0.12344889320E+02  0.98434733122E+01  0.10069224958E+02  0.18726439876E+02  0.00000000000E+00 0.  1.
         11    1    3    3    0    0  0.11722045231E+02 -0.77843763230E+01 -0.15538505253E+02  0.20963015167E+02  0.51100000000E-03 0. -1.
        -11    1    3    3    0    0 -0.60338912528E+01  0.10645491863E+02 -0.16382916207E+02  0.20448332068E+02  0.51100000000E-03 0.  1.
         12    1    3    3    0    0 -0.18033043298E+02 -0.12704588852E+02  0.21852196503E+02  0.31050212889E+02  0.00000000000E+00 0. -1.
</event>
<event>
 7    1  0.2656097E-013  0.7246166E+02  0.7816164E-02  0.1226708E+00
        -11   -1    0    0    0    0  0.00000000000E+00  0.00000000000E+00  0.45593999997E+02  0.45594000000E+02  0.51100000000E-03 0.  1.
         11   -1    0    0    0    0 -0.00000000000E+00 -0.00000000000E+00 -0.45593999997E+02  0.45594000000E+02  0.51100000000E-03 0. -1.
    9900012    2    1    2    0    0  0.72537859872E+00  0.68671857690E+01 -0.17406648012E+02  0.72461660007E+02  0.70000116868E+02 0.  0.
        -12    1    1    2    0    0 -0.72537859872E+00 -0.68671857690E+01  0.17406648012E+02  0.18726339993E+02  0.00000000000E+00 0.  1.
         11    1    3    3    0    0  0.99646366167E+01 -0.39259619975E+00  0.56470182755E+01  0.11460232561E+02  0.51100000000E-03 0. -1.
        -11    1    3    3    0    0  0.49297078599E+01 -0.17723234608E+02  0.67646799455E+01  0.19600407128E+02  0.51100000000E-03 0.  1.
         12    1    3    3    0    0 -0.14168965878E+02  0.24983016577E+02 -0.29818346233E+02  0.41401020319E+02  0.00000000000E+00 0. -1.
</event>
<event>
 7    1  0.2656097E-013  0.7246173E+02  0.7816164E-02  0.1226708E+00
        -11   -1    0    0    0    0  0.00000000000E+00  0.00000000000E+00  0.45593999997E+02  0.45594000000E+02  0.51100000000E-03 0.  1.
         11   -1    0    0    0    0 -0.00000000000E+00 -0.00000000000E+00 -0.45593999997E+02  0.45594000000E+02  0.51100000000E-03 0. -1.
    9900012    2    1    2    0    0  0.11443363999E+02 -0.85807662574E+01 -0.12086897450E+02  0.72461729172E+02  0.70000206967E+02 0.  0.
        -12    1    1    2    0    0 -0.11443363999E+02  0.85807662574E+01  0.12086897450E+02  0.18726270828E+02  0.00000000000E+00 0.  1.
         11    1    3    3    0    0  0.68732196030E+00 -0.23054557280E+02  0.11920576016E+02  0.25963149957E+02  0.51100000000E-03 0. -1.
        -11    1    3    3    0    0  0.57828461480E+01 -0.11137523173E+02 -0.27546590023E+01  0.12848107973E+02  0.51100000000E-03 0.  1.
         12    1    3    3    0    0  0.49731958907E+01  0.25611314196E+02 -0.21252814463E+02  0.33650471242E+02  0.00000000000E+00 0. -1.
</event>
<event>
 7    1  0.2656097E-013  0.7246176E+02  0.7816164E-02  0.1226708E+00
        -11   -1    0    0    0    0  0.00000000000E+00  0.00000000000E+00  0.45593999997E+02  0.45594000000E+02  0.51100000000E-03 0.  1.
         11   -1    0    0    0    0 -0.00000000000E+00 -0.00000000000E+00 -0.45593999997E+02  0.45594000000E+02  0.51100000000E-03 0. -1.
    9900012    2    1    2    0    0 -0.18013176718E+02  0.50872293302E+01 -0.56350984457E+00  0.72461762228E+02  0.70000250029E+02 0.  0.
        -12    1    1    2    0    0  0.18013176718E+02 -0.50872293302E+01  0.56350984457E+00  0.18726237772E+02  0.00000000000E+00 0.  1.
         11    1    3    3    0    0 -0.91479731885E+01  0.26019434870E+02  0.13522390870E+02  0.30717282749E+02  0.51100000000E-03 0. -1.
        -11    1    3    3    0    0 -0.56067167035E+01  0.40819055452E+00  0.86987006789E+01  0.10357088659E+02  0.51100000000E-03 0.  1.
        -12    1    3    3    0    0 -0.32584868264E+01 -0.21340396094E+02 -0.22784601393E+02  0.31387390820E+02  0.00000000000E+00 0.  1.
</event>
<event>
 7    1  0.2656097E-013  0.7246148E+02  0.7816164E-02  0.1226708E+00
        -11   -1    0    0    0    0  0.00000000000E+00  0.00000000000E+00  0.45593999997E+02  0.45594000000E+02  0.51100000000E-03 0.  1.
         11   -1    0    0    0    0 -0.00000000000E+00 -0.00000000000E+00 -0.45593999997E+02  0.45594000000E+02  0.51100000000E-03 0. -1.
    9900012    2    1    2    0    0 -0.82278506745E+01 -0.54365448934E+01 -0.15919449366E+02  0.72461483634E+02  0.69999887109E+02 0.  0.
        -12    1    1    2    0    0  0.82278506745E+01  0.54365448934E+01  0.15919449366E+02  0.18726516366E+02  0.00000000000E+00 0.  1.
         11    1    3    3    0    0  0.25806028532E+01 -0.13207191518E+02 -0.45556449038E+01  0.14207157338E+02  0.51100000000E-03 0. -1.
        -11    1    3    3    0    0 -0.32962616311E+02  0.88339452858E+01 -0.11689156564E+02  0.36072275293E+02  0.51100000000E-03 0.  1.
         12    1    3    3    0    0  0.22154162784E+02 -0.10632986613E+01  0.32535210176E+00  0.22182051003E+02  0.00000000000E+00 0. -1.
</event>
<event>
 7    1  0.2656097E-013  0.7246160E+02  0.7816164E-02  0.1226708E+00
        -11   -1    0    0    0    0  0.00000000000E+00  0.00000000000E+00  0.45593999997E+02  0.45594000000E+02  0.51100000000E-03 0.  1.
         11   -1    0    0    0    0 -0.00000000000E+00 -0.00000000000E+00 -0.45593999997E+02  0.45594000000E+02  0.51100000000E-03 0. -1.
    9900012    2    1    2    0    0  0.70239098057E+01 -0.40995810298E+01 -0.16868198370E+02  0.72461601792E+02  0.70000041032E+02 0.  0.
        -12    1    1    2    0    0 -0.70239098057E+01  0.40995810298E+01  0.16868198370E+02  0.18726398208E+02  0.00000000000E+00 0.  1.
         11    1    3    3    0    0 -0.43922070962E+01 -0.16597325664E+02 -0.43362052299E+01  0.17707777343E+02  0.51100000000E-03 0. -1.
        -11    1    3    3    0    0  0.99439482961E+01  0.14675088583E+02 -0.31209376196E+02  0.35892415570E+02  0.51100000000E-03 0.  1.
         12    1    3    3    0    0  0.14721686058E+01 -0.21773439486E+01  0.18677383056E+02  0.18861408879E+02  0.00000000000E+00 0. -1.
</event>
<event>
 7    1  0.2656097E-013  0.7246149E+02  0.7816164E-02  0.1226708E+00
        -11   -1    0    0    0    0  0.00000000000E+00  0.00000000000E+00  0.45593999997E+02  0.45594000000E+02  0.51100000000E-03 0. -1.
         11   -1    0    0    0    0 -0.00000000000E+00 -0.00000000000E+00 -0.45593999997E+02  0.45594000000E+02  0.51100000000E-03 0.  1.
    9900012    2    1    2    0    0 -0.72793907331E-01  0.10300421109E+02  0.15638995609E+02  0.72461490511E+02  0.69999896068E+02 0.  0.
        -12    1    1    2    0    0  0.72793907331E-01 -0.10300421109E+02 -0.15638995609E+02  0.18726509489E+02  0.00000000000E+00 0.  1.
         11    1    3    3    0    0 -0.25111177326E+00  0.98237610328E+01  0.61096636218E+01  0.11571401289E+02  0.51100000000E-03 0. -1.
        -11    1    3    3    0    0 -0.93900574851E+01  0.11037421496E+02 -0.21969032978E+02  0.26317983644E+02  0.51100000000E-03 0.  1.
         12    1    3    3    0    0  0.95683753511E+01 -0.10560761420E+02  0.31498364965E+02  0.34572105578E+02  0.00000000000E+00 0. -1.
</event>
<event>
 7    1  0.2656097E-013  0.7246161E+02  0.7816164E-02  0.1226708E+00
        -11   -1    0    0    0    0  0.00000000000E+00  0.00000000000E+00  0.45593999997E+02  0.45594000000E+02  0.51100000000E-03 0.  1.
         11   -1    0    0    0    0 -0.00000000000E+00 -0.00000000000E+00 -0.45593999997E+02  0.45594000000E+02  0.51100000000E-03 0. -1.
    9900012    2    1    2    0    0 -0.93369567306E+01 -0.73861413256E+00 -0.16215842234E+02  0.72461605495E+02  0.70000045855E+02 0.  0.
        -12    1    1    2    0    0  0.93369567306E+01  0.73861413256E+00  0.16215842234E+02  0.18726394505E+02  0.00000000000E+00 0.  1.
         11    1    3    3    0    0 -0.17102584010E+02 -0.27157963637E+02 -0.80874086217E+01  0.33097727221E+02  0.51100000000E-03 0. -1.
        -11    1    3    3    0    0  0.14771723922E+02  0.70585754667E+01 -0.91390458217E+01  0.18749652638E+02  0.51100000000E-03 0.  1.
        -12    1    3    3    0    0 -0.70060966426E+01  0.19360774038E+02  0.10106122097E+01  0.20614225635E+02  0.00000000000E+00 0.  1.
</event>
<event>
 7    1  0.2656097E-013  0.7246147E+02  0.7816164E-02  0.1226708E+00
        -11   -1    0    0    0    0  0.00000000000E+00  0.00000000000E+00  0.45593999997E+02  0.45594000000E+02  0.51100000000E-03 0.  1.
         11   -1    0    0    0    0 -0.00000000000E+00 -0.00000000000E+00 -0.45593999997E+02  0.45594000000E+02  0.51100000000E-03 0. -1.
    9900012    2    1    2    0    0  0.26778959606E+01 -0.14360693843E+02 -0.11716750323E+02  0.72461470888E+02  0.69999870505E+02 0.  0.
        -12    1    1    2    0    0 -0.26778959606E+01  0.14360693843E+02  0.11716750323E+02  0.18726529112E+02  0.00000000000E+00 0.  1.
         11    1    3    3    0    0  0.28646029241E+01 -0.28535493457E+02 -0.13332413982E+02  0.31626469920E+02  0.51100000000E-03 0. -1.
        -11    1    3    3    0    0 -0.12512855255E+02 -0.67390459357E+01  0.71897621120E+01  0.15927302541E+02  0.51100000000E-03 0.  1.
        -12    1    3    3    0    0  0.12326148291E+02  0.20913845550E+02 -0.55740984533E+01  0.24907698427E+02  0.00000000000E+00 0.  1.
</event>
<event>
 7    1  0.2656097E-013  0.7246151E+02  0.7816164E-02  0.1226708E+00
        -11   -1    0    0    0    0  0.00000000000E+00  0.00000000000E+00  0.45593999997E+02  0.45594000000E+02  0.51100000000E-03 0. -1.
         11   -1    0    0    0    0 -0.00000000000E+00 -0.00000000000E+00 -0.45593999997E+02  0.45594000000E+02  0.51100000000E-03 0.  1.
    9900012    2    1    2    0    0  0.10204224011E+02  0.10718328388E+02  0.11474872546E+02  0.72461509377E+02  0.69999920644E+02 0.  0.
        -12    1    1    2    0    0 -0.10204224011E+02 -0.10718328388E+02 -0.11474872546E+02  0.18726490623E+02  0.00000000000E+00 0.  1.
         11    1    3    3    0    0 -0.12605270020E+02  0.76106836765E+00  0.42873136245E+01  0.13336158207E+02  0.51100000000E-03 0. -1.
        -11    1    3    3    0    0 -0.12931020319E+01  0.12431069792E+02  0.25736793882E+02  0.28610944910E+02  0.51100000000E-03 0.  1.
         12    1    3    3    0    0  0.24102596063E+02 -0.24738097719E+01 -0.18549234961E+02  0.30514406260E+02  0.00000000000E+00 0. -1.
</event>
<event>
 7    1  0.2656097E-013  0.7246154E+02  0.7816164E-02  0.1226708E+00
        -11   -1    0    0    0    0  0.00000000000E+00  0.00000000000E+00  0.45593999997E+02  0.45594000000E+02  0.51100000000E-03 0.  1.
         11   -1    0    0    0    0 -0.00000000000E+00 -0.00000000000E+00 -0.45593999997E+02  0.45594000000E+02  0.51100000000E-03 0. -1.
    9900012    2    1    2    0    0 -0.13575033951E+02 -0.90753535538E+00 -0.12867595260E+02  0.72461543449E+02  0.69999965029E+02 0.  0.
        -12    1    1    2    0    0  0.13575033951E+02  0.90753535538E+00  0.12867595260E+02  0.18726456551E+02  0.00000000000E+00 0.  1.
         11    1    3    3    0    0 -0.88828539877E+01 -0.10973433151E+02 -0.14172360859E+02  0.20004428076E+02  0.51100000000E-03 0. -1.
        -11    1    3    3    0    0 -0.18821320689E+02  0.22261851641E+02  0.11322983013E+02  0.31273664568E+02  0.51100000000E-03 0.  1.
         12    1    3    3    0    0  0.14129140726E+02 -0.12195953845E+02 -0.10018217413E+02  0.21183450804E+02  0.00000000000E+00 0. -1.
</event>
<event>
 7    1  0.2656097E-013  0.7246158E+02  0.7816164E-02  0.1226708E+00
        -11   -1    0    0    0    0  0.00000000000E+00  0.00000000000E+00  0.45593999997E+02  0.45594000000E+02  0.51100000000E-03 0.  1.
         11   -1    0    0    0    0 -0.00000000000E+00 -0.00000000000E+00 -0.45593999997E+02  0.45594000000E+02  0.51100000000E-03 0. -1.
    9900012    2    1    2    0    0 -0.33944034458E+01 -0.53399653259E+01 -0.17625024141E+02  0.72461583354E+02  0.70000017012E+02 0.  0.
        -12    1    1    2    0    0  0.33944034458E+01  0.53399653259E+01  0.17625024141E+02  0.18726416646E+02  0.00000000000E+00 0.  1.
         11    1    3    3    0    0 -0.12721388202E+02  0.64125484022E+01  0.12364874867E+01  0.14299769101E+02  0.51100000000E-03 0. -1.
        -11    1    3    3    0    0 -0.20116069844E+02 -0.13795531988E+02 -0.27770191974E+01  0.24549639604E+02  0.51100000000E-03 0.  1.
         12    1    3    3    0    0  0.29443054600E+02  0.20430182602E+01 -0.16084492431E+02  0.33612174648E+02  0.00000000000E+00 0. -1.
</event>
<event>
 7    1  0.2656097E-013  0.7246159E+02  0.7816164E-02  0.1226708E+00
        -11   -1    0    0    0    0  0.00000000000E+00  0.00000000000E+00  0.45593999997E+02  0.45594000000E+02  0.51100000000E-03 0. -1.
         11   -1    0    0    0    0 -0.00000000000E+00 -0.00000000000E+00 -0.45593999997E+02  0.45594000000E+02  0.51100000000E-03 0.  1.
    9900012    2    1    2    0    0  0.74622654652E+01  0.15926313063E+02  0.64300385967E+01  0.72461594845E+02  0.70000031982E+02 0.  0.
        -12    1    1    2    0    0 -0.74622654652E+01 -0.15926313063E+02 -0.64300385967E+01  0.18726405155E+02  0.00000000000E+00 0.  1.
         11    1    3    3    0    0  0.44785586263E+01  0.12761525372E+02  0.71533220570E+01  0.15299805028E+02  0.51100000000E-03 0. -1.
        -11    1    3    3    0    0 -0.50420018988E+00  0.21805117479E+02  0.19629501142E+02  0.29343392467E+02  0.51100000000E-03 0.  1.
        -12    1    3    3    0    0  0.34879070288E+01 -0.18640329789E+02 -0.20352784602E+02  0.27818397350E+02  0.00000000000E+00 0.  1.
</event>
<event>
 7    1  0.2656097E-013  0.7246153E+02  0.7816164E-02  0.1226708E+00
        -11   -1    0    0    0    0  0.00000000000E+00  0.00000000000E+00  0.45593999997E+02  0.45594000000E+02  0.51100000000E-03 0.  1.
         11   -1    0    0    0    0 -0.00000000000E+00 -0.00000000000E+00 -0.45593999997E+02  0.45594000000E+02  0.51100000000E-03 0. -1.
    9900012    2    1    2    0    0  0.38629409629E+01 -0.37942025046E+01 -0.17926582079E+02  0.72461531284E+02  0.69999949181E+02 0.  0.
        -12    1    1    2    0    0 -0.38629409629E+01  0.37942025046E+01  0.17926582079E+02  0.18726468716E+02  0.00000000000E+00 0.  1.
         11    1    3    3    0    0  0.54570273206E+01 -0.32885283853E+02  0.11619543690E+01  0.33355227169E+02  0.51100000000E-03 0. -1.
        -11    1    3    3    0    0  0.13943979794E+01 -0.45566370714E+00 -0.68173671294E+01  0.69734116455E+01  0.51100000000E-03 0.  1.
        -12    1    3    3    0    0 -0.29884843371E+01  0.29546745055E+02 -0.12271169319E+02  0.32132892470E+02  0.00000000000E+00 0.  1.
</event>
<event>
 7    1  0.2656097E-013  0.7246153E+02  0.7816164E-02  0.1226708E+00
        -11   -1    0    0    0    0  0.00000000000E+00  0.00000000000E+00  0.45593999997E+02  0.45594000000E+02  0.51100000000E-03 0. -1.
         11   -1    0    0    0    0 -0.00000000000E+00 -0.00000000000E+00 -0.45593999997E+02  0.45594000000E+02  0.51100000000E-03 0.  1.
    9900012    2    1    2    0    0 -0.97114991124E+01  0.10414086332E+02  0.12161998540E+02  0.72461531629E+02  0.69999949632E+02 0.  0.
        -12    1    1    2    0    0  0.97114991124E+01 -0.10414086332E+02 -0.12161998540E+02  0.18726468371E+02  0.00000000000E+00 0.  1.
         11    1    3    3    0    0  0.13129256222E+02  0.34675087353E+01 -0.12955740586E+02  0.18768382992E+02  0.51100000000E-03 0. -1.
        -11    1    3    3    0    0 -0.19170233021E+02 -0.12984729052E+02  0.24445073852E+01  0.23282539364E+02  0.51100000000E-03 0.  1.
         12    1    3    3    0    0 -0.36705223134E+01  0.19931306649E+02  0.22673231741E+02  0.30410609273E+02  0.00000000000E+00 0. -1.
</event>
<event>
 7    1  0.2656097E-013  0.7246157E+02  0.7816164E-02  0.1226708E+00
        -11   -1    0    0    0    0  0.00000000000E+00  0.00000000000E+00  0.45593999997E+02  0.45594000000E+02  0.51100000000E-03 0. -1.
         11   -1    0    0    0    0 -0.00000000000E+00 -0.00000000000E+00 -0.45593999997E+02  0.45594000000E+02  0.51100000000E-03 0.  1.
    9900012    2    1    2    0    0 -0.15242131246E+02  0.54734451118E+00  0.10865410316E+02  0.72461567017E+02  0.69999995731E+02 0.  0.
        -12    1    1    2    0    0  0.15242131246E+02 -0.54734451118E+00 -0.10865410316E+02  0.18726432983E+02  0.00000000000E+00 0.  1.
         11    1    3    3    0    0 -0.37452015483E+02 -0.75570904150E+01  0.71475943362E+01  0.38869669208E+02  0.51100000000E-03 0. -1.
        -11    1    3    3    0    0  0.76750442487E+00  0.26549207893E+01  0.10175944597E+02  0.10544549120E+02  0.51100000000E-03 0.  1.
        -12    1    3    3    0    0  0.21442379812E+02  0.54495141369E+01 -0.64581286172E+01  0.23047348689E+02  0.00000000000E+00 0.  1.
</event>
<event>
 7    1  0.2656097E-013  0.7246159E+02  0.7816164E-02  0.1226708E+00
        -11   -1    0    0    0    0  0.00000000000E+00  0.00000000000E+00  0.45593999997E+02  0.45594000000E+02  0.51100000000E-03 0.  1.
         11   -1    0    0    0    0 -0.00000000000E+00 -0.00000000000E+00 -0.45593999997E+02  0.45594000000E+02  0.51100000000E-03 0. -1.
    9900012    2    1    2    0    0 -0.12383528324E+02 -0.13375823333E+02 -0.42911514641E+01  0.72461590721E+02  0.70000026610E+02 0.  0.
        -12    1    1    2    0    0  0.12383528324E+02  0.13375823333E+02  0.42911514641E+01  0.18726409279E+02  0.00000000000E+00 0.  1.
         11    1    3    3    0    0  0.26930345166E+01  0.41668814159E+01 -0.56388111570E+01  0.75107607582E+01  0.51100000000E-03 0. -1.
        -11    1    3    3    0    0 -0.10050171600E+02 -0.28604512293E+02 -0.22789072441E+02  0.37928431232E+02  0.51100000000E-03 0.  1.
         12    1    3    3    0    0 -0.50263912407E+01  0.11061807544E+02  0.24136732134E+02  0.27022398731E+02  0.00000000000E+00 0. -1.
</event>
<event>
 7    1  0.2656097E-013  0.7246149E+02  0.7816164E-02  0.1226708E+00
        -11   -1    0    0    0    0  0.00000000000E+00  0.00000000000E+00  0.45593999997E+02  0.45594000000E+02  0.51100000000E-03 0. -1.
         11   -1    0    0    0    0 -0.00000000000E+00 -0.00000000000E+00 -0.45593999997E+02  0.45594000000E+02  0.51100000000E-03 0.  1.
    9900012    2    1    2    0    0  0.34193791450E+01  0.17745261047E+02  0.49087333866E+01  0.72461491868E+02  0.69999897835E+02 0.  0.
        -12    1    1    2    0    0 -0.34193791450E+01 -0.17745261047E+02 -0.49087333866E+01  0.18726508132E+02  0.00000000000E+00 0.  1.
         11    1    3    3    0    0  0.13413067492E+02  0.17916600045E+02  0.27073867751E+02  0.35127044453E+02  0.51100000000E-03 0. -1.
        -11    1    3    3    0    0  0.81370491260E+00  0.11262486287E+01  0.65132550328E+01  0.66598080335E+01  0.51100000000E-03 0.  1.
        -12    1    3    3    0    0 -0.10807393260E+02 -0.12975876265E+01 -0.28678389398E+02  0.30674639381E+02  0.00000000000E+00 0.  1.
</event>
<event>
 7    1  0.2656097E-013  0.7246161E+02  0.7816164E-02  0.1226708E+00
        -11   -1    0    0    0    0  0.00000000000E+00  0.00000000000E+00  0.45593999997E+02  0.45594000000E+02  0.51100000000E-03 0.  1.
         11   -1    0    0    0    0 -0.00000000000E+00 -0.00000000000E+00 -0.45593999997E+02  0.45594000000E+02  0.51100000000E-03 0. -1.
    9900012    2    1    2    0    0  0.15353981808E+02  0.25552931882E+01 -0.10411687910E+02  0.72461614183E+02  0.70000057173E+02 0.  0.
        -12    1    1    2    0    0 -0.15353981808E+02 -0.25552931882E+01  0.10411687910E+02  0.18726385817E+02  0.00000000000E+00 0.  1.
         11    1    3    3    0    0  0.60858160843E+00  0.65483947270E+01  0.15465210938E+01  0.67560027256E+01  0.51100000000E-03 0. -1.
        -11    1    3    3    0    0  0.49043301752E+01  0.24239041717E+02  0.11909981613E+02  0.27448702339E+02  0.51100000000E-03 0.  1.
         12    1    3    3    0    0  0.98410700240E+01 -0.28232143256E+02 -0.23868190616E+02  0.38256909119E+02  0.00000000000E+00 0. -1.
</event>
<event>
 7    1  0.2656097E-013  0.7246160E+02  0.7816164E-02  0.1226708E+00
        -11   -1    0    0    0    0  0.00000000000E+00  0.00000000000E+00  0.45593999997E+02  0.45594000000E+02  0.51100000000E-03 0. -1.
         11   -1    0    0    0    0 -0.00000000000E+00 -0.00000000000E+00 -0.45593999997E+02  0.45594000000E+02  0.51100000000E-03 0.  1.
    9900012    2    1    2    0    0  0.92020763548E+01  0.12284025227E+01  0.16263176360E+02  0.72461599189E+02  0.70000037641E+02 0.  0.
        -12    1    1    2    0    0 -0.92020763548E+01 -0.12284025227E+01 -0.16263176360E+02  0.18726400811E+02  0.00000000000E+00 0.  1.
         11    1    3    3    0    0  0.84321463299E+01 -0.19609160776E+02  0.15342820613E+02  0.26287305352E+02  0.51100000000E-03 0. -1.
        -11    1    3    3    0    0  0.12683589508E+02 -0.79748396852E+01  0.54310612152E-03  0.14982373356E+02  0.51100000000E-03 0.  1.
        -12    1    3    3    0    0 -0.11913659483E+02  0.28812402984E+02  0.91981264160E+00  0.31191920481E+02  0.00000000000E+00 0.  1.
</event>
<event>
 7    1  0.2656097E-013  0.7246153E+02  0.7816164E-02  0.1226708E+00
        -11   -1    0    0    0    0  0.00000000000E+00  0.00000000000E+00  0.45593999997E+02  0.45594000000E+02  0.51100000000E-03 0.  1.
         11   -1    0    0    0    0 -0.00000000000E+00 -0.00000000000E+00 -0.45593999997E+02  0.45594000000E+02  0.51100000000E-03 0. -1.
    9900012    2    1    2    0    0  0.14819165738E+02 -0.41184105608E+01 -0.10682300012E+02  0.72461534443E+02  0.69999953297E+02 0.  0.
        -12    1    1    2    0    0 -0.14819165738E+02  0.41184105608E+01  0.10682300012E+02  0.18726465557E+02  0.00000000000E+00 0.  1.
         11    1    3    3    0    0 -0.18318966369E+01  0.71126795635E-01 -0.15624462026E+01  0.24087637299E+01  0.51100000000E-03 0. -1.
        -11    1    3    3    0    0 -0.10904495623E+02  0.69711620705E+01  0.22934153040E+02  0.26334017948E+02  0.51100000000E-03 0.  1.
         12    1    3    3    0    0  0.27555557997E+02 -0.11160699427E+02 -0.32054006849E+02  0.43718752765E+02  0.00000000000E+00 0. -1.
</event>
<event>
 7    1  0.2656097E-013  0.7246197E+02  0.7816164E-02  0.1226707E+00
        -11   -1    0    0    0    0  0.00000000000E+00  0.00000000000E+00  0.45593999997E+02  0.45594000000E+02  0.51100000000E-03 0. -1.
         11   -1    0    0    0    0 -0.00000000000E+00 -0.00000000000E+00 -0.45593999997E+02  0.45594000000E+02  0.51100000000E-03 0.  1.
    9900012    2    1    2    0    0  0.11221083898E+02  0.14873195812E+02 -0.18813732612E+01  0.72461968844E+02  0.70000519183E+02 0.  0.
        -12    1    1    2    0    0 -0.11221083898E+02 -0.14873195812E+02  0.18813732612E+01  0.18726031156E+02  0.00000000000E+00 0.  1.
         11    1    3    3    0    0  0.73143737876E+01  0.89457546650E+00  0.71021459757E+01  0.10234295623E+02  0.51100000000E-03 0. -1.
        -11    1    3    3    0    0  0.14912176713E+02  0.34605822966E+02 -0.16233686905E+01  0.37716989854E+02  0.51100000000E-03 0.  1.
         12    1    3    3    0    0 -0.11005466603E+02 -0.20627202620E+02 -0.73601505465E+01  0.24510683367E+02  0.00000000000E+00 0. -1.
</event>
<event>
 7    1  0.2656097E-013  0.7246158E+02  0.7816164E-02  0.1226708E+00
        -11   -1    0    0    0    0  0.00000000000E+00  0.00000000000E+00  0.45593999997E+02  0.45594000000E+02  0.51100000000E-03 0. -1.
         11   -1    0    0    0    0 -0.00000000000E+00 -0.00000000000E+00 -0.45593999997E+02  0.45594000000E+02  0.51100000000E-03 0.  1.
    9900012    2    1    2    0    0 -0.52667340978E+01  0.17835995869E+02  0.21949028232E+01  0.72461579224E+02  0.70000011632E+02 0.  0.
        -12    1    1    2    0    0  0.52667340978E+01 -0.17835995869E+02 -0.21949028232E+01  0.18726420776E+02  0.00000000000E+00 0.  1.
         11    1    3    3    0    0  0.97335158628E+01 -0.74592390474E+01  0.35974802425E+01  0.12779806046E+02  0.51100000000E-03 0. -1.
        -11    1    3    3    0    0 -0.14386915595E+01  0.70388954203E+01 -0.25532255851E+02  0.26523800090E+02  0.51100000000E-03 0.  1.
         12    1    3    3    0    0 -0.13561558401E+02  0.18256339496E+02  0.24129678432E+02  0.33157973087E+02  0.00000000000E+00 0. -1.
</event>
<event>
 7    1  0.2656097E-013  0.7246158E+02  0.7816164E-02  0.1226708E+00
        -11   -1    0    0    0    0  0.00000000000E+00  0.00000000000E+00  0.45593999997E+02  0.45594000000E+02  0.51100000000E-03 0.  1.
         11   -1    0    0    0    0 -0.00000000000E+00 -0.00000000000E+00 -0.45593999997E+02  0.45594000000E+02  0.51100000000E-03 0. -1.
    9900012    2    1    2    0    0  0.11096698547E+02 -0.26972354162E+01  0.14841399656E+02  0.72461576389E+02  0.70000007939E+02 0.  0.
        -12    1    1    2    0    0 -0.11096698547E+02  0.26972354162E+01 -0.14841399656E+02  0.18726423611E+02  0.00000000000E+00 0.  1.
         11    1    3    3    0    0  0.32419877249E+00  0.11718918309E+02 -0.50498001482E+01  0.12764741791E+02  0.51100000000E-03 0. -1.
        -11    1    3    3    0    0  0.56168265897E+01  0.20944665869E+01 -0.17500257842E+02  0.18498501453E+02  0.51100000000E-03 0.  1.
        -12    1    3    3    0    0  0.51556731844E+01 -0.16510620313E+02  0.37391457645E+02  0.41198333145E+02  0.00000000000E+00 0.  1.
</event>
<event>
 7    1  0.2656097E-013  0.7246153E+02  0.7816164E-02  0.1226708E+00
        -11   -1    0    0    0    0  0.00000000000E+00  0.00000000000E+00  0.45593999997E+02  0.45594000000E+02  0.51100000000E-03 0.  1.
         11   -1    0    0    0    0 -0.00000000000E+00 -0.00000000000E+00 -0.45593999997E+02  0.45594000000E+02  0.51100000000E-03 0. -1.
    9900012    2    1    2    0    0  0.42543212338E+01 -0.13912872670E+02 -0.11790389627E+02  0.72461533098E+02  0.69999951545E+02 0.  0.
        -12    1    1    2    0    0 -0.42543212338E+01  0.13912872670E+02  0.11790389627E+02  0.18726466902E+02  0.00000000000E+00 0.  1.
         11    1    3    3    0    0  0.31572611209E+02 -0.15081554629E+02 -0.10424412359E+02  0.36509607529E+02  0.51100000000E-03 0. -1.
        -11    1    3    3    0    0 -0.58607978660E+01  0.96693006815E+01 -0.53866203152E+01  0.12524376471E+02  0.51100000000E-03 0.  1.
        -12    1    3    3    0    0 -0.21457492109E+02 -0.85006187215E+01  0.40206430475E+01  0.23427549099E+02  0.00000000000E+00 0.  1.
</event>
<event>
 7    1  0.2656097E-013  0.7246154E+02  0.7816164E-02  0.1226708E+00
        -11   -1    0    0    0    0  0.00000000000E+00  0.00000000000E+00  0.45593999997E+02  0.45594000000E+02  0.51100000000E-03 0.  1.
         11   -1    0    0    0    0 -0.00000000000E+00 -0.00000000000E+00 -0.45593999997E+02  0.45594000000E+02  0.51100000000E-03 0. -1.
    9900012    2    1    2    0    0 -0.71002181642E+00  0.16463665094E+02 -0.88951608169E+01  0.72461540503E+02  0.69999961192E+02 0.  0.
        -12    1    1    2    0    0  0.71002181642E+00 -0.16463665094E+02  0.88951608169E+01  0.18726459497E+02  0.00000000000E+00 0.  1.
         11    1    3    3    0    0  0.34894891622E+01 -0.69836937323E+01 -0.17622957727E+01  0.80033867463E+01  0.51100000000E-03 0. -1.
        -11    1    3    3    0    0  0.19524052476E+02 -0.10100971937E+02 -0.79095276914E+01  0.23361911047E+02  0.51100000000E-03 0.  1.
        -12    1    3    3    0    0 -0.23723563455E+02  0.33548330764E+02  0.77666264718E+00  0.41096242711E+02  0.00000000000E+00 0.  1.
</event>
<event>
 7    1  0.2656097E-013  0.7246158E+02  0.7816164E-02  0.1226708E+00
        -11   -1    0    0    0    0  0.00000000000E+00  0.00000000000E+00  0.45593999997E+02  0.45594000000E+02  0.51100000000E-03 0.  1.
         11   -1    0    0    0    0 -0.00000000000E+00 -0.00000000000E+00 -0.45593999997E+02  0.45594000000E+02  0.51100000000E-03 0. -1.
    9900012    2    1    2    0    0 -0.10831896140E+02  0.10872649443E+02 -0.10730065893E+02  0.72461580322E+02  0.70000013062E+02 0.  0.
        -12    1    1    2    0    0  0.10831896140E+02 -0.10872649443E+02  0.10730065893E+02  0.18726419678E+02  0.00000000000E+00 0.  1.
         11    1    3    3    0    0  0.56448058859E+01 -0.37579134501E+01 -0.12283261762E+02  0.14030832718E+02  0.51100000000E-03 0. -1.
        -11    1    3    3    0    0  0.16001510717E+02  0.11978332416E+02  0.13055286952E+02  0.23874030040E+02  0.51100000000E-03 0.  1.
         12    1    3    3    0    0 -0.32478212743E+02  0.26522304772E+01 -0.11502091083E+02  0.34556717563E+02  0.00000000000E+00 0. -1.
</event>
<event>
 7    1  0.2656097E-013  0.7246157E+02  0.7816164E-02  0.1226708E+00
        -11   -1    0    0    0    0  0.00000000000E+00  0.00000000000E+00  0.45593999997E+02  0.45594000000E+02  0.51100000000E-03 0. -1.
         11   -1    0    0    0    0 -0.00000000000E+00 -0.00000000000E+00 -0.45593999997E+02  0.45594000000E+02  0.51100000000E-03 0.  1.
    9900012    2    1    2    0    0 -0.11613321367E+02  0.86048650222E+00  0.14665247519E+02  0.72461570683E+02  0.70000000506E+02 0.  0.
        -12    1    1    2    0    0  0.11613321367E+02 -0.86048650222E+00 -0.14665247519E+02  0.18726429317E+02  0.00000000000E+00 0.  1.
         11    1    3    3    0    0 -0.14626290326E+01  0.52356672435E+01  0.30343614391E+01  0.62256601880E+01  0.51100000000E-03 0. -1.
        -11    1    3    3    0    0 -0.17917959299E+02  0.24111301511E+02  0.19330328532E+02  0.35722118182E+02  0.51100000000E-03 0.  1.
         12    1    3    3    0    0  0.77672669643E+01 -0.28486482253E+02 -0.76994424524E+01  0.30513792313E+02  0.00000000000E+00 0. -1.
</event>
<event>
 7    1  0.2656097E-013  0.7246155E+02  0.7816164E-02  0.1226708E+00
        -11   -1    0    0    0    0  0.00000000000E+00  0.00000000000E+00  0.45593999997E+02  0.45594000000E+02  0.51100000000E-03 0.  1.
         11   -1    0    0    0    0 -0.00000000000E+00 -0.00000000000E+00 -0.45593999997E+02  0.45594000000E+02  0.51100000000E-03 0. -1.
    9900012    2    1    2    0    0 -0.12387975505E+02  0.77260441329E+01 -0.11727154123E+02  0.72461552422E+02  0.69999976718E+02 0.  0.
        -12    1    1    2    0    0  0.12387975505E+02 -0.77260441329E+01  0.11727154123E+02  0.18726447578E+02  0.00000000000E+00 0.  1.
         11    1    3    3    0    0  0.30904600113E+01  0.15305216014E+02 -0.30871476980E+01  0.15916377147E+02  0.51100000000E-03 0. -1.
        -11    1    3    3    0    0 -0.10952051113E+02  0.19500592584E+02 -0.16721064584E+02  0.27925159548E+02  0.51100000000E-03 0.  1.
         12    1    3    3    0    0 -0.45263844034E+01 -0.27079764465E+02  0.80810581588E+01  0.28620015727E+02  0.00000000000E+00 0. -1.
</event>
<event>
 7    1  0.2656097E-013  0.7246156E+02  0.7816164E-02  0.1226708E+00
        -11   -1    0    0    0    0  0.00000000000E+00  0.00000000000E+00  0.45593999997E+02  0.45594000000E+02  0.51100000000E-03 0. -1.
         11   -1    0    0    0    0 -0.00000000000E+00 -0.00000000000E+00 -0.45593999997E+02  0.45594000000E+02  0.51100000000E-03 0.  1.
    9900012    2    1    2    0    0  0.80378606291E+01  0.46625090328E+01  0.16258331673E+02  0.72461560329E+02  0.69999987018E+02 0.  0.
        -12    1    1    2    0    0 -0.80378606291E+01 -0.46625090328E+01 -0.16258331673E+02  0.18726439671E+02  0.00000000000E+00 0.  1.
         11    1    3    3    0    0  0.11731424649E+02  0.69265104709E+01  0.12293061488E+02  0.18349992714E+02  0.51100000000E-03 0.  1.
        -11    1    3    3    0    0 -0.67950299026E+01  0.18764623900E+02  0.19408007431E+02  0.27838000901E+02  0.51100000000E-03 0. -1.
        -12    1    3    3    0    0  0.31014658830E+01 -0.21028625338E+02 -0.15442737246E+02  0.26273566714E+02  0.00000000000E+00 0.  1.
</event>
<event>
 7    1  0.2656097E-013  0.7246161E+02  0.7816164E-02  0.1226708E+00
        -11   -1    0    0    0    0  0.00000000000E+00  0.00000000000E+00  0.45593999997E+02  0.45594000000E+02  0.51100000000E-03 0.  1.
         11   -1    0    0    0    0 -0.00000000000E+00 -0.00000000000E+00 -0.45593999997E+02  0.45594000000E+02  0.51100000000E-03 0. -1.
    9900012    2    1    2    0    0 -0.83290743780E+01  0.68387527184E+01 -0.15314553372E+02  0.72461613170E+02  0.70000055853E+02 0.  0.
        -12    1    1    2    0    0  0.83290743780E+01 -0.68387527184E+01  0.15314553372E+02  0.18726386830E+02  0.00000000000E+00 0.  1.
         11    1    3    3    0    0 -0.10497686352E+02 -0.12111667104E+02 -0.14814697859E+02  0.21825883068E+02  0.51100000000E-03 0. -1.
        -11    1    3    3    0    0  0.30906768481E+01 -0.26187337966E+01 -0.20686470747E+02  0.21079376705E+02  0.51100000000E-03 0.  1.
         12    1    3    3    0    0 -0.92206487410E+00  0.21569153619E+02  0.20186615234E+02  0.29556353396E+02  0.00000000000E+00 0. -1.
</event>
<event>
 7    1  0.2656097E-013  0.7246160E+02  0.7816164E-02  0.1226708E+00
        -11   -1    0    0    0    0  0.00000000000E+00  0.00000000000E+00  0.45593999997E+02  0.45594000000E+02  0.51100000000E-03 0.  1.
         11   -1    0    0    0    0 -0.00000000000E+00 -0.00000000000E+00 -0.45593999997E+02  0.45594000000E+02  0.51100000000E-03 0. -1.
    9900012    2    1    2    0    0  0.86002646720E+00  0.61372306881E+00 -0.18696571815E+02  0.72461598873E+02  0.70000037229E+02 0.  0.
        -12    1    1    2    0    0 -0.86002646720E+00 -0.61372306881E+00  0.18696571815E+02  0.18726401127E+02  0.00000000000E+00 0.  1.
         11    1    3    3    0    0 -0.11206003276E+02  0.14942075386E+02 -0.10495366518E+01  0.18706727498E+02  0.51100000000E-03 0. -1.
        -11    1    3    3    0    0  0.16234069281E+01 -0.35637526927E+01  0.16235712383E+02  0.16701321510E+02  0.51100000000E-03 0.  1.
        -12    1    3    3    0    0  0.10442622815E+02 -0.10764599624E+02 -0.33882747547E+02  0.37053549865E+02  0.00000000000E+00 0.  1.
</event>
<event>
 7    1  0.2656097E-013  0.7246154E+02  0.7816164E-02  0.1226708E+00
        -11   -1    0    0    0    0  0.00000000000E+00  0.00000000000E+00  0.45593999997E+02  0.45594000000E+02  0.51100000000E-03 0.  1.
         11   -1    0    0    0    0 -0.00000000000E+00 -0.00000000000E+00 -0.45593999997E+02  0.45594000000E+02  0.51100000000E-03 0. -1.
    9900012    2    1    2    0    0 -0.82788268125E+01 -0.88315471786E+01 -0.14287929645E+02  0.72461544583E+02  0.69999966506E+02 0.  0.
        -12    1    1    2    0    0  0.82788268125E+01  0.88315471786E+01  0.14287929645E+02  0.18726455417E+02  0.00000000000E+00 0.  1.
         11    1    3    3    0    0 -0.92611176491E+01 -0.22343085063E+02 -0.72081109425E+01  0.25237642795E+02  0.51100000000E-03 0. -1.
        -11    1    3    3    0    0 -0.11495869187E+02 -0.50423891084E+00  0.14574730065E+02  0.18569653254E+02  0.51100000000E-03 0.  1.
         12    1    3    3    0    0  0.12478160024E+02  0.14015776795E+02 -0.21654548767E+02  0.28654248534E+02  0.00000000000E+00 0. -1.
</event>
<event>
 7    1  0.2656097E-013  0.7246161E+02  0.7816164E-02  0.1226708E+00
        -11   -1    0    0    0    0  0.00000000000E+00  0.00000000000E+00  0.45593999997E+02  0.45594000000E+02  0.51100000000E-03 0. -1.
         11   -1    0    0    0    0 -0.00000000000E+00 -0.00000000000E+00 -0.45593999997E+02  0.45594000000E+02  0.51100000000E-03 0.  1.
    9900012    2    1    2    0    0  0.35582986853E+01 -0.87218845700E+01  0.16184710201E+02  0.72461612087E+02  0.70000054442E+02 0.  0.
        -12    1    1    2    0    0 -0.35582986853E+01  0.87218845700E+01 -0.16184710201E+02  0.18726387913E+02  0.00000000000E+00 0.  1.
         11    1    3    3    0    0 -0.12426647817E+01  0.18423439136E+02  0.11545497713E+02  0.21777645489E+02  0.51100000000E-03 0. -1.
        -11    1    3    3    0    0 -0.27266044881E+01  0.75126133543E+01 -0.95780162312E+01  0.12474458972E+02  0.51100000000E-03 0.  1.
         12    1    3    3    0    0  0.75275679551E+01 -0.34657937060E+02  0.14217228720E+02  0.38209507626E+02  0.00000000000E+00 0. -1.
</event>
<event>
 7    1  0.2656097E-013  0.7246153E+02  0.7816164E-02  0.1226708E+00
        -11   -1    0    0    0    0  0.00000000000E+00  0.00000000000E+00  0.45593999997E+02  0.45594000000E+02  0.51100000000E-03 0.  1.
         11   -1    0    0    0    0 -0.00000000000E+00 -0.00000000000E+00 -0.45593999997E+02  0.45594000000E+02  0.51100000000E-03 0. -1.
    9900012    2    1    2    0    0 -0.13738278797E+02  0.15184967345E+01 -0.12634660878E+02  0.72461526970E+02  0.69999943562E+02 0.  0.
        -12    1    1    2    0    0  0.13738278797E+02 -0.15184967345E+01  0.12634660878E+02  0.18726473030E+02  0.00000000000E+00 0.  1.
         11    1    3    3    0    0 -0.38792214063E+01  0.18290542038E+01 -0.12963241221E+02  0.13654282156E+02  0.51100000000E-03 0. -1.
        -11    1    3    3    0    0 -0.15370051309E+01 -0.62833962029E+01 -0.27971802322E+02  0.28710018774E+02  0.51100000000E-03 0.  1.
        -12    1    3    3    0    0 -0.83220522596E+01  0.59728387337E+01  0.28300382664E+02  0.30097226040E+02  0.00000000000E+00 0.  1.
</event>
<event>
 7    1  0.2656097E-013  0.7246125E+02  0.7816164E-02  0.1226709E+00
        -11   -1    0    0    0    0  0.00000000000E+00  0.00000000000E+00  0.45593999997E+02  0.45594000000E+02  0.51100000000E-03 0.  1.
         11   -1    0    0    0    0 -0.00000000000E+00 -0.00000000000E+00 -0.45593999997E+02  0.45594000000E+02  0.51100000000E-03 0. -1.
    9900012    2    1    2    0    0  0.13311545741E+02 -0.39226131832E+00 -0.13165872198E+02  0.72461246152E+02  0.69999577743E+02 0.  0.
        -12    1    1    2    0    0 -0.13311545741E+02  0.39226131832E+00  0.13165872198E+02  0.18726753848E+02  0.00000000000E+00 0.  1.
         11    1    3    3    0    0  0.88942474305E+01  0.14383481895E+02 -0.29396588050E+02  0.33913884738E+02  0.51100000000E-03 0. -1.
        -11    1    3    3    0    0  0.14598330377E+02  0.24269663259E+01  0.88231959752E+01  0.17229341334E+02  0.51100000000E-03 0.  1.
        -12    1    3    3    0    0 -0.10181032066E+02 -0.17202709539E+02  0.74075198759E+01  0.21318020080E+02  0.00000000000E+00 0.  1.
</event>
<event>
 7    1  0.2656097E-013  0.7246178E+02  0.7816164E-02  0.1226707E+00
        -11   -1    0    0    0    0  0.00000000000E+00  0.00000000000E+00  0.45593999997E+02  0.45594000000E+02  0.51100000000E-03 0. -1.
         11   -1    0    0    0    0 -0.00000000000E+00 -0.00000000000E+00 -0.45593999997E+02  0.45594000000E+02  0.51100000000E-03 0.  1.
    9900012    2    1    2    0    0 -0.92547498140E+01 -0.27060901287E+01  0.16052976925E+02  0.72461778116E+02  0.70000270726E+02 0.  0.
        -12    1    1    2    0    0  0.92547498140E+01  0.27060901287E+01 -0.16052976925E+02  0.18726221884E+02  0.00000000000E+00 0.  1.
         11    1    3    3    0    0 -0.18858327698E+02  0.19418673022E+01 -0.65803066565E+01  0.20067581024E+02  0.51100000000E-03 0. -1.
        -11    1    3    3    0    0 -0.20579855902E+01  0.50541142774E+01 -0.12764914343E+02  0.13882449866E+02  0.51100000000E-03 0.  1.
         12    1    3    3    0    0  0.11661563474E+02 -0.97020717083E+01  0.35398197925E+02  0.38511747226E+02  0.00000000000E+00 0. -1.
</event>
<event>
 7    1  0.2656097E-013  0.7246158E+02  0.7816164E-02  0.1226708E+00
        -11   -1    0    0    0    0  0.00000000000E+00  0.00000000000E+00  0.45593999997E+02  0.45594000000E+02  0.51100000000E-03 0.  1.
         11   -1    0    0    0    0 -0.00000000000E+00 -0.00000000000E+00 -0.45593999997E+02  0.45594000000E+02  0.51100000000E-03 0. -1.
    9900012    2    1    2    0    0  0.13480036663E+02 -0.11068958124E+02  0.68150961981E+01  0.72461581267E+02  0.70000014293E+02 0.  0.
        -12    1    1    2    0    0 -0.13480036663E+02  0.11068958124E+02 -0.68150961981E+01  0.18726418733E+02  0.00000000000E+00 0.  1.
         11    1    3    3    0    0 -0.15067703838E+02 -0.10222619858E+02 -0.93146238426E+01  0.20452380627E+02  0.51100000000E-03 0. -1.
        -11    1    3    3    0    0  0.27975441232E+02 -0.48381006737E+00 -0.70222018562E+01  0.28847369091E+02  0.51100000000E-03 0.  1.
         12    1    3    3    0    0  0.57229926954E+00 -0.36252819867E+00  0.23151921897E+02  0.23161831548E+02  0.00000000000E+00 0. -1.
</event>
<event>
 7    1  0.2656097E-013  0.7246156E+02  0.7816164E-02  0.1226708E+00
        -11   -1    0    0    0    0  0.00000000000E+00  0.00000000000E+00  0.45593999997E+02  0.45594000000E+02  0.51100000000E-03 0.  1.
         11   -1    0    0    0    0 -0.00000000000E+00 -0.00000000000E+00 -0.45593999997E+02  0.45594000000E+02  0.51100000000E-03 0. -1.
    9900012    2    1    2    0    0  0.11976775515E+02  0.14139255454E+02 -0.27051468592E+01  0.72461561041E+02  0.69999987946E+02 0.  0.
        -12    1    1    2    0    0 -0.11976775515E+02 -0.14139255454E+02  0.27051468592E+01  0.18726438959E+02  0.00000000000E+00 0.  1.
         11    1    3    3    0    0  0.31663341160E+00  0.16116697651E+02 -0.32773901494E+02  0.36523647399E+02  0.51100000000E-03 0. -1.
        -11    1    3    3    0    0  0.69902249689E+01 -0.18310326900E+01  0.20205609001E+01  0.75032387967E+01  0.51100000000E-03 0.  1.
        -12    1    3    3    0    0  0.46699171347E+01 -0.14640950663E+00  0.28048193735E+02  0.28434674846E+02  0.00000000000E+00 0.  1.
</event>
<event>
 7    1  0.2656097E-013  0.7246157E+02  0.7816164E-02  0.1226708E+00
        -11   -1    0    0    0    0  0.00000000000E+00  0.00000000000E+00  0.45593999997E+02  0.45594000000E+02  0.51100000000E-03 0.  1.
         11   -1    0    0    0    0 -0.00000000000E+00 -0.00000000000E+00 -0.45593999997E+02  0.45594000000E+02  0.51100000000E-03 0. -1.
    9900012    2    1    2    0    0  0.30554127236E-01 -0.10528967907E+02  0.15486098871E+02  0.72461565289E+02  0.69999993480E+02 0.  0.
        -12    1    1    2    0    0 -0.30554127236E-01  0.10528967907E+02 -0.15486098871E+02  0.18726434711E+02  0.00000000000E+00 0.  1.
         11    1    3    3    0    0  0.10638123721E+01 -0.19494165009E+02 -0.14434744350E+02  0.24279950800E+02  0.51100000000E-03 0. -1.
        -11    1    3    3    0    0 -0.13713193615E+02 -0.60408604326E+01  0.37311761222E+01  0.15442323316E+02  0.51100000000E-03 0.  1.
         12    1    3    3    0    0  0.12679935370E+02  0.15006057535E+02  0.26189667099E+02  0.32739291172E+02  0.00000000000E+00 0. -1.
</event>
<event>
 7    1  0.2656097E-013  0.7246149E+02  0.7816164E-02  0.1226708E+00
        -11   -1    0    0    0    0  0.00000000000E+00  0.00000000000E+00  0.45593999997E+02  0.45594000000E+02  0.51100000000E-03 0. -1.
         11   -1    0    0    0    0 -0.00000000000E+00 -0.00000000000E+00 -0.45593999997E+02  0.45594000000E+02  0.51100000000E-03 0.  1.
    9900012    2    1    2    0    0  0.12328989350E+02  0.14078177442E+02 -0.69508677283E+00  0.72461489270E+02  0.69999894451E+02 0.  0.
        -12    1    1    2    0    0 -0.12328989350E+02 -0.14078177442E+02  0.69508677283E+00  0.18726510730E+02  0.00000000000E+00 0.  1.
         11    1    3    3    0    0 -0.63623995013E+01  0.54993333297E+01  0.10976793647E+02  0.13827971417E+02  0.51100000000E-03 0. -1.
        -11    1    3    3    0    0  0.90626067661E+01  0.28905219126E+02  0.49128664741E+01  0.30688414611E+02  0.51100000000E-03 0.  1.
         12    1    3    3    0    0  0.96287820855E+01 -0.20326375014E+02 -0.16584746894E+02  0.27945103242E+02  0.00000000000E+00 0. -1.
</event>
<event>
 7    1  0.2656097E-013  0.7246144E+02  0.7816164E-02  0.1226708E+00
        -11   -1    0    0    0    0  0.00000000000E+00  0.00000000000E+00  0.45593999997E+02  0.45594000000E+02  0.51100000000E-03 0.  1.
         11   -1    0    0    0    0 -0.00000000000E+00 -0.00000000000E+00 -0.45593999997E+02  0.45594000000E+02  0.51100000000E-03 0. -1.
    9900012    2    1    2    0    0 -0.16491597040E+01  0.85743808406E+01 -0.16566362488E+02  0.72461438634E+02  0.69999828487E+02 0.  0.
        -12    1    1    2    0    0  0.16491597040E+01 -0.85743808406E+01  0.16566362488E+02  0.18726561366E+02  0.00000000000E+00 0.  1.
         11    1    3    3    0    0 -0.11882297674E+02 -0.97388219533E+01  0.29798038694E+01  0.15649692726E+02  0.51100000000E-03 0. -1.
        -11    1    3    3    0    0 -0.98922885535E+01 -0.12774730697E+02 -0.39828048524E+01  0.16640728709E+02  0.51100000000E-03 0.  1.
        -12    1    3    3    0    0  0.20125426523E+02  0.31087933491E+02 -0.15563361505E+02  0.40171017199E+02  0.00000000000E+00 0.  1.
</event>
<event>
 7    1  0.2656097E-013  0.7246158E+02  0.7816164E-02  0.1226708E+00
        -11   -1    0    0    0    0  0.00000000000E+00  0.00000000000E+00  0.45593999997E+02  0.45594000000E+02  0.51100000000E-03 0.  1.
         11   -1    0    0    0    0 -0.00000000000E+00 -0.00000000000E+00 -0.45593999997E+02  0.45594000000E+02  0.51100000000E-03 0. -1.
    9900012    2    1    2    0    0  0.12889622164E+02 -0.11807475408E+02 -0.67171356951E+01  0.72461581577E+02  0.70000014697E+02 0.  0.
        -12    1    1    2    0    0 -0.12889622164E+02  0.11807475408E+02  0.67171356951E+01  0.18726418423E+02  0.00000000000E+00 0.  1.
         11    1    3    3    0    0  0.61402117012E+01 -0.24804252541E+02  0.98177750075E+01  0.27374109122E+02  0.51100000000E-03 0. -1.
        -11    1    3    3    0    0 -0.10208263224E+02 -0.87718317460E+01 -0.98963893129E+01  0.16706052553E+02  0.51100000000E-03 0.  1.
         12    1    3    3    0    0  0.16957673686E+02  0.21768608879E+02 -0.66385213897E+01  0.28381419901E+02  0.00000000000E+00 0. -1.
</event>
<event>
 7    1  0.2656097E-013  0.7246163E+02  0.7816164E-02  0.1226708E+00
        -11   -1    0    0    0    0  0.00000000000E+00  0.00000000000E+00  0.45593999997E+02  0.45594000000E+02  0.51100000000E-03 0. -1.
         11   -1    0    0    0    0 -0.00000000000E+00 -0.00000000000E+00 -0.45593999997E+02  0.45594000000E+02  0.51100000000E-03 0.  1.
    9900012    2    1    2    0    0  0.17799516238E+02 -0.11210385186E+01 -0.57094105613E+01  0.72461631568E+02  0.70000079821E+02 0.  0.
        -12    1    1    2    0    0 -0.17799516238E+02  0.11210385186E+01  0.57094105613E+01  0.18726368432E+02  0.00000000000E+00 0.  1.
         11    1    3    3    0    0 -0.23958679369E+01 -0.11567265891E+01  0.41685965219E+01  0.49452398118E+01  0.51100000000E-03 0. -1.
        -11    1    3    3    0    0 -0.86117705777E+01  0.22351255947E+02  0.10059109746E+02  0.25979355728E+02  0.51100000000E-03 0.  1.
         12    1    3    3    0    0  0.28807154753E+02 -0.22315567877E+02 -0.19937116829E+02  0.41537036029E+02  0.00000000000E+00 0. -1.
</event>
<event>
 7    1  0.2656097E-013  0.7246138E+02  0.7816164E-02  0.1226709E+00
        -11   -1    0    0    0    0  0.00000000000E+00  0.00000000000E+00  0.45593999997E+02  0.45594000000E+02  0.51100000000E-03 0. -1.
         11   -1    0    0    0    0 -0.00000000000E+00 -0.00000000000E+00 -0.45593999997E+02  0.45594000000E+02  0.51100000000E-03 0.  1.
    9900012    2    1    2    0    0 -0.96917848802E+01  0.56303839767E+01  0.15001806806E+02  0.72461384573E+02  0.69999758063E+02 0.  0.
        -12    1    1    2    0    0  0.96917848802E+01 -0.56303839767E+01 -0.15001806806E+02  0.18726615427E+02  0.00000000000E+00 0.  1.
         11    1    3    3    0    0  0.76216767503E+01  0.21426360339E+02 -0.31225590044E+01  0.22954939531E+02  0.51100000000E-03 0. -1.
        -11    1    3    3    0    0  0.87472551916E+01 -0.19497593908E+01 -0.65005175697E+01  0.11071258465E+02  0.51100000000E-03 0.  1.
        -12    1    3    3    0    0 -0.26060716822E+02 -0.13846216972E+02  0.24624883381E+02  0.38435186577E+02  0.00000000000E+00 0.  1.
</event>
<event>
 7    1  0.2656097E-013  0.7246152E+02  0.7816164E-02  0.1226708E+00
        -11   -1    0    0    0    0  0.00000000000E+00  0.00000000000E+00  0.45593999997E+02  0.45594000000E+02  0.51100000000E-03 0. -1.
         11   -1    0    0    0    0 -0.00000000000E+00 -0.00000000000E+00 -0.45593999997E+02  0.45594000000E+02  0.51100000000E-03 0.  1.
    9900012    2    1    2    0    0  0.92024174503E+01 -0.16123149111E+02  0.24577331455E+01  0.72461524721E+02  0.69999940632E+02 0.  0.
        -12    1    1    2    0    0 -0.92024174503E+01  0.16123149111E+02 -0.24577331455E+01  0.18726475279E+02  0.00000000000E+00 0.  1.
         11    1    3    3    0    0 -0.10130206205E+02  0.42254025161E+01  0.22865337676E+02  0.25363335181E+02  0.51100000000E-03 0. -1.
        -11    1    3    3    0    0 -0.48158693604E+01 -0.14834102012E+02 -0.99594445399E+00  0.15628022453E+02  0.51100000000E-03 0.  1.
        -12    1    3    3    0    0  0.24148493016E+02 -0.55144496151E+01 -0.19411660077E+02  0.31470167086E+02  0.00000000000E+00 0.  1.
</event>
<event>
 7    1  0.2656097E-013  0.7246164E+02  0.7816164E-02  0.1226708E+00
        -11   -1    0    0    0    0  0.00000000000E+00  0.00000000000E+00  0.45593999997E+02  0.45594000000E+02  0.51100000000E-03 0.  1.
         11   -1    0    0    0    0 -0.00000000000E+00 -0.00000000000E+00 -0.45593999997E+02  0.45594000000E+02  0.51100000000E-03 0. -1.
    9900012    2    1    2    0    0  0.11952808751E+02  0.12369226475E+02 -0.74033262092E+01  0.72461637845E+02  0.70000087997E+02 0.  0.
        -12    1    1    2    0    0 -0.11952808751E+02 -0.12369226475E+02  0.74033262092E+01  0.18726362155E+02  0.00000000000E+00 0.  1.
         11    1    3    3    0    0 -0.34782471301E+01  0.56250244833E+00  0.25046243173E+01  0.43229336490E+01  0.51100000000E-03 0. -1.
        -11    1    3    3    0    0 -0.85125475974E+01  0.21316167274E+02  0.18724605822E+02  0.29621838520E+02  0.51100000000E-03 0.  1.
         12    1    3    3    0    0  0.23943603478E+02 -0.95094432477E+01 -0.28632556349E+02  0.38516865675E+02  0.00000000000E+00 0. -1.
</event>
<event>
 7    1  0.2656097E-013  0.7246157E+02  0.7816164E-02  0.1226708E+00
        -11   -1    0    0    0    0  0.00000000000E+00  0.00000000000E+00  0.45593999997E+02  0.45594000000E+02  0.51100000000E-03 0.  1.
         11   -1    0    0    0    0 -0.00000000000E+00 -0.00000000000E+00 -0.45593999997E+02  0.45594000000E+02  0.51100000000E-03 0. -1.
    9900012    2    1    2    0    0 -0.16100186243E+02  0.93834668731E+01  0.18475933093E+01  0.72461573522E+02  0.70000004204E+02 0.  0.
        -12    1    1    2    0    0  0.16100186243E+02 -0.93834668731E+01 -0.18475933093E+01  0.18726426478E+02  0.00000000000E+00 0.  1.
         11    1    3    3    0    0 -0.18418830211E+02  0.81181891675E+00  0.71407738226E+01  0.19771267217E+02  0.51100000000E-03 0. -1.
        -11    1    3    3    0    0 -0.15647815146E+01  0.29294781224E+02  0.40761786200E+01  0.29618372349E+02  0.51100000000E-03 0.  1.
         12    1    3    3    0    0  0.38834254830E+01 -0.20723133268E+02 -0.93693591333E+01  0.23071933957E+02  0.00000000000E+00 0. -1.
</event>
<event>
 7    1  0.2656097E-013  0.7246154E+02  0.7816164E-02  0.1226708E+00
        -11   -1    0    0    0    0  0.00000000000E+00  0.00000000000E+00  0.45593999997E+02  0.45594000000E+02  0.51100000000E-03 0.  1.
         11   -1    0    0    0    0 -0.00000000000E+00 -0.00000000000E+00 -0.45593999997E+02  0.45594000000E+02  0.51100000000E-03 0. -1.
    9900012    2    1    2    0    0  0.44571061332E+01  0.65234859440E+01 -0.16978179661E+02  0.72461541484E+02  0.69999962470E+02 0.  0.
        -12    1    1    2    0    0 -0.44571061332E+01 -0.65234859440E+01  0.16978179661E+02  0.18726458516E+02  0.00000000000E+00 0.  1.
         11    1    3    3    0    0  0.12536752276E+02 -0.71947101912E+01 -0.38598090364E+02  0.41215853653E+02  0.51100000000E-03 0. -1.
        -11    1    3    3    0    0 -0.50447254900E+01 -0.18528842727E+01  0.14157105507E+01  0.55575778917E+01  0.51100000000E-03 0.  1.
        -12    1    3    3    0    0 -0.30349206525E+01  0.15571080408E+02  0.20204200153E+02  0.25688109939E+02  0.00000000000E+00 0.  1.
</event>
<event>
 7    1  0.2656097E-013  0.7246161E+02  0.7816164E-02  0.1226708E+00
        -11   -1    0    0    0    0  0.00000000000E+00  0.00000000000E+00  0.45593999997E+02  0.45594000000E+02  0.51100000000E-03 0. -1.
         11   -1    0    0    0    0 -0.00000000000E+00 -0.00000000000E+00 -0.45593999997E+02  0.45594000000E+02  0.51100000000E-03 0.  1.
    9900012    2    1    2    0    0  0.16196718709E+01 -0.18655516012E+02  0.16173896673E+00  0.72461607552E+02  0.70000048534E+02 0.  0.
        -12    1    1    2    0    0 -0.16196718709E+01  0.18655516012E+02 -0.16173896673E+00  0.18726392448E+02  0.00000000000E+00 0.  1.
         11    1    3    3    0    0 -0.83072698842E+01 -0.20943067628E+01  0.70483231432E+01  0.11093949393E+02  0.51100000000E-03 0. -1.
        -11    1    3    3    0    0  0.36188773097E+01 -0.13248685903E+01 -0.31503188572E+02  0.31738028298E+02  0.51100000000E-03 0.  1.
         12    1    3    3    0    0  0.63080644454E+01 -0.15236340659E+02  0.24616604395E+02  0.29629629861E+02  0.00000000000E+00 0. -1.
</event>
<event>
 7    1  0.2656097E-013  0.7246157E+02  0.7816164E-02  0.1226708E+00
        -11   -1    0    0    0    0  0.00000000000E+00  0.00000000000E+00  0.45593999997E+02  0.45594000000E+02  0.51100000000E-03 0.  1.
         11   -1    0    0    0    0 -0.00000000000E+00 -0.00000000000E+00 -0.45593999997E+02  0.45594000000E+02  0.51100000000E-03 0. -1.
    9900012    2    1    2    0    0 -0.13673738711E+01  0.15415463677E+02 -0.10543858837E+02  0.72461569725E+02  0.69999999258E+02 0.  0.
        -12    1    1    2    0    0  0.13673738711E+01 -0.15415463677E+02  0.10543858837E+02  0.18726430275E+02  0.00000000000E+00 0.  1.
         11    1    3    3    0    0 -0.23196930795E+02  0.70270764237E+00 -0.22315019170E+02  0.32195519520E+02  0.51100000000E-03 0. -1.
        -11    1    3    3    0    0 -0.43358567332E+01  0.23088751542E+01  0.10135637926E+02  0.11263290572E+02  0.51100000000E-03 0.  1.
         12    1    3    3    0    0  0.26165413658E+02  0.12403880880E+02  0.16355224068E+01  0.29002759633E+02  0.00000000000E+00 0. -1.
</event>
<event>
 7    1  0.2656097E-013  0.7246158E+02  0.7816164E-02  0.1226708E+00
        -11   -1    0    0    0    0  0.00000000000E+00  0.00000000000E+00  0.45593999997E+02  0.45594000000E+02  0.51100000000E-03 0. -1.
         11   -1    0    0    0    0 -0.00000000000E+00 -0.00000000000E+00 -0.45593999997E+02  0.45594000000E+02  0.51100000000E-03 0.  1.
    9900012    2    1    2    0    0  0.47145381458E+01 -0.70985682862E+01  0.16675201747E+02  0.72461577626E+02  0.70000009550E+02 0.  0.
        -12    1    1    2    0    0 -0.47145381458E+01  0.70985682862E+01 -0.16675201747E+02  0.18726422374E+02  0.00000000000E+00 0.  1.
         11    1    3    3    0    0  0.17067432553E+02 -0.22179331650E+02  0.26625516045E+01  0.28112438309E+02  0.51100000000E-03 0. -1.
        -11    1    3    3    0    0  0.89740683703E+01  0.35717438326E+01 -0.72757494709E+01  0.12092468224E+02  0.51100000000E-03 0.  1.
         12    1    3    3    0    0 -0.21326962777E+02  0.11509019531E+02  0.21288399613E+02  0.32256671092E+02  0.00000000000E+00 0. -1.
</event>
<event>
 7    1  0.2656097E-013  0.7246150E+02  0.7816164E-02  0.1226708E+00
        -11   -1    0    0    0    0  0.00000000000E+00  0.00000000000E+00  0.45593999997E+02  0.45594000000E+02  0.51100000000E-03 0. -1.
         11   -1    0    0    0    0 -0.00000000000E+00 -0.00000000000E+00 -0.45593999997E+02  0.45594000000E+02  0.51100000000E-03 0.  1.
    9900012    2    1    2    0    0  0.10678865935E+02 -0.81599658796E+01  0.13040646080E+02  0.72461503504E+02  0.69999912993E+02 0.  0.
        -12    1    1    2    0    0 -0.10678865935E+02  0.81599658796E+01 -0.13040646080E+02  0.18726496496E+02  0.00000000000E+00 0.  1.
         11    1    3    3    0    0 -0.99499217397E+01  0.19205214874E+02 -0.11170489383E+02  0.24343809363E+02  0.51100000000E-03 0. -1.
        -11    1    3    3    0    0  0.10841753724E+02 -0.12544094353E+02 -0.17395947367E+01  0.16671056267E+02  0.51100000000E-03 0.  1.
        -12    1    3    3    0    0  0.97870339507E+01 -0.14821086401E+02  0.25950730200E+02  0.31446637874E+02  0.00000000000E+00 0.  1.
</event>
<event>
 7    1  0.2656097E-013  0.7246153E+02  0.7816164E-02  0.1226708E+00
        -11   -1    0    0    0    0  0.00000000000E+00  0.00000000000E+00  0.45593999997E+02  0.45594000000E+02  0.51100000000E-03 0. -1.
         11   -1    0    0    0    0 -0.00000000000E+00 -0.00000000000E+00 -0.45593999997E+02  0.45594000000E+02  0.51100000000E-03 0.  1.
    9900012    2    1    2    0    0  0.55202739982E+00 -0.60190001879E+01  0.17724209682E+02  0.72461529260E+02  0.69999946545E+02 0.  0.
        -12    1    1    2    0    0 -0.55202739982E+00  0.60190001879E+01 -0.17724209682E+02  0.18726470740E+02  0.00000000000E+00 0.  1.
         11    1    3    3    0    0  0.71161397977E+01 -0.21552469058E+02  0.26010915120E+02  0.34521240907E+02  0.51100000000E-03 0. -1.
        -11    1    3    3    0    0  0.11805581350E+02  0.23499113479E+01  0.33720562747E+01  0.12500583912E+02  0.51100000000E-03 0.  1.
        -12    1    3    3    0    0 -0.18369693748E+02  0.13183557523E+02 -0.11658761713E+02  0.25439704441E+02  0.00000000000E+00 0.  1.
</event>
<event>
 7    1  0.2656097E-013  0.7246157E+02  0.7816164E-02  0.1226708E+00
        -11   -1    0    0    0    0  0.00000000000E+00  0.00000000000E+00  0.45593999997E+02  0.45594000000E+02  0.51100000000E-03 0. -1.
         11   -1    0    0    0    0 -0.00000000000E+00 -0.00000000000E+00 -0.45593999997E+02  0.45594000000E+02  0.51100000000E-03 0.  1.
    9900012    2    1    2    0    0 -0.13339110339E+02  0.13141634685E+02  0.21155356664E+00  0.72461569968E+02  0.69999999574E+02 0.  0.
        -12    1    1    2    0    0  0.13339110339E+02 -0.13141634685E+02 -0.21155356664E+00  0.18726430032E+02  0.00000000000E+00 0.  1.
         11    1    3    3    0    0 -0.25763698029E+02 -0.45426523221E+01  0.68276613193E+01  0.27037396058E+02  0.51100000000E-03 0. -1.
        -11    1    3    3    0    0  0.34262341059E+01 -0.11923703164E+02 -0.74436277518E+01  0.14467942896E+02  0.51100000000E-03 0.  1.
        -12    1    3    3    0    0  0.89983535840E+01  0.29607990171E+02  0.82751999919E+00  0.30956231013E+02  0.00000000000E+00 0.  1.
</event>
<event>
 7    1  0.2656097E-013  0.7246158E+02  0.7816164E-02  0.1226708E+00
        -11   -1    0    0    0    0  0.00000000000E+00  0.00000000000E+00  0.45593999997E+02  0.45594000000E+02  0.51100000000E-03 0. -1.
         11   -1    0    0    0    0 -0.00000000000E+00 -0.00000000000E+00 -0.45593999997E+02  0.45594000000E+02  0.51100000000E-03 0.  1.
    9900012    2    1    2    0    0  0.36502015970E+01 -0.12313390041E+02  0.13628467804E+02  0.72461583346E+02  0.70000017003E+02 0.  0.
        -12    1    1    2    0    0 -0.36502015970E+01  0.12313390041E+02 -0.13628467804E+02  0.18726416654E+02  0.00000000000E+00 0.  1.
         11    1    3    3    0    0 -0.10485982420E+02 -0.23488548235E+02  0.11543521878E+02  0.28194336720E+02  0.51100000000E-03 0. -1.
        -11    1    3    3    0    0  0.59796900187E+01 -0.11255738443E+02  0.12836731468E+02  0.18089500149E+02  0.51100000000E-03 0.  1.
        -12    1    3    3    0    0  0.81564939981E+01  0.22430896637E+02 -0.10751785541E+02  0.26177746477E+02  0.00000000000E+00 0.  1.
</event>
<event>
 7    1  0.2656097E-013  0.7246157E+02  0.7816164E-02  0.1226708E+00
        -11   -1    0    0    0    0  0.00000000000E+00  0.00000000000E+00  0.45593999997E+02  0.45594000000E+02  0.51100000000E-03 0. -1.
         11   -1    0    0    0    0 -0.00000000000E+00 -0.00000000000E+00 -0.45593999997E+02  0.45594000000E+02  0.51100000000E-03 0.  1.
    9900012    2    1    2    0    0 -0.10135182905E+02 -0.88970960805E+01  0.12992262412E+02  0.72461571249E+02  0.70000001244E+02 0.  0.
        -12    1    1    2    0    0  0.10135182905E+02  0.88970960805E+01 -0.12992262412E+02  0.18726428751E+02  0.00000000000E+00 0.  1.
         11    1    3    3    0    0 -0.50731445441E+01 -0.54203591136E+00  0.36068073611E+01  0.62481723805E+01  0.51100000000E-03 0. -1.
        -11    1    3    3    0    0 -0.22468304321E+02  0.24014381637E+01 -0.20154670883E+02  0.30278744408E+02  0.51100000000E-03 0.  1.
         12    1    3    3    0    0  0.17406265959E+02 -0.10756498333E+02  0.29540125933E+02  0.35934654460E+02  0.00000000000E+00 0. -1.
</event>
<event>
 7    1  0.2656097E-013  0.7246161E+02  0.7816164E-02  0.1226708E+00
        -11   -1    0    0    0    0  0.00000000000E+00  0.00000000000E+00  0.45593999997E+02  0.45594000000E+02  0.51100000000E-03 0.  1.
         11   -1    0    0    0    0 -0.00000000000E+00 -0.00000000000E+00 -0.45593999997E+02  0.45594000000E+02  0.51100000000E-03 0. -1.
    9900012    2    1    2    0    0  0.69125441974E+01  0.93237547790E+01 -0.14695647799E+02  0.72461608605E+02  0.70000049907E+02 0.  0.
        -12    1    1    2    0    0 -0.69125441974E+01 -0.93237547790E+01  0.14695647799E+02  0.18726391395E+02  0.00000000000E+00 0.  1.
         11    1    3    3    0    0 -0.12281659075E+02  0.14861024206E+01 -0.72887598171E+01  0.14358748900E+02  0.51100000000E-03 0. -1.
        -11    1    3    3    0    0 -0.16804408000E+02  0.44968522095E+01  0.75683912891E+01  0.18970776341E+02  0.51100000000E-03 0.  1.
        -12    1    3    3    0    0  0.35998611272E+02  0.33408001488E+01 -0.14975279271E+02  0.39132083364E+02  0.00000000000E+00 0.  1.
</event>
<event>
 7    1  0.2656097E-013  0.7246152E+02  0.7816164E-02  0.1226708E+00
        -11   -1    0    0    0    0  0.00000000000E+00  0.00000000000E+00  0.45593999997E+02  0.45594000000E+02  0.51100000000E-03 0.  1.
         11   -1    0    0    0    0 -0.00000000000E+00 -0.00000000000E+00 -0.45593999997E+02  0.45594000000E+02  0.51100000000E-03 0. -1.
    9900012    2    1    2    0    0  0.69150634359E+01 -0.16859806500E+00 -0.17402140518E+02  0.72461520826E+02  0.69999935559E+02 0.  0.
        -12    1    1    2    0    0 -0.69150634359E+01  0.16859806500E+00  0.17402140518E+02  0.18726479174E+02  0.00000000000E+00 0.  1.
         11    1    3    3    0    0 -0.19641190675E+02  0.25401362853E+00 -0.13001911639E+02  0.23556115992E+02  0.51100000000E-03 0. -1.
        -11    1    3    3    0    0 -0.17645413949E+00 -0.15405164883E+02 -0.91138006953E+01  0.17900044818E+02  0.51100000000E-03 0.  1.
        -12    1    3    3    0    0  0.26732708251E+02  0.14982553189E+02  0.47135718166E+01  0.31005360017E+02  0.00000000000E+00 0.  1.
</event>
<event>
 7    1  0.2656097E-013  0.7246172E+02  0.7816164E-02  0.1226708E+00
        -11   -1    0    0    0    0  0.00000000000E+00  0.00000000000E+00  0.45593999997E+02  0.45594000000E+02  0.51100000000E-03 0. -1.
         11   -1    0    0    0    0 -0.00000000000E+00 -0.00000000000E+00 -0.45593999997E+02  0.45594000000E+02  0.51100000000E-03 0.  1.
    9900012    2    1    2    0    0 -0.60249943596E+01 -0.84574983301E+01  0.15583438908E+02  0.72461724256E+02  0.70000200563E+02 0.  0.
        -12    1    1    2    0    0  0.60249943596E+01  0.84574983301E+01 -0.15583438908E+02  0.18726275744E+02  0.00000000000E+00 0.  1.
         11    1    3    3    0    0 -0.17469404193E+02  0.11466782194E+02  0.12388712149E+02  0.24292948889E+02  0.51100000000E-03 0. -1.
        -11    1    3    3    0    0 -0.50028944151E+01  0.10689428828E+02  0.61183039953E+01  0.13293851407E+02  0.51100000000E-03 0.  1.
        -12    1    3    3    0    0  0.16447304249E+02 -0.30613709352E+02 -0.29235772358E+01  0.34874923960E+02  0.00000000000E+00 0.  1.
</event>
<event>
 7    1  0.2656097E-013  0.7246163E+02  0.7816164E-02  0.1226708E+00
        -11   -1    0    0    0    0  0.00000000000E+00  0.00000000000E+00  0.45593999997E+02  0.45594000000E+02  0.51100000000E-03 0. -1.
         11   -1    0    0    0    0 -0.00000000000E+00 -0.00000000000E+00 -0.45593999997E+02  0.45594000000E+02  0.51100000000E-03 0.  1.
    9900012    2    1    2    0    0 -0.11918387381E+02 -0.99733597261E+01 -0.10448012653E+02  0.72461632750E+02  0.70000081360E+02 0.  0.
        -12    1    1    2    0    0  0.11918387381E+02  0.99733597261E+01  0.10448012653E+02  0.18726367250E+02  0.00000000000E+00 0.  1.
         11    1    3    3    0    0  0.19980204319E+02  0.79058644957E+01 -0.42120839062E+01  0.21896413157E+02  0.51100000000E-03 0.  1.
        -11    1    3    3    0    0 -0.10345177498E+01  0.71953349747E+01 -0.79371614440E+01  0.10762973772E+02  0.51100000000E-03 0. -1.
         12    1    3    3    0    0 -0.30864073950E+02 -0.25074559197E+02  0.17012326968E+01  0.39802245821E+02  0.00000000000E+00 0. -1.
</event>
<event>
 7    1  0.2656097E-013  0.7246163E+02  0.7816164E-02  0.1226708E+00
        -11   -1    0    0    0    0  0.00000000000E+00  0.00000000000E+00  0.45593999997E+02  0.45594000000E+02  0.51100000000E-03 0. -1.
         11   -1    0    0    0    0 -0.00000000000E+00 -0.00000000000E+00 -0.45593999997E+02  0.45594000000E+02  0.51100000000E-03 0.  1.
    9900012    2    1    2    0    0  0.17183579350E+02 -0.44187881246E+01  0.59896467226E+01  0.72461629406E+02  0.70000077004E+02 0.  0.
        -12    1    1    2    0    0 -0.17183579350E+02  0.44187881246E+01 -0.59896467226E+01  0.18726370594E+02  0.00000000000E+00 0.  1.
         11    1    3    3    0    0 -0.20465108877E+02 -0.56130053391E+01  0.54826352808E+01  0.21917705176E+02  0.51100000000E-03 0. -1.
        -11    1    3    3    0    0 -0.56519841793E+01  0.11419706353E+01  0.41288722206E+01  0.70920101643E+01  0.51100000000E-03 0.  1.
        -12    1    3    3    0    0  0.43300672406E+02  0.52246579249E-01 -0.36218607788E+01  0.43451914066E+02  0.00000000000E+00 0.  1.
</event>
<event>
 7    1  0.2656097E-013  0.7246159E+02  0.7816164E-02  0.1226708E+00
        -11   -1    0    0    0    0  0.00000000000E+00  0.00000000000E+00  0.45593999997E+02  0.45594000000E+02  0.51100000000E-03 0. -1.
         11   -1    0    0    0    0 -0.00000000000E+00 -0.00000000000E+00 -0.45593999997E+02  0.45594000000E+02  0.51100000000E-03 0.  1.
    9900012    2    1    2    0    0  0.14343477592E+02 -0.82289402733E+01  0.87879195704E+01  0.72461592501E+02  0.70000028928E+02 0.  0.
        -12    1    1    2    0    0 -0.14343477592E+02  0.82289402733E+01 -0.87879195704E+01  0.18726407499E+02  0.00000000000E+00 0.  1.
         11    1    3    3    0    0  0.33517853690E+02 -0.14566088196E+02 -0.45755763966E+01  0.36831417851E+02  0.51100000000E-03 0. -1.
        -11    1    3    3    0    0 -0.83354147335E+01  0.14057750082E+00 -0.75670322612E+01  0.11258724542E+02  0.51100000000E-03 0.  1.
        -12    1    3    3    0    0 -0.10838961364E+02  0.61965704218E+01  0.20930528228E+02  0.24371450108E+02  0.00000000000E+00 0.  1.
</event>
<event>
 7    1  0.2656097E-013  0.7246160E+02  0.7816164E-02  0.1226708E+00
        -11   -1    0    0    0    0  0.00000000000E+00  0.00000000000E+00  0.45593999997E+02  0.45594000000E+02  0.51100000000E-03 0.  1.
         11   -1    0    0    0    0 -0.00000000000E+00 -0.00000000000E+00 -0.45593999997E+02  0.45594000000E+02  0.51100000000E-03 0. -1.
    9900012    2    1    2    0    0 -0.38189179167E+01  0.62212579557E+00 -0.18322301380E+02  0.72461604126E+02  0.70000044072E+02 0.  0.
        -12    1    1    2    0    0  0.38189179167E+01 -0.62212579557E+00  0.18322301380E+02  0.18726395874E+02  0.00000000000E+00 0.  1.
         11    1    3    3    0    0  0.23912463437E+02  0.78589148236E+01 -0.21392313079E+02  0.33033309083E+02  0.51100000000E-03 0. -1.
        -11    1    3    3    0    0 -0.61041235868E+01  0.97892693795E+01 -0.11017563502E+01  0.11588959706E+02  0.51100000000E-03 0.  1.
        -12    1    3    3    0    0 -0.21627257767E+02 -0.17026058407E+02  0.41717680490E+01  0.27839335338E+02  0.00000000000E+00 0.  1.
</event>
<event>
 7    1  0.2656097E-013  0.7246153E+02  0.7816164E-02  0.1226708E+00
        -11   -1    0    0    0    0  0.00000000000E+00  0.00000000000E+00  0.45593999997E+02  0.45594000000E+02  0.51100000000E-03 0. -1.
         11   -1    0    0    0    0 -0.00000000000E+00 -0.00000000000E+00 -0.45593999997E+02  0.45594000000E+02  0.51100000000E-03 0.  1.
    9900012    2    1    2    0    0 -0.18198940181E+02  0.15516743625E+01  0.41317910968E+01  0.72461526367E+02  0.69999942777E+02 0.  0.
        -12    1    1    2    0    0  0.18198940181E+02 -0.15516743625E+01 -0.41317910968E+01  0.18726473633E+02  0.00000000000E+00 0.  1.
         11    1    3    3    0    0  0.56337993130E+01  0.47137787033E+01 -0.80661307478E+01  0.10909714472E+02  0.51100000000E-03 0. -1.
        -11    1    3    3    0    0  0.97397105067E+01 -0.59098148410E+00 -0.15254360121E+02  0.18108194908E+02  0.51100000000E-03 0.  1.
         12    1    3    3    0    0 -0.33572450001E+02 -0.25711228567E+01  0.27452281966E+02  0.43443616987E+02  0.00000000000E+00 0. -1.
</event>
<event>
 7    1  0.2656097E-013  0.7246157E+02  0.7816164E-02  0.1226708E+00
        -11   -1    0    0    0    0  0.00000000000E+00  0.00000000000E+00  0.45593999997E+02  0.45594000000E+02  0.51100000000E-03 0.  1.
         11   -1    0    0    0    0 -0.00000000000E+00 -0.00000000000E+00 -0.45593999997E+02  0.45594000000E+02  0.51100000000E-03 0. -1.
    9900012    2    1    2    0    0  0.13439323046E+02  0.22207080491E+01 -0.12850385410E+02  0.72461565385E+02  0.69999993605E+02 0.  0.
        -12    1    1    2    0    0 -0.13439323046E+02 -0.22207080491E+01  0.12850385410E+02  0.18726434615E+02  0.00000000000E+00 0.  1.
         11    1    3    3    0    0 -0.95334049858E+01 -0.47123474238E+01  0.23414174000E+02  0.25716056720E+02  0.51100000000E-03 0. -1.
        -11    1    3    3    0    0  0.68719245110E+01 -0.45441329498E+01 -0.18138196958E+02  0.19921512992E+02  0.51100000000E-03 0.  1.
        -12    1    3    3    0    0  0.16100803521E+02  0.11477188423E+02 -0.18126362452E+02  0.26823995673E+02  0.00000000000E+00 0.  1.
</event>
<event>
 7    1  0.2656097E-013  0.7246161E+02  0.7816164E-02  0.1226708E+00
        -11   -1    0    0    0    0  0.00000000000E+00  0.00000000000E+00  0.45593999997E+02  0.45594000000E+02  0.51100000000E-03 0.  1.
         11   -1    0    0    0    0 -0.00000000000E+00 -0.00000000000E+00 -0.45593999997E+02  0.45594000000E+02  0.51100000000E-03 0. -1.
    9900012    2    1    2    0    0  0.14920186195E+02  0.10676223633E+02  0.37528431296E+01  0.72461613837E+02  0.70000056722E+02 0.  0.
        -12    1    1    2    0    0 -0.14920186195E+02 -0.10676223633E+02 -0.37528431296E+01  0.18726386163E+02  0.00000000000E+00 0.  1.
         11    1    3    3    0    0 -0.18645539613E+02  0.15905332621E+02  0.90553186590E+01  0.26127275968E+02  0.51100000000E-03 0. -1.
        -11    1    3    3    0    0 -0.29019040988E+01 -0.15266481271E+01  0.69508174016E+01  0.76854124622E+01  0.51100000000E-03 0.  1.
        -12    1    3    3    0    0  0.36467629907E+02 -0.37024608600E+01 -0.12253292931E+02  0.38648925407E+02  0.00000000000E+00 0.  1.
</event>
<event>
 7    1  0.2656097E-013  0.7246157E+02  0.7816164E-02  0.1226708E+00
        -11   -1    0    0    0    0  0.00000000000E+00  0.00000000000E+00  0.45593999997E+02  0.45594000000E+02  0.51100000000E-03 0.  1.
         11   -1    0    0    0    0 -0.00000000000E+00 -0.00000000000E+00 -0.45593999997E+02  0.45594000000E+02  0.51100000000E-03 0. -1.
    9900012    2    1    2    0    0  0.58771418944E+01  0.66802843299E+01 -0.16477624481E+02  0.72461572041E+02  0.70000002275E+02 0.  0.
        -12    1    1    2    0    0 -0.58771418944E+01 -0.66802843299E+01  0.16477624481E+02  0.18726427959E+02  0.00000000000E+00 0.  1.
         11    1    3    3    0    0  0.16676979639E+02 -0.20575062443E+02  0.43530809079E+01  0.26840345714E+02  0.51100000000E-03 0. -1.
        -11    1    3    3    0    0  0.50421794950E+01 -0.86586421189E+00  0.25980917960E+01  0.57378895192E+01  0.51100000000E-03 0.  1.
         12    1    3    3    0    0 -0.15842017239E+02  0.28121210984E+02 -0.23428797185E+02  0.39883336808E+02  0.00000000000E+00 0. -1.
</event>
<event>
 7    1  0.2656097E-013  0.7246159E+02  0.7816164E-02  0.1226708E+00
        -11   -1    0    0    0    0  0.00000000000E+00  0.00000000000E+00  0.45593999997E+02  0.45594000000E+02  0.51100000000E-03 0.  1.
         11   -1    0    0    0    0 -0.00000000000E+00 -0.00000000000E+00 -0.45593999997E+02  0.45594000000E+02  0.51100000000E-03 0. -1.
    9900012    2    1    2    0    0  0.15670423061E+02  0.66002231905E+01 -0.78456028498E+01  0.72461585790E+02  0.70000020186E+02 0.  0.
        -12    1    1    2    0    0 -0.15670423061E+02 -0.66002231905E+01  0.78456028498E+01  0.18726414210E+02  0.00000000000E+00 0.  1.
         11    1    3    3    0    0  0.18789477236E+02  0.13670450367E+02 -0.18947149644E+02  0.29981997064E+02  0.51100000000E-03 0. -1.
        -11    1    3    3    0    0  0.13073630528E+02  0.10668471872E+02  0.30471688291E+01  0.17147050633E+02  0.51100000000E-03 0.  1.
        -12    1    3    3    0    0 -0.16192684703E+02 -0.17738699049E+02  0.80543779651E+01  0.25332538093E+02  0.00000000000E+00 0.  1.
</event>
<event>
 7    1  0.2656097E-013  0.7246155E+02  0.7816164E-02  0.1226708E+00
        -11   -1    0    0    0    0  0.00000000000E+00  0.00000000000E+00  0.45593999997E+02  0.45594000000E+02  0.51100000000E-03 0. -1.
         11   -1    0    0    0    0 -0.00000000000E+00 -0.00000000000E+00 -0.45593999997E+02  0.45594000000E+02  0.51100000000E-03 0.  1.
    9900012    2    1    2    0    0  0.55305743427E+01  0.74465934635E+01  0.16267787027E+02  0.72461550749E+02  0.69999974539E+02 0.  0.
        -12    1    1    2    0    0 -0.55305743427E+01 -0.74465934635E+01 -0.16267787027E+02  0.18726449251E+02  0.00000000000E+00 0.  1.
         11    1    3    3    0    0  0.99370892409E+01 -0.12659352617E+02  0.18579684822E+01  0.16200524634E+02  0.51100000000E-03 0. -1.
        -11    1    3    3    0    0  0.19729111055E+01 -0.85052315924E+01 -0.13308884433E+02  0.15917215453E+02  0.51100000000E-03 0.  1.
         12    1    3    3    0    0 -0.63794260038E+01  0.28611177673E+02  0.27718702978E+02  0.40343810662E+02  0.00000000000E+00 0. -1.
</event>
<event>
 7    1  0.2656097E-013  0.7246160E+02  0.7816164E-02  0.1226708E+00
        -11   -1    0    0    0    0  0.00000000000E+00  0.00000000000E+00  0.45593999997E+02  0.45594000000E+02  0.51100000000E-03 0. -1.
         11   -1    0    0    0    0 -0.00000000000E+00 -0.00000000000E+00 -0.45593999997E+02  0.45594000000E+02  0.51100000000E-03 0.  1.
    9900012    2    1    2    0    0 -0.47942588295E+01 -0.74952234304E+01  0.16477700207E+02  0.72461604294E+02  0.70000044291E+02 0.  0.
        -12    1    1    2    0    0  0.47942588295E+01  0.74952234304E+01 -0.16477700207E+02  0.18726395706E+02  0.00000000000E+00 0.  1.
         11    1    3    3    0    0 -0.84425488041E+00  0.88004524132E+01  0.59209638523E+01  0.10640420207E+02  0.51100000000E-03 0. -1.
        -11    1    3    3    0    0  0.43351689964E+01  0.20091511682E+02  0.13169977661E+02  0.24411285172E+02  0.51100000000E-03 0.  1.
         12    1    3    3    0    0 -0.82851729455E+01 -0.36387187525E+02 -0.26132413063E+01  0.37409898915E+02  0.00000000000E+00 0. -1.
</event>
<event>
 7    1  0.2656097E-013  0.7246157E+02  0.7816164E-02  0.1226708E+00
        -11   -1    0    0    0    0  0.00000000000E+00  0.00000000000E+00  0.45593999997E+02  0.45594000000E+02  0.51100000000E-03 0.  1.
         11   -1    0    0    0    0 -0.00000000000E+00 -0.00000000000E+00 -0.45593999997E+02  0.45594000000E+02  0.51100000000E-03 0. -1.
    9900012    2    1    2    0    0  0.16657280379E+02 -0.85058949717E+01  0.92947017096E+00  0.72461570717E+02  0.70000000551E+02 0.  0.
        -12    1    1    2    0    0 -0.16657280379E+02  0.85058949717E+01 -0.92947017096E+00  0.18726429283E+02  0.00000000000E+00 0.  1.
         11    1    3    3    0    0 -0.17177972997E+00  0.88129564283E-01  0.54499280865E-01  0.20061288210E+00  0.51100000000E-03 0. -1.
        -11    1    3    3    0    0 -0.19046533957E+02  0.16924677608E+01  0.22181797560E+02  0.29285953052E+02  0.51100000000E-03 0.  1.
         12    1    3    3    0    0  0.35875594066E+02 -0.10286492297E+02 -0.21306826670E+02  0.42975004783E+02  0.00000000000E+00 0. -1.
</event>
<event>
 7    1  0.2656097E-013  0.7246155E+02  0.7816164E-02  0.1226708E+00
        -11   -1    0    0    0    0  0.00000000000E+00  0.00000000000E+00  0.45593999997E+02  0.45594000000E+02  0.51100000000E-03 0. -1.
         11   -1    0    0    0    0 -0.00000000000E+00 -0.00000000000E+00 -0.45593999997E+02  0.45594000000E+02  0.51100000000E-03 0.  1.
    9900012    2    1    2    0    0 -0.15989698491E+02  0.57731312010E+01  0.78536953094E+01  0.72461547273E+02  0.69999970011E+02 0.  0.
        -12    1    1    2    0    0  0.15989698491E+02 -0.57731312010E+01 -0.78536953094E+01  0.18726452727E+02  0.00000000000E+00 0.  1.
         11    1    3    3    0    0  0.80669945435E+00  0.22266768724E+01 -0.46484231531E+01  0.52169619488E+01  0.51100000000E-03 0. -1.
        -11    1    3    3    0    0 -0.30382532875E+02 -0.21126754735E+02  0.15957952963E+01  0.37040310911E+02  0.51100000000E-03 0.  1.
         12    1    3    3    0    0  0.13586134929E+02  0.24673209064E+02  0.10906323166E+02  0.30204274413E+02  0.00000000000E+00 0. -1.
</event>
<event>
 7    1  0.2656097E-013  0.7246158E+02  0.7816164E-02  0.1226708E+00
        -11   -1    0    0    0    0  0.00000000000E+00  0.00000000000E+00  0.45593999997E+02  0.45594000000E+02  0.51100000000E-03 0.  1.
         11   -1    0    0    0    0 -0.00000000000E+00 -0.00000000000E+00 -0.45593999997E+02  0.45594000000E+02  0.51100000000E-03 0. -1.
    9900012    2    1    2    0    0 -0.13074427919E+02 -0.60956412934E+01 -0.11940744832E+02  0.72461577615E+02  0.70000009537E+02 0.  0.
        -12    1    1    2    0    0  0.13074427919E+02  0.60956412934E+01  0.11940744832E+02  0.18726422385E+02  0.00000000000E+00 0.  1.
         11    1    3    3    0    0 -0.14927012794E+01 -0.89242809457E+01 -0.34695971706E+02  0.35856399713E+02  0.51100000000E-03 0. -1.
        -11    1    3    3    0    0 -0.15683735146E+02 -0.32045268810E+01  0.40275818275E+01  0.16506663997E+02  0.51100000000E-03 0.  1.
        -12    1    3    3    0    0  0.41020085069E+01  0.60331665332E+01  0.18727645046E+02  0.20098513905E+02  0.00000000000E+00 0.  1.
</event>
<event>
 7    1  0.2656097E-013  0.7246158E+02  0.7816164E-02  0.1226708E+00
        -11   -1    0    0    0    0  0.00000000000E+00  0.00000000000E+00  0.45593999997E+02  0.45594000000E+02  0.51100000000E-03 0.  1.
         11   -1    0    0    0    0 -0.00000000000E+00 -0.00000000000E+00 -0.45593999997E+02  0.45594000000E+02  0.51100000000E-03 0. -1.
    9900012    2    1    2    0    0  0.22144184336E+01  0.10179905511E+02 -0.15560996702E+02  0.72461581668E+02  0.70000014816E+02 0.  0.
        -12    1    1    2    0    0 -0.22144184336E+01 -0.10179905511E+02  0.15560996702E+02  0.18726418332E+02  0.00000000000E+00 0.  1.
         11    1    3    3    0    0  0.78327767335E+00 -0.19516750949E+02 -0.21139458366E+02  0.28781830932E+02  0.51100000000E-03 0. -1.
        -11    1    3    3    0    0  0.10543981073E+02 -0.15811772749E+01  0.22319516812E+00  0.10664214682E+02  0.51100000000E-03 0.  1.
        -12    1    3    3    0    0 -0.91128403122E+01  0.31277833735E+02  0.53552664958E+01  0.33015536054E+02  0.00000000000E+00 0.  1.
</event>
<event>
 7    1  0.2656097E-013  0.7246153E+02  0.7816164E-02  0.1226708E+00
        -11   -1    0    0    0    0  0.00000000000E+00  0.00000000000E+00  0.45593999997E+02  0.45594000000E+02  0.51100000000E-03 0. -1.
         11   -1    0    0    0    0 -0.00000000000E+00 -0.00000000000E+00 -0.45593999997E+02  0.45594000000E+02  0.51100000000E-03 0.  1.
    9900012    2    1    2    0    0  0.99360744878E+01 -0.77219819823E+00  0.15854297325E+02  0.72461531834E+02  0.69999949899E+02 0.  0.
        -12    1    1    2    0    0 -0.99360744878E+01  0.77219819823E+00 -0.15854297325E+02  0.18726468166E+02  0.00000000000E+00 0.  1.
         11    1    3    3    0    0  0.83210119108E+01 -0.86702569353E+01  0.57880944027E+01  0.13338464365E+02  0.51100000000E-03 0. -1.
        -11    1    3    3    0    0  0.10927787459E+02 -0.21111460982E+02  0.15213845084E+02  0.28223596618E+02  0.51100000000E-03 0.  1.
         12    1    3    3    0    0 -0.93127248821E+01  0.29009519719E+02 -0.51476421619E+01  0.30899470851E+02  0.00000000000E+00 0. -1.
</event>
<event>
 7    1  0.2656097E-013  0.7246158E+02  0.7816164E-02  0.1226708E+00
        -11   -1    0    0    0    0  0.00000000000E+00  0.00000000000E+00  0.45593999997E+02  0.45594000000E+02  0.51100000000E-03 0.  1.
         11   -1    0    0    0    0 -0.00000000000E+00 -0.00000000000E+00 -0.45593999997E+02  0.45594000000E+02  0.51100000000E-03 0. -1.
    9900012    2    1    2    0    0  0.10996764118E+02 -0.34392410768E+01 -0.14762170388E+02  0.72461578163E+02  0.70000010250E+02 0.  0.
        -12    1    1    2    0    0 -0.10996764118E+02  0.34392410768E+01  0.14762170388E+02  0.18726421837E+02  0.00000000000E+00 0.  1.
         11    1    3    3    0    0 -0.33553998266E+01 -0.25915148956E+02 -0.23608200715E+02  0.35216484701E+02  0.51100000000E-03 0. -1.
        -11    1    3    3    0    0  0.54316896671E+01 -0.48928523895E+01  0.78889787952E+00  0.73529325626E+01  0.51100000000E-03 0.  1.
        -12    1    3    3    0    0  0.89204742773E+01  0.27368760269E+02  0.80571324477E+01  0.29892160900E+02  0.00000000000E+00 0.  1.
</event>
<event>
 7    1  0.2656097E-013  0.7246169E+02  0.7816164E-02  0.1226708E+00
        -11   -1    0    0    0    0  0.00000000000E+00  0.00000000000E+00  0.45593999997E+02  0.45594000000E+02  0.51100000000E-03 0.  1.
         11   -1    0    0    0    0 -0.00000000000E+00 -0.00000000000E+00 -0.45593999997E+02  0.45594000000E+02  0.51100000000E-03 0. -1.
    9900012    2    1    2    0    0  0.14540546996E+02 -0.19432218034E+00 -0.11798700564E+02  0.72461692220E+02  0.70000158831E+02 0.  0.
        -12    1    1    2    0    0 -0.14540546996E+02  0.19432218034E+00  0.11798700564E+02  0.18726307780E+02  0.00000000000E+00 0.  1.
         11    1    3    3    0    0 -0.13447249853E+02  0.26388431743E-01 -0.26216066315E+02  0.29463729537E+02  0.51100000000E-03 0. -1.
        -11    1    3    3    0    0  0.98411265150E+01 -0.13256734080E+02  0.12231823688E+02  0.20547658761E+02  0.51100000000E-03 0.  1.
        -12    1    3    3    0    0  0.18146670334E+02  0.13036023468E+02  0.21855420630E+01  0.22450303922E+02  0.00000000000E+00 0.  1.
</event>
<event>
 7    1  0.2656097E-013  0.7246159E+02  0.7816164E-02  0.1226708E+00
        -11   -1    0    0    0    0  0.00000000000E+00  0.00000000000E+00  0.45593999997E+02  0.45594000000E+02  0.51100000000E-03 0.  1.
         11   -1    0    0    0    0 -0.00000000000E+00 -0.00000000000E+00 -0.45593999997E+02  0.45594000000E+02  0.51100000000E-03 0. -1.
    9900012    2    1    2    0    0 -0.14131199720E+02 -0.11670634946E+02 -0.38449735164E+01  0.72461592258E+02  0.70000028612E+02 0.  0.
        -12    1    1    2    0    0  0.14131199720E+02  0.11670634946E+02  0.38449735164E+01  0.18726407742E+02  0.00000000000E+00 0.  1.
         11    1    3    3    0    0  0.60200396279E+01 -0.26946611109E+02  0.44668128981E+01  0.27969861371E+02  0.51100000000E-03 0. -1.
        -11    1    3    3    0    0  0.35973080205E+01 -0.81286082848E+01  0.28422380476E+01  0.93323745651E+01  0.51100000000E-03 0.  1.
        -12    1    3    3    0    0 -0.23748547369E+02  0.23404584447E+02 -0.11154024462E+02  0.35159356322E+02  0.00000000000E+00 0.  1.
</event>
<event>
 7    1  0.2656097E-013  0.7246155E+02  0.7816164E-02  0.1226708E+00
        -11   -1    0    0    0    0  0.00000000000E+00  0.00000000000E+00  0.45593999997E+02  0.45594000000E+02  0.51100000000E-03 0. -1.
         11   -1    0    0    0    0 -0.00000000000E+00 -0.00000000000E+00 -0.45593999997E+02  0.45594000000E+02  0.51100000000E-03 0.  1.
    9900012    2    1    2    0    0 -0.49897891885E+01  0.18048429656E+02 -0.19043640081E+00  0.72461546112E+02  0.69999968498E+02 0.  0.
        -12    1    1    2    0    0  0.49897891885E+01 -0.18048429656E+02  0.19043640081E+00  0.18726453888E+02  0.00000000000E+00 0.  1.
         11    1    3    3    0    0  0.14914595031E+01 -0.15246606281E+02 -0.18138440285E+01  0.15426389239E+02  0.51100000000E-03 0. -1.
        -11    1    3    3    0    0 -0.86639286021E+00 -0.10205480473E+02  0.76198623893E+01  0.12765765600E+02  0.51100000000E-03 0.  1.
        -12    1    3    3    0    0 -0.56148558314E+01  0.43500516410E+02 -0.59964547616E+01  0.44269391273E+02  0.00000000000E+00 0.  1.
</event>
<event>
 7    1  0.2656097E-013  0.7246163E+02  0.7816164E-02  0.1226708E+00
        -11   -1    0    0    0    0  0.00000000000E+00  0.00000000000E+00  0.45593999997E+02  0.45594000000E+02  0.51100000000E-03 0. -1.
         11   -1    0    0    0    0 -0.00000000000E+00 -0.00000000000E+00 -0.45593999997E+02  0.45594000000E+02  0.51100000000E-03 0.  1.
    9900012    2    1    2    0    0 -0.44955209305E+01 -0.17992624806E+02 -0.25947646053E+01  0.72461626640E+02  0.70000073401E+02 0.  0.
        -12    1    1    2    0    0  0.44955209305E+01  0.17992624806E+02  0.25947646053E+01  0.18726373360E+02  0.00000000000E+00 0.  1.
         11    1    3    3    0    0  0.26751480679E+02 -0.64323453817E+01  0.13310068605E+02  0.30564271825E+02  0.51100000000E-03 0. -1.
        -11    1    3    3    0    0 -0.18763104434E+01 -0.89096328650E+01 -0.21407741862E+01  0.93533423463E+01  0.51100000000E-03 0.  1.
        -12    1    3    3    0    0 -0.29370691166E+02 -0.26506465597E+01 -0.13764059024E+02  0.32544012469E+02  0.00000000000E+00 0.  1.
</event>
<event>
 7    1  0.2656097E-013  0.7246159E+02  0.7816164E-02  0.1226708E+00
        -11   -1    0    0    0    0  0.00000000000E+00  0.00000000000E+00  0.45593999997E+02  0.45594000000E+02  0.51100000000E-03 0.  1.
         11   -1    0    0    0    0 -0.00000000000E+00 -0.00000000000E+00 -0.45593999997E+02  0.45594000000E+02  0.51100000000E-03 0. -1.
    9900012    2    1    2    0    0 -0.48424548457E+00 -0.83028323264E+01 -0.16778162306E+02  0.72461594881E+02  0.70000032028E+02 0.  0.
        -12    1    1    2    0    0  0.48424548457E+00  0.83028323264E+01  0.16778162306E+02  0.18726405119E+02  0.00000000000E+00 0.  1.
         11    1    3    3    0    0  0.15271051075E+02 -0.94709951669E+01  0.29569988137E+01  0.18211221612E+02  0.51100000000E-03 0. -1.
        -11    1    3    3    0    0  0.12961213957E+02 -0.73275035117E+01 -0.19202746065E+02  0.24298782513E+02  0.51100000000E-03 0.  1.
        -12    1    3    3    0    0 -0.28716510516E+02  0.84956663522E+01 -0.53241505465E+00  0.29951590755E+02  0.00000000000E+00 0.  1.
</event>
<event>
 7    1  0.2656097E-013  0.7246143E+02  0.7816164E-02  0.1226708E+00
        -11   -1    0    0    0    0  0.00000000000E+00  0.00000000000E+00  0.45593999997E+02  0.45594000000E+02  0.51100000000E-03 0. -1.
         11   -1    0    0    0    0 -0.00000000000E+00 -0.00000000000E+00 -0.45593999997E+02  0.45594000000E+02  0.51100000000E-03 0.  1.
    9900012    2    1    2    0    0 -0.74352994328E+01  0.14977654363E+02  0.84303322451E+01  0.72461433053E+02  0.69999821217E+02 0.  0.
        -12    1    1    2    0    0  0.74352994328E+01 -0.14977654363E+02 -0.84303322451E+01  0.18726566947E+02  0.00000000000E+00 0.  1.
         11    1    3    3    0    0 -0.33201472156E+01 -0.11174030294E+02 -0.12824955429E+02  0.17330949557E+02  0.51100000000E-03 0. -1.
        -11    1    3    3    0    0  0.14304751120E+02 -0.45195808389E+01  0.48054459120E+01  0.15752613314E+02  0.51100000000E-03 0.  1.
         12    1    3    3    0    0 -0.18419903337E+02  0.30671265495E+02  0.16449841762E+02  0.39377870181E+02  0.00000000000E+00 0. -1.
</event>
<event>
 7    1  0.2656097E-013  0.7246189E+02  0.7816164E-02  0.1226707E+00
        -11   -1    0    0    0    0  0.00000000000E+00  0.00000000000E+00  0.45593999997E+02  0.45594000000E+02  0.51100000000E-03 0. -1.
         11   -1    0    0    0    0 -0.00000000000E+00 -0.00000000000E+00 -0.45593999997E+02  0.45594000000E+02  0.51100000000E-03 0.  1.
    9900012    2    1    2    0    0 -0.10296585161E+02  0.15622142023E+02  0.77205431116E+00  0.72461893752E+02  0.70000421362E+02 0.  0.
        -12    1    1    2    0    0  0.10296585161E+02 -0.15622142023E+02 -0.77205431116E+00  0.18726106248E+02  0.00000000000E+00 0.  1.
         11    1    3    3    0    0 -0.62868284639E+01 -0.91509067818E+01 -0.84251600596E+01  0.13937238943E+02  0.51100000000E-03 0. -1.
        -11    1    3    3    0    0  0.14046768092E+02 -0.10664562804E+02  0.59775523624E+01  0.18621915211E+02  0.51100000000E-03 0.  1.
         12    1    3    3    0    0 -0.18056524789E+02  0.35437611608E+02  0.32196620084E+01  0.39902739598E+02  0.00000000000E+00 0. -1.
</event>
<event>
 7    1  0.2656097E-013  0.7246151E+02  0.7816164E-02  0.1226708E+00
        -11   -1    0    0    0    0  0.00000000000E+00  0.00000000000E+00  0.45593999997E+02  0.45594000000E+02  0.51100000000E-03 0. -1.
         11   -1    0    0    0    0 -0.00000000000E+00 -0.00000000000E+00 -0.45593999997E+02  0.45594000000E+02  0.51100000000E-03 0.  1.
    9900012    2    1    2    0    0  0.13559152077E+02  0.20706717298E+01  0.12749246073E+02  0.72461506418E+02  0.69999916789E+02 0.  0.
        -12    1    1    2    0    0 -0.13559152077E+02 -0.20706717298E+01 -0.12749246073E+02  0.18726493582E+02  0.00000000000E+00 0.  1.
         11    1    3    3    0    0  0.20405602538E+00  0.80746555419E+01 -0.12217444852E+02  0.14646080020E+02  0.51100000000E-03 0. -1.
        -11    1    3    3    0    0 -0.71518250498E+01  0.32333113571E+00 -0.12633946248E+02  0.14521354710E+02  0.51100000000E-03 0.  1.
         12    1    3    3    0    0  0.20506921102E+02 -0.63273149478E+01  0.37600637172E+02  0.43294071688E+02  0.00000000000E+00 0. -1.
</event>
<event>
 7    1  0.2656097E-013  0.7246157E+02  0.7816164E-02  0.1226708E+00
        -11   -1    0    0    0    0  0.00000000000E+00  0.00000000000E+00  0.45593999997E+02  0.45594000000E+02  0.51100000000E-03 0.  1.
         11   -1    0    0    0    0 -0.00000000000E+00 -0.00000000000E+00 -0.45593999997E+02  0.45594000000E+02  0.51100000000E-03 0. -1.
    9900012    2    1    2    0    0  0.71700908938E+00  0.16754223164E+02 -0.83343261955E+01  0.72461572444E+02  0.70000002801E+02 0.  0.
        -12    1    1    2    0    0 -0.71700908938E+00 -0.16754223164E+02  0.83343261955E+01  0.18726427556E+02  0.00000000000E+00 0.  1.
         11    1    3    3    0    0  0.55137412814E+01 -0.34587253178E+01 -0.75240879775E+01  0.99486694536E+01  0.51100000000E-03 0. -1.
        -11    1    3    3    0    0 -0.18981308912E+02  0.55773324799E+01 -0.24351215808E+02  0.31374805772E+02  0.51100000000E-03 0.  1.
        -12    1    3    3    0    0  0.14184576720E+02  0.14635616002E+02  0.23540977590E+02  0.31138097219E+02  0.00000000000E+00 0.  1.
</event>
<event>
 7    1  0.2656097E-013  0.7246157E+02  0.7816164E-02  0.1226708E+00
        -11   -1    0    0    0    0  0.00000000000E+00  0.00000000000E+00  0.45593999997E+02  0.45594000000E+02  0.51100000000E-03 0. -1.
         11   -1    0    0    0    0 -0.00000000000E+00 -0.00000000000E+00 -0.45593999997E+02  0.45594000000E+02  0.51100000000E-03 0.  1.
    9900012    2    1    2    0    0  0.15529350118E+02 -0.60911194567E+01  0.85098053305E+01  0.72461568464E+02  0.69999997616E+02 0.  0.
        -12    1    1    2    0    0 -0.15529350118E+02  0.60911194567E+01 -0.85098053305E+01  0.18726431536E+02  0.00000000000E+00 0.  1.
         11    1    3    3    0    0  0.13493380782E+02  0.99686141739E+01  0.57450277025E+01  0.17732736310E+02  0.51100000000E-03 0. -1.
        -11    1    3    3    0    0 -0.35516384382E+01  0.26215558857E+00 -0.23245816188E+02  0.23517032799E+02  0.51100000000E-03 0.  1.
         12    1    3    3    0    0  0.55876077733E+01 -0.16321889219E+02  0.26010593816E+02  0.31211799355E+02  0.00000000000E+00 0. -1.
</event>
<event>
 7    1  0.2656097E-013  0.7246080E+02  0.7816164E-02  0.1226710E+00
        -11   -1    0    0    0    0  0.00000000000E+00  0.00000000000E+00  0.45593999997E+02  0.45594000000E+02  0.51100000000E-03 0.  1.
         11   -1    0    0    0    0 -0.00000000000E+00 -0.00000000000E+00 -0.45593999997E+02  0.45594000000E+02  0.51100000000E-03 0. -1.
    9900012    2    1    2    0    0  0.94706730594E+01  0.15716368597E+02  0.37430345724E+01  0.72460795246E+02  0.69998990348E+02 0.  0.
        -12    1    1    2    0    0 -0.94706730594E+01 -0.15716368597E+02 -0.37430345724E+01  0.18727204754E+02  0.00000000000E+00 0.  1.
         11    1    3    3    0    0 -0.75700609019E+01 -0.20600548798E+02  0.30854328975E+00  0.21949570202E+02  0.51100000000E-03 0.  1.
        -11    1    3    3    0    0  0.13348528490E+02  0.79708932605E+01  0.13105597197E+02  0.20334085433E+02  0.51100000000E-03 0. -1.
        -12    1    3    3    0    0  0.36922054710E+01  0.28346024135E+02 -0.96711059148E+01  0.30177139611E+02  0.00000000000E+00 0.  1.
</event>
<event>
 7    1  0.2656097E-013  0.7246157E+02  0.7816164E-02  0.1226708E+00
        -11   -1    0    0    0    0  0.00000000000E+00  0.00000000000E+00  0.45593999997E+02  0.45594000000E+02  0.51100000000E-03 0.  1.
         11   -1    0    0    0    0 -0.00000000000E+00 -0.00000000000E+00 -0.45593999997E+02  0.45594000000E+02  0.51100000000E-03 0. -1.
    9900012    2    1    2    0    0  0.11756447590E+02  0.42836449528E+01 -0.13932537699E+02  0.72461567325E+02  0.69999996131E+02 0.  0.
        -12    1    1    2    0    0 -0.11756447590E+02 -0.42836449528E+01  0.13932537699E+02  0.18726432675E+02  0.00000000000E+00 0.  1.
         11    1    3    3    0    0 -0.13351507311E+02  0.19512703155E+02 -0.17065855704E+02  0.29159076855E+02  0.51100000000E-03 0. -1.
        -11    1    3    3    0    0  0.12497563074E+02 -0.78437125780E+01 -0.14304511457E+02  0.20550716729E+02  0.51100000000E-03 0.  1.
        -12    1    3    3    0    0  0.12610391826E+02 -0.73853456242E+01  0.17437829462E+02  0.22751773740E+02  0.00000000000E+00 0.  1.
</event>
<event>
 7    1  0.2656097E-013  0.7246156E+02  0.7816164E-02  0.1226708E+00
        -11   -1    0    0    0    0  0.00000000000E+00  0.00000000000E+00  0.45593999997E+02  0.45594000000E+02  0.51100000000E-03 0. -1.
         11   -1    0    0    0    0 -0.00000000000E+00 -0.00000000000E+00 -0.45593999997E+02  0.45594000000E+02  0.51100000000E-03 0.  1.
    9900012    2    1    2    0    0 -0.10811116504E+02  0.14973770476E+02  0.30960523263E+01  0.72461559272E+02  0.69999985641E+02 0.  0.
        -12    1    1    2    0    0  0.10811116504E+02 -0.14973770476E+02 -0.30960523263E+01  0.18726440728E+02  0.00000000000E+00 0.  1.
         11    1    3    3    0    0 -0.68970743797E+01  0.93308511982E+01 -0.14804097582E+02  0.18809458380E+02  0.51100000000E-03 0. -1.
        -11    1    3    3    0    0 -0.23485613627E+02  0.45458929923E+01 -0.40075287967E+01  0.24254885649E+02  0.51100000000E-03 0.  1.
         12    1    3    3    0    0  0.19571571503E+02  0.10970262859E+01  0.21907678705E+02  0.29397215242E+02  0.00000000000E+00 0. -1.
</event>
<event>
 7    1  0.2656097E-013  0.7246155E+02  0.7816164E-02  0.1226708E+00
        -11   -1    0    0    0    0  0.00000000000E+00  0.00000000000E+00  0.45593999997E+02  0.45594000000E+02  0.51100000000E-03 0. -1.
         11   -1    0    0    0    0 -0.00000000000E+00 -0.00000000000E+00 -0.45593999997E+02  0.45594000000E+02  0.51100000000E-03 0.  1.
    9900012    2    1    2    0    0 -0.32272010472E+01  0.12518743340E+01  0.18403745544E+02  0.72461551698E+02  0.69999975775E+02 0.  0.
        -12    1    1    2    0    0  0.32272010472E+01 -0.12518743340E+01 -0.18403745544E+02  0.18726448302E+02  0.00000000000E+00 0.  1.
         11    1    3    3    0    0 -0.15560493309E+02 -0.47486599505E+01  0.17201047132E+02  0.23676037381E+02  0.51100000000E-03 0. -1.
        -11    1    3    3    0    0 -0.13673652706E+01  0.10216690237E+02 -0.20401828007E+02  0.22857931522E+02  0.51100000000E-03 0.  1.
         12    1    3    3    0    0  0.13700657533E+02 -0.42161559525E+01  0.21604526419E+02  0.25927582795E+02  0.00000000000E+00 0. -1.
</event>
<event>
 7    1  0.2656097E-013  0.7246162E+02  0.7816164E-02  0.1226708E+00
        -11   -1    0    0    0    0  0.00000000000E+00  0.00000000000E+00  0.45593999997E+02  0.45594000000E+02  0.51100000000E-03 0.  1.
         11   -1    0    0    0    0 -0.00000000000E+00 -0.00000000000E+00 -0.45593999997E+02  0.45594000000E+02  0.51100000000E-03 0. -1.
    9900012    2    1    2    0    0  0.14072209996E+01 -0.16805993318E+02 -0.81397538348E+01  0.72461620883E+02  0.70000065901E+02 0.  0.
        -12    1    1    2    0    0 -0.14072209996E+01  0.16805993318E+02  0.81397538348E+01  0.18726379117E+02  0.00000000000E+00 0.  1.
         11    1    3    3    0    0  0.20121672819E+02 -0.78773329428E+01 -0.79666751699E+01  0.23030458199E+02  0.51100000000E-03 0. -1.
        -11    1    3    3    0    0 -0.32846728651E+01 -0.25431922094E+02 -0.54828670011E+01  0.26222768123E+02  0.51100000000E-03 0.  1.
         12    1    3    3    0    0 -0.15429778955E+02  0.16503261719E+02  0.53097883361E+01  0.23208394561E+02  0.00000000000E+00 0. -1.
</event>
<event>
 7    1  0.2656097E-013  0.7246158E+02  0.7816164E-02  0.1226708E+00
        -11   -1    0    0    0    0  0.00000000000E+00  0.00000000000E+00  0.45593999997E+02  0.45594000000E+02  0.51100000000E-03 0. -1.
         11   -1    0    0    0    0 -0.00000000000E+00 -0.00000000000E+00 -0.45593999997E+02  0.45594000000E+02  0.51100000000E-03 0.  1.
    9900012    2    1    2    0    0 -0.94611075664E+01 -0.42402640214E+01  0.15594434084E+02  0.72461580968E+02  0.70000013905E+02 0.  0.
        -12    1    1    2    0    0  0.94611075664E+01  0.42402640214E+01 -0.15594434084E+02  0.18726419032E+02  0.00000000000E+00 0.  1.
         11    1    3    3    0    0 -0.11541644311E+02 -0.13664812941E+02  0.14061428569E+02  0.22752152421E+02  0.51100000000E-03 0. -1.
        -11    1    3    3    0    0 -0.17018084256E+02  0.19141414495E+02  0.88001585149E+01  0.27082313984E+02  0.51100000000E-03 0.  1.
        -12    1    3    3    0    0  0.19098621001E+02 -0.97168655749E+01 -0.72671530000E+01  0.22627114563E+02  0.00000000000E+00 0.  1.
</event>
<event>
 7    1  0.2656097E-013  0.7246153E+02  0.7816164E-02  0.1226708E+00
        -11   -1    0    0    0    0  0.00000000000E+00  0.00000000000E+00  0.45593999997E+02  0.45594000000E+02  0.51100000000E-03 0.  1.
         11   -1    0    0    0    0 -0.00000000000E+00 -0.00000000000E+00 -0.45593999997E+02  0.45594000000E+02  0.51100000000E-03 0. -1.
    9900012    2    1    2    0    0 -0.14004638056E+02  0.47242659882E-01 -0.12431754136E+02  0.72461531304E+02  0.69999949207E+02 0.  0.
        -12    1    1    2    0    0  0.14004638056E+02 -0.47242659882E-01  0.12431754136E+02  0.18726468696E+02  0.00000000000E+00 0.  1.
         11    1    3    3    0    0 -0.46166391256E+01 -0.11037514221E+02 -0.34558608936E+02  0.36570992998E+02  0.51100000000E-03 0. -1.
        -11    1    3    3    0    0 -0.24209560687E+00  0.15258872400E+01 -0.52565307351E+01  0.54788737695E+01  0.51100000000E-03 0.  1.
        -12    1    3    3    0    0 -0.91459033237E+01  0.95588696413E+01  0.27383385536E+02  0.30411664536E+02  0.00000000000E+00 0.  1.
</event>
<event>
 7    1  0.2656097E-013  0.7246157E+02  0.7816164E-02  0.1226708E+00
        -11   -1    0    0    0    0  0.00000000000E+00  0.00000000000E+00  0.45593999997E+02  0.45594000000E+02  0.51100000000E-03 0.  1.
         11   -1    0    0    0    0 -0.00000000000E+00 -0.00000000000E+00 -0.45593999997E+02  0.45594000000E+02  0.51100000000E-03 0. -1.
    9900012    2    1    2    0    0 -0.12389378488E+02  0.11590355539E+02 -0.79275484603E+01  0.72461573073E+02  0.70000003620E+02 0.  0.
        -12    1    1    2    0    0  0.12389378488E+02 -0.11590355539E+02  0.79275484603E+01  0.18726426927E+02  0.00000000000E+00 0.  1.
         11    1    3    3    0    0  0.68467460379E+01  0.62497514302E+00 -0.18589617803E+02  0.19820252662E+02  0.51100000000E-03 0. -1.
        -11    1    3    3    0    0 -0.37346488323E+01  0.13270501628E+01 -0.18125852118E+02  0.18554114888E+02  0.51100000000E-03 0.  1.
        -12    1    3    3    0    0 -0.15501475694E+02  0.96383302337E+01  0.28787921460E+02  0.34087205523E+02  0.00000000000E+00 0.  1.
</event>
<event>
 7    1  0.2656097E-013  0.7246156E+02  0.7816164E-02  0.1226708E+00
        -11   -1    0    0    0    0  0.00000000000E+00  0.00000000000E+00  0.45593999997E+02  0.45594000000E+02  0.51100000000E-03 0.  1.
         11   -1    0    0    0    0 -0.00000000000E+00 -0.00000000000E+00 -0.45593999997E+02  0.45594000000E+02  0.51100000000E-03 0. -1.
    9900012    2    1    2    0    0 -0.65895848841E+01 -0.11732715793E+02 -0.13023069320E+02  0.72461559246E+02  0.69999985607E+02 0.  0.
        -12    1    1    2    0    0  0.65895848841E+01  0.11732715793E+02  0.13023069320E+02  0.18726440754E+02  0.00000000000E+00 0.  1.
         11    1    3    3    0    0  0.43381152188E+01 -0.35589822081E+01 -0.35158260853E+02  0.35603214805E+02  0.51100000000E-03 0. -1.
        -11    1    3    3    0    0  0.59733307095E+00  0.62641178825E+01 -0.18728924453E+01  0.65653412719E+01  0.51100000000E-03 0.  1.
        -12    1    3    3    0    0 -0.11525033174E+02 -0.14437851467E+02  0.24008083979E+02  0.30293003169E+02  0.00000000000E+00 0.  1.
</event>
<event>
 7    1  0.2656097E-013  0.7246130E+02  0.7816164E-02  0.1226709E+00
        -11   -1    0    0    0    0  0.00000000000E+00  0.00000000000E+00  0.45593999997E+02  0.45594000000E+02  0.51100000000E-03 0.  1.
         11   -1    0    0    0    0 -0.00000000000E+00 -0.00000000000E+00 -0.45593999997E+02  0.45594000000E+02  0.51100000000E-03 0. -1.
    9900012    2    1    2    0    0 -0.14957802047E+02  0.11010037998E+02  0.23943040818E+01  0.72461295249E+02  0.69999641701E+02 0.  0.
        -12    1    1    2    0    0  0.14957802047E+02 -0.11010037998E+02 -0.23943040818E+01  0.18726704751E+02  0.00000000000E+00 0.  1.
         11    1    3    3    0    0 -0.70671635423E-01 -0.11210790247E+02 -0.16190629186E+02  0.19693229450E+02  0.51100000000E-03 0. -1.
        -11    1    3    3    0    0 -0.14931680294E+02 -0.10549466506E+00 -0.88802470546E+01  0.17373111222E+02  0.51100000000E-03 0.  1.
        -12    1    3    3    0    0  0.44549881999E-01  0.22326322910E+02  0.27465180323E+02  0.35394954577E+02  0.00000000000E+00 0.  1.
</event>
<event>
 7    1  0.2656097E-013  0.7246155E+02  0.7816164E-02  0.1226708E+00
        -11   -1    0    0    0    0  0.00000000000E+00  0.00000000000E+00  0.45593999997E+02  0.45594000000E+02  0.51100000000E-03 0. -1.
         11   -1    0    0    0    0 -0.00000000000E+00 -0.00000000000E+00 -0.45593999997E+02  0.45594000000E+02  0.51100000000E-03 0.  1.
    9900012    2    1    2    0    0 -0.16162433104E+02  0.88767408982E+01  0.32648625584E+01  0.72461545441E+02  0.69999967624E+02 0.  0.
        -12    1    1    2    0    0  0.16162433104E+02 -0.88767408982E+01 -0.32648625584E+01  0.18726454559E+02  0.00000000000E+00 0.  1.
         11    1    3    3    0    0 -0.63305507015E+01  0.21022458143E+02  0.76876163250E+01  0.23261966030E+02  0.51100000000E-03 0. -1.
        -11    1    3    3    0    0 -0.18562393116E+01  0.12180880844E+02  0.13248210719E+02  0.18092389838E+02  0.51100000000E-03 0.  1.
        -12    1    3    3    0    0 -0.79756430910E+01 -0.24326598089E+02 -0.17670964486E+02  0.31107189573E+02  0.00000000000E+00 0.  1.
</event>
<event>
 7    1  0.2656097E-013  0.7246150E+02  0.7816164E-02  0.1226708E+00
        -11   -1    0    0    0    0  0.00000000000E+00  0.00000000000E+00  0.45593999997E+02  0.45594000000E+02  0.51100000000E-03 0. -1.
         11   -1    0    0    0    0 -0.00000000000E+00 -0.00000000000E+00 -0.45593999997E+02  0.45594000000E+02  0.51100000000E-03 0.  1.
    9900012    2    1    2    0    0 -0.17265091127E+02  0.71210772041E+01  0.13743086599E+01  0.72461499086E+02  0.69999907238E+02 0.  0.
        -12    1    1    2    0    0  0.17265091127E+02 -0.71210772041E+01 -0.13743086599E+01  0.18726500914E+02  0.00000000000E+00 0.  1.
         11    1    3    3    0    0 -0.17797047516E+02 -0.70655690056E+00 -0.96214116595E+01  0.20243657909E+02  0.51100000000E-03 0.  1.
        -11    1    3    3    0    0 -0.21347234706E+02 -0.52458132892E+00  0.17833221440E+02  0.27820916634E+02  0.51100000000E-03 0. -1.
        -12    1    3    3    0    0  0.21879191095E+02  0.83522154335E+01 -0.68375011207E+01  0.24396924543E+02  0.00000000000E+00 0.  1.
</event>
<event>
 7    1  0.2656097E-013  0.7246147E+02  0.7816164E-02  0.1226708E+00
        -11   -1    0    0    0    0  0.00000000000E+00  0.00000000000E+00  0.45593999997E+02  0.45594000000E+02  0.51100000000E-03 0.  1.
         11   -1    0    0    0    0 -0.00000000000E+00 -0.00000000000E+00 -0.45593999997E+02  0.45594000000E+02  0.51100000000E-03 0. -1.
    9900012    2    1    2    0    0 -0.64251666887E+01 -0.14796537029E+02 -0.95111811698E+01  0.72461472231E+02  0.69999872254E+02 0.  0.
        -12    1    1    2    0    0  0.64251666887E+01  0.14796537029E+02  0.95111811698E+01  0.18726527769E+02  0.00000000000E+00 0.  1.
         11    1    3    3    0    0  0.87018243941E+00 -0.83445068623E+01  0.91713546930E+01  0.12429873669E+02  0.51100000000E-03 0. -1.
        -11    1    3    3    0    0  0.84321018686E+01 -0.27638500384E+02 -0.23314208338E+01  0.28990042580E+02  0.51100000000E-03 0.  1.
         12    1    3    3    0    0 -0.15727450997E+02  0.21186470217E+02 -0.16351115029E+02  0.31041555983E+02  0.00000000000E+00 0. -1.
</event>
<event>
 7    1  0.2656097E-013  0.7246161E+02  0.7816164E-02  0.1226708E+00
        -11   -1    0    0    0    0  0.00000000000E+00  0.00000000000E+00  0.45593999997E+02  0.45594000000E+02  0.51100000000E-03 0. -1.
         11   -1    0    0    0    0 -0.00000000000E+00 -0.00000000000E+00 -0.45593999997E+02  0.45594000000E+02  0.51100000000E-03 0.  1.
    9900012    2    1    2    0    0 -0.13605176964E+02  0.12687085782E+02 -0.21481662160E+01  0.72461612096E+02  0.70000054454E+02 0.  0.
        -12    1    1    2    0    0  0.13605176964E+02 -0.12687085782E+02  0.21481662160E+01  0.18726387904E+02  0.00000000000E+00 0.  1.
         11    1    3    3    0    0 -0.37224780052E+02  0.54851994086E+01 -0.79457650299E+01  0.38456557889E+02  0.51100000000E-03 0. -1.
        -11    1    3    3    0    0  0.36118771974E+01  0.10598470274E+02 -0.34315316006E+01  0.11711047708E+02  0.51100000000E-03 0.  1.
        -12    1    3    3    0    0  0.20007725891E+02 -0.33965839006E+01  0.92291304146E+01  0.22294006498E+02  0.00000000000E+00 0.  1.
</event>
<event>
 7    1  0.2656097E-013  0.7246156E+02  0.7816164E-02  0.1226708E+00
        -11   -1    0    0    0    0  0.00000000000E+00  0.00000000000E+00  0.45593999997E+02  0.45594000000E+02  0.51100000000E-03 0. -1.
         11   -1    0    0    0    0 -0.00000000000E+00 -0.00000000000E+00 -0.45593999997E+02  0.45594000000E+02  0.51100000000E-03 0.  1.
    9900012    2    1    2    0    0  0.16949537061E+02  0.79501330495E+01 -0.43358853389E+00  0.72461563577E+02  0.69999991250E+02 0.  0.
        -12    1    1    2    0    0 -0.16949537061E+02 -0.79501330495E+01  0.43358853389E+00  0.18726436423E+02  0.00000000000E+00 0.  1.
         11    1    3    3    0    0  0.11603723118E+01 -0.72842571492E+00 -0.53206616310E+01  0.54942250024E+01  0.51100000000E-03 0. -1.
        -11    1    3    3    0    0  0.14263031785E+02 -0.19237017368E+01 -0.28487127552E+02  0.31916314645E+02  0.51100000000E-03 0.  1.
         12    1    3    3    0    0  0.15261329638E+01  0.10602260501E+02  0.33374200649E+02  0.35051023930E+02  0.00000000000E+00 0. -1.
</event>
<event>
 7    1  0.2656097E-013  0.7246131E+02  0.7816164E-02  0.1226709E+00
        -11   -1    0    0    0    0  0.00000000000E+00  0.00000000000E+00  0.45593999997E+02  0.45594000000E+02  0.51100000000E-03 0.  1.
         11   -1    0    0    0    0 -0.00000000000E+00 -0.00000000000E+00 -0.45593999997E+02  0.45594000000E+02  0.51100000000E-03 0. -1.
    9900012    2    1    2    0    0  0.27642796620E+00 -0.27599598544E+01 -0.18520128929E+02  0.72461308718E+02  0.69999659247E+02 0.  0.
        -12    1    1    2    0    0 -0.27642796620E+00  0.27599598544E+01  0.18520128929E+02  0.18726691282E+02  0.00000000000E+00 0.  1.
         11    1    3    3    0    0 -0.23423167652E+01 -0.59064565830E+01 -0.25988891836E+02  0.26754348737E+02  0.51100000000E-03 0. -1.
        -11    1    3    3    0    0  0.19704435420E+02 -0.11112745625E+02  0.60009139671E+01  0.23404462379E+02  0.51100000000E-03 0.  1.
        -12    1    3    3    0    0 -0.17085690688E+02  0.14259242354E+02  0.14678489398E+01  0.22302497602E+02  0.00000000000E+00 0.  1.
</event>
<event>
 7    1  0.2656097E-013  0.7246162E+02  0.7816164E-02  0.1226708E+00
        -11   -1    0    0    0    0  0.00000000000E+00  0.00000000000E+00  0.45593999997E+02  0.45594000000E+02  0.51100000000E-03 0. -1.
         11   -1    0    0    0    0 -0.00000000000E+00 -0.00000000000E+00 -0.45593999997E+02  0.45594000000E+02  0.51100000000E-03 0.  1.
    9900012    2    1    2    0    0 -0.14001038309E+02  0.85543733007E+01  0.90261259263E+01  0.72461619529E+02  0.70000064137E+02 0.  0.
        -12    1    1    2    0    0  0.14001038309E+02 -0.85543733007E+01 -0.90261259263E+01  0.18726380471E+02  0.00000000000E+00 0.  1.
         11    1    3    3    0    0 -0.30487741394E+02  0.10924717374E+02 -0.16245832759E+01  0.32426703442E+02  0.51100000000E-03 0. -1.
        -11    1    3    3    0    0 -0.10740303876E+01  0.78996608947E+01 -0.88104118195E+01  0.11881983850E+02  0.51100000000E-03 0.  1.
         12    1    3    3    0    0  0.17560733473E+02 -0.10270004967E+02  0.19461121022E+02  0.28152932237E+02  0.00000000000E+00 0. -1.
</event>
<event>
 7    1  0.2656097E-013  0.7246154E+02  0.7816164E-02  0.1226708E+00
        -11   -1    0    0    0    0  0.00000000000E+00  0.00000000000E+00  0.45593999997E+02  0.45594000000E+02  0.51100000000E-03 0. -1.
         11   -1    0    0    0    0 -0.00000000000E+00 -0.00000000000E+00 -0.45593999997E+02  0.45594000000E+02  0.51100000000E-03 0.  1.
    9900012    2    1    2    0    0  0.16884414989E+01 -0.43842388394E+01  0.18127545495E+02  0.72461540362E+02  0.69999961008E+02 0.  0.
        -12    1    1    2    0    0 -0.16884414989E+01  0.43842388394E+01 -0.18127545495E+02  0.18726459638E+02  0.00000000000E+00 0.  1.
         11    1    3    3    0    0  0.11020924109E+01 -0.39206297006E+01  0.58367739264E+01  0.71171535785E+01  0.51100000000E-03 0. -1.
        -11    1    3    3    0    0 -0.16969360523E+01 -0.23947264997E+02 -0.15738646419E+02  0.28706377064E+02  0.51100000000E-03 0.  1.
         12    1    3    3    0    0  0.22832851403E+01  0.23483655858E+02  0.28029417987E+02  0.36638009719E+02  0.00000000000E+00 0. -1.
</event>
<event>
 7    1  0.2656097E-013  0.7246150E+02  0.7816164E-02  0.1226708E+00
        -11   -1    0    0    0    0  0.00000000000E+00  0.00000000000E+00  0.45593999997E+02  0.45594000000E+02  0.51100000000E-03 0.  1.
         11   -1    0    0    0    0 -0.00000000000E+00 -0.00000000000E+00 -0.45593999997E+02  0.45594000000E+02  0.51100000000E-03 0. -1.
    9900012    2    1    2    0    0 -0.38119692562E+00  0.11827119132E+02 -0.14513978704E+02  0.72461504442E+02  0.69999914215E+02 0.  0.
        -12    1    1    2    0    0  0.38119692562E+00 -0.11827119132E+02  0.14513978704E+02  0.18726495558E+02  0.00000000000E+00 0.  1.
         11    1    3    3    0    0  0.13733601241E+02  0.22370784895E+02 -0.12344951290E+02  0.29007958261E+02  0.51100000000E-03 0. -1.
        -11    1    3    3    0    0  0.73123707725E+01 -0.92167989886E+00  0.13386424136E+02  0.15281250327E+02  0.51100000000E-03 0.  1.
         12    1    3    3    0    0 -0.21427168939E+02 -0.96219858642E+01 -0.15555451550E+02  0.28172295853E+02  0.00000000000E+00 0. -1.
</event>
<event>
 7    1  0.2656097E-013  0.7246154E+02  0.7816164E-02  0.1226708E+00
        -11   -1    0    0    0    0  0.00000000000E+00  0.00000000000E+00  0.45593999997E+02  0.45594000000E+02  0.51100000000E-03 0.  1.
         11   -1    0    0    0    0 -0.00000000000E+00 -0.00000000000E+00 -0.45593999997E+02  0.45594000000E+02  0.51100000000E-03 0. -1.
    9900012    2    1    2    0    0  0.64763419952E+01 -0.17428188084E+02  0.22350835404E+01  0.72461538936E+02  0.69999959150E+02 0.  0.
        -12    1    1    2    0    0 -0.64763419952E+01  0.17428188084E+02 -0.22350835404E+01  0.18726461064E+02  0.00000000000E+00 0.  1.
         11    1    3    3    0    0  0.18851164466E+02 -0.19229562183E+02 -0.15502219025E+02  0.31071872464E+02  0.51100000000E-03 0. -1.
        -11    1    3    3    0    0 -0.66506011267E+01 -0.16031212619E+02  0.31253204755E+01  0.17635132597E+02  0.51100000000E-03 0.  1.
        -12    1    3    3    0    0 -0.57242213443E+01  0.17832586718E+02  0.14611982090E+02  0.23754533875E+02  0.00000000000E+00 0.  1.
</event>
<event>
 7    1  0.2656097E-013  0.7246155E+02  0.7816164E-02  0.1226708E+00
        -11   -1    0    0    0    0  0.00000000000E+00  0.00000000000E+00  0.45593999997E+02  0.45594000000E+02  0.51100000000E-03 0.  1.
         11   -1    0    0    0    0 -0.00000000000E+00 -0.00000000000E+00 -0.45593999997E+02  0.45594000000E+02  0.51100000000E-03 0. -1.
    9900012    2    1    2    0    0 -0.13215188256E+02  0.11787972904E+02 -0.60895371754E+01  0.72461548952E+02  0.69999972198E+02 0.  0.
        -12    1    1    2    0    0  0.13215188256E+02 -0.11787972904E+02  0.60895371754E+01  0.18726451048E+02  0.00000000000E+00 0.  1.
         11    1    3    3    0    0  0.12415725074E+02 -0.61947269327E+01  0.56763209760E+01  0.14991513965E+02  0.51100000000E-03 0. -1.
        -11    1    3    3    0    0 -0.28985167775E+02  0.27730248403E+02  0.21274449054E+01  0.40170046670E+02  0.51100000000E-03 0.  1.
         12    1    3    3    0    0  0.33542544449E+01 -0.97475485656E+01 -0.13893303057E+02  0.17299988316E+02  0.00000000000E+00 0. -1.
</event>
<event>
 7    1  0.2656097E-013  0.7246160E+02  0.7816164E-02  0.1226708E+00
        -11   -1    0    0    0    0  0.00000000000E+00  0.00000000000E+00  0.45593999997E+02  0.45594000000E+02  0.51100000000E-03 0.  1.
         11   -1    0    0    0    0 -0.00000000000E+00 -0.00000000000E+00 -0.45593999997E+02  0.45594000000E+02  0.51100000000E-03 0. -1.
    9900012    2    1    2    0    0 -0.62698814419E+01  0.61940499774E+01 -0.16522728585E+02  0.72461595425E+02  0.70000032738E+02 0.  0.
        -12    1    1    2    0    0  0.62698814419E+01 -0.61940499774E+01  0.16522728585E+02  0.18726404575E+02  0.00000000000E+00 0.  1.
         11    1    3    3    0    0  0.13825352001E+02  0.10957100457E+02 -0.66252992590E+01  0.18843911455E+02  0.51100000000E-03 0. -1.
        -11    1    3    3    0    0 -0.10294375830E+02  0.20144840464E+02  0.47342877367E+01  0.23112815745E+02  0.51100000000E-03 0.  1.
        -12    1    3    3    0    0 -0.98008576135E+01 -0.24907890944E+02 -0.14631717062E+02  0.30504868225E+02  0.00000000000E+00 0.  1.
</event>
<event>
 7    1  0.2656097E-013  0.7246150E+02  0.7816164E-02  0.1226708E+00
        -11   -1    0    0    0    0  0.00000000000E+00  0.00000000000E+00  0.45593999997E+02  0.45594000000E+02  0.51100000000E-03 0.  1.
         11   -1    0    0    0    0 -0.00000000000E+00 -0.00000000000E+00 -0.45593999997E+02  0.45594000000E+02  0.51100000000E-03 0. -1.
    9900012    2    1    2    0    0  0.91062586882E+01 -0.96087535169E+01 -0.13244991355E+02  0.72461497725E+02  0.69999905465E+02 0.  0.
        -12    1    1    2    0    0 -0.91062586882E+01  0.96087535169E+01  0.13244991355E+02  0.18726502275E+02  0.00000000000E+00 0.  1.
         11    1    3    3    0    0 -0.11785733324E+01  0.16511078045E+01 -0.85590841221E+01  0.87961988013E+01  0.51100000000E-03 0. -1.
        -11    1    3    3    0    0  0.96249705009E+01  0.20690449769E+02  0.13877242954E+02  0.26707913453E+02  0.51100000000E-03 0.  1.
         12    1    3    3    0    0  0.65986151968E+00 -0.31950311090E+02 -0.18563150187E+02  0.36957385471E+02  0.00000000000E+00 0. -1.
</event>
<event>
 7    1  0.2656097E-013  0.7246150E+02  0.7816164E-02  0.1226708E+00
        -11   -1    0    0    0    0  0.00000000000E+00  0.00000000000E+00  0.45593999997E+02  0.45594000000E+02  0.51100000000E-03 0.  1.
         11   -1    0    0    0    0 -0.00000000000E+00 -0.00000000000E+00 -0.45593999997E+02  0.45594000000E+02  0.51100000000E-03 0. -1.
    9900012    2    1    2    0    0 -0.31121732790E+01  0.18463774806E+02  0.29170836948E+00  0.72461502827E+02  0.69999912111E+02 0.  0.
        -12    1    1    2    0    0  0.31121732790E+01 -0.18463774806E+02 -0.29170836948E+00  0.18726497173E+02  0.00000000000E+00 0.  1.
         11    1    3    3    0    0  0.21720575203E+02 -0.35880684949E+01 -0.12266294142E+02  0.25201579214E+02  0.51100000000E-03 0. -1.
        -11    1    3    3    0    0 -0.12886038947E+02 -0.66256741027E+01  0.43153763987E+01  0.15118598836E+02  0.51100000000E-03 0.  1.
         12    1    3    3    0    0 -0.11946709535E+02  0.28677517404E+02  0.82426261123E+01  0.32141324776E+02  0.00000000000E+00 0. -1.
</event>
<event>
 7    1  0.2656097E-013  0.7246160E+02  0.7816164E-02  0.1226708E+00
        -11   -1    0    0    0    0  0.00000000000E+00  0.00000000000E+00  0.45593999997E+02  0.45594000000E+02  0.51100000000E-03 0.  1.
         11   -1    0    0    0    0 -0.00000000000E+00 -0.00000000000E+00 -0.45593999997E+02  0.45594000000E+02  0.51100000000E-03 0. -1.
    9900012    2    1    2    0    0 -0.61437268039E+01  0.17687562612E+02  0.28788347951E+00  0.72461598127E+02  0.70000036258E+02 0.  0.
        -12    1    1    2    0    0  0.61437268039E+01 -0.17687562612E+02 -0.28788347951E+00  0.18726401873E+02  0.00000000000E+00 0.  1.
         11    1    3    3    0    0  0.78170568491E+01  0.12941926530E+02  0.10547528905E+02  0.18435026617E+02  0.51100000000E-03 0. -1.
        -11    1    3    3    0    0 -0.18597843000E+02  0.29980833119E+01  0.17569559572E+02  0.25759613576E+02  0.51100000000E-03 0.  1.
         12    1    3    3    0    0  0.46370593468E+01  0.17475527700E+01 -0.27829204998E+02  0.28266957934E+02  0.00000000000E+00 0. -1.
</event>
<event>
 7    1  0.2656097E-013  0.7246156E+02  0.7816164E-02  0.1226708E+00
        -11   -1    0    0    0    0  0.00000000000E+00  0.00000000000E+00  0.45593999997E+02  0.45594000000E+02  0.51100000000E-03 0.  1.
         11   -1    0    0    0    0 -0.00000000000E+00 -0.00000000000E+00 -0.45593999997E+02  0.45594000000E+02  0.51100000000E-03 0. -1.
    9900012    2    1    2    0    0  0.67723818932E+01 -0.12277379101E+02 -0.12412915442E+02  0.72461557095E+02  0.69999982805E+02 0.  0.
        -12    1    1    2    0    0 -0.67723818932E+01  0.12277379101E+02  0.12412915442E+02  0.18726442905E+02  0.00000000000E+00 0.  1.
         11    1    3    3    0    0  0.21816975739E+01  0.73049267702E+00 -0.39775813755E+01  0.45950601427E+01  0.51100000000E-03 0. -1.
        -11    1    3    3    0    0 -0.24386727214E+02  0.11639581842E+02 -0.12180917159E+02  0.29640632125E+02  0.51100000000E-03 0.  1.
        -12    1    3    3    0    0  0.28977411533E+02 -0.24647453620E+02  0.37455830927E+01  0.38225864828E+02  0.00000000000E+00 0.  1.
</event>
<event>
 7    1  0.2656097E-013  0.7246158E+02  0.7816164E-02  0.1226708E+00
        -11   -1    0    0    0    0  0.00000000000E+00  0.00000000000E+00  0.45593999997E+02  0.45594000000E+02  0.51100000000E-03 0.  1.
         11   -1    0    0    0    0 -0.00000000000E+00 -0.00000000000E+00 -0.45593999997E+02  0.45594000000E+02  0.51100000000E-03 0. -1.
    9900012    2    1    2    0    0 -0.60963176367E+01  0.31426923994E+01 -0.17425191837E+02  0.72461577095E+02  0.70000008860E+02 0.  0.
        -12    1    1    2    0    0  0.60963176367E+01 -0.31426923994E+01  0.17425191837E+02  0.18726422905E+02  0.00000000000E+00 0.  1.
         11    1    3    3    0    0  0.17528816390E+02 -0.50827668922E+01 -0.12944107958E+02  0.22375072166E+02  0.51100000000E-03 0. -1.
        -11    1    3    3    0    0 -0.33750874994E+01  0.82084815716E+01  0.17853936909E+02  0.19938240864E+02  0.51100000000E-03 0.  1.
         12    1    3    3    0    0 -0.20250046528E+02  0.16977720082E-01 -0.22335020787E+02  0.30148264066E+02  0.00000000000E+00 0. -1.
</event>
<event>
 7    1  0.2656097E-013  0.7246159E+02  0.7816164E-02  0.1226708E+00
        -11   -1    0    0    0    0  0.00000000000E+00  0.00000000000E+00  0.45593999997E+02  0.45594000000E+02  0.51100000000E-03 0. -1.
         11   -1    0    0    0    0 -0.00000000000E+00 -0.00000000000E+00 -0.45593999997E+02  0.45594000000E+02  0.51100000000E-03 0.  1.
    9900012    2    1    2    0    0 -0.27657306806E+01  0.14805432306E+02  0.11127810571E+02  0.72461594577E+02  0.70000031633E+02 0.  0.
        -12    1    1    2    0    0  0.27657306806E+01 -0.14805432306E+02 -0.11127810571E+02  0.18726405423E+02  0.00000000000E+00 0.  1.
         11    1    3    3    0    0  0.99746863346E+01  0.89572085083E+01  0.12645759058E+02  0.18429356314E+02  0.51100000000E-03 0. -1.
        -11    1    3    3    0    0 -0.14584924752E+02 -0.10387267962E+02 -0.21655474255E+02  0.28099375993E+02  0.51100000000E-03 0.  1.
         12    1    3    3    0    0  0.18445077369E+01  0.16235491759E+02  0.20137525768E+02  0.25932862270E+02  0.00000000000E+00 0. -1.
</event>
<event>
 7    1  0.2656097E-013  0.7246156E+02  0.7816164E-02  0.1226708E+00
        -11   -1    0    0    0    0  0.00000000000E+00  0.00000000000E+00  0.45593999997E+02  0.45594000000E+02  0.51100000000E-03 0. -1.
         11   -1    0    0    0    0 -0.00000000000E+00 -0.00000000000E+00 -0.45593999997E+02  0.45594000000E+02  0.51100000000E-03 0.  1.
    9900012    2    1    2    0    0  0.12521835500E+02  0.12785227686E+02  0.55155362854E+01  0.72461560088E+02  0.69999986704E+02 0.  0.
        -12    1    1    2    0    0 -0.12521835500E+02 -0.12785227686E+02 -0.55155362854E+01  0.18726439912E+02  0.00000000000E+00 0.  1.
         11    1    3    3    0    0  0.12289539914E+02 -0.15067106531E+02  0.12857492668E+02  0.23310203956E+02  0.51100000000E-03 0. -1.
        -11    1    3    3    0    0  0.88722265158E+01  0.25370622018E+01  0.12720181752E+02  0.15714837321E+02  0.51100000000E-03 0.  1.
        -12    1    3    3    0    0 -0.86399309306E+01  0.25315272015E+02 -0.20062138134E+02  0.33436518811E+02  0.00000000000E+00 0.  1.
</event>
<event>
 7    1  0.2656097E-013  0.7246160E+02  0.7816164E-02  0.1226708E+00
        -11   -1    0    0    0    0  0.00000000000E+00  0.00000000000E+00  0.45593999997E+02  0.45594000000E+02  0.51100000000E-03 0.  1.
         11   -1    0    0    0    0 -0.00000000000E+00 -0.00000000000E+00 -0.45593999997E+02  0.45594000000E+02  0.51100000000E-03 0. -1.
    9900012    2    1    2    0    0  0.18213365077E+01  0.62250342111E+01 -0.17567296494E+02  0.72461595547E+02  0.70000032897E+02 0.  0.
        -12    1    1    2    0    0 -0.18213365077E+01 -0.62250342111E+01  0.17567296494E+02  0.18726404453E+02  0.00000000000E+00 0.  1.
         11    1    3    3    0    0  0.17446364137E+02 -0.14391202845E+02  0.11036938019E+01  0.22642890301E+02  0.51100000000E-03 0. -1.
        -11    1    3    3    0    0 -0.95137573802E+01  0.34130493002E+01  0.11026724740E+02  0.14958246681E+02  0.51100000000E-03 0.  1.
         12    1    3    3    0    0 -0.61112702491E+01  0.17203187756E+02 -0.29697715036E+02  0.34860458565E+02  0.00000000000E+00 0. -1.
</event>
<event>
 7    1  0.2656097E-013  0.7246156E+02  0.7816164E-02  0.1226708E+00
        -11   -1    0    0    0    0  0.00000000000E+00  0.00000000000E+00  0.45593999997E+02  0.45594000000E+02  0.51100000000E-03 0. -1.
         11   -1    0    0    0    0 -0.00000000000E+00 -0.00000000000E+00 -0.45593999997E+02  0.45594000000E+02  0.51100000000E-03 0.  1.
    9900012    2    1    2    0    0  0.13905462020E+01 -0.33616752485E+01  0.18369678425E+02  0.72461559744E+02  0.69999986256E+02 0.  0.
        -12    1    1    2    0    0 -0.13905462020E+01  0.33616752485E+01 -0.18369678425E+02  0.18726440256E+02  0.00000000000E+00 0.  1.
         11    1    3    3    0    0  0.60127203436E+00 -0.15437756772E+01  0.19681097939E+02  0.19750706006E+02  0.51100000000E-03 0. -1.
        -11    1    3    3    0    0 -0.14472588903E+02 -0.19502918079E+01  0.21060790116E+02  0.25628428518E+02  0.51100000000E-03 0.  1.
        -12    1    3    3    0    0  0.15261863071E+02  0.13239223666E+00 -0.22372209630E+02  0.27082425221E+02  0.00000000000E+00 0.  1.
</event>
<event>
 7    1  0.2656097E-013  0.7246154E+02  0.7816164E-02  0.1226708E+00
        -11   -1    0    0    0    0  0.00000000000E+00  0.00000000000E+00  0.45593999997E+02  0.45594000000E+02  0.51100000000E-03 0. -1.
         11   -1    0    0    0    0 -0.00000000000E+00 -0.00000000000E+00 -0.45593999997E+02  0.45594000000E+02  0.51100000000E-03 0.  1.
    9900012    2    1    2    0    0 -0.46222658536E+01  0.54009291202E+01  0.17324687895E+02  0.72461543110E+02  0.69999964587E+02 0.  0.
        -12    1    1    2    0    0  0.46222658536E+01 -0.54009291202E+01 -0.17324687895E+02  0.18726456890E+02  0.00000000000E+00 0.  1.
         11    1    3    3    0    0  0.15020761538E+01  0.61218473313E+01 -0.43605465443E+01  0.76646992077E+01  0.51100000000E-03 0. -1.
        -11    1    3    3    0    0 -0.57406901262E+01  0.27584848374E+01 -0.21012148442E+02  0.21956209694E+02  0.51100000000E-03 0.  1.
         12    1    3    3    0    0 -0.38365188121E+00 -0.34794030484E+01  0.42697382882E+02  0.42840634208E+02  0.00000000000E+00 0. -1.
</event>
<event>
 7    1  0.2656097E-013  0.7246152E+02  0.7816164E-02  0.1226708E+00
        -11   -1    0    0    0    0  0.00000000000E+00  0.00000000000E+00  0.45593999997E+02  0.45594000000E+02  0.51100000000E-03 0.  1.
         11   -1    0    0    0    0 -0.00000000000E+00 -0.00000000000E+00 -0.45593999997E+02  0.45594000000E+02  0.51100000000E-03 0. -1.
    9900012    2    1    2    0    0  0.79864934300E+01 -0.70243624481E+01 -0.15412829871E+02  0.72461519558E+02  0.69999933907E+02 0.  0.
        -12    1    1    2    0    0 -0.79864934300E+01  0.70243624481E+01  0.15412829871E+02  0.18726480442E+02  0.00000000000E+00 0.  1.
         11    1    3    3    0    0  0.23465854513E+02 -0.15335592394E+01 -0.23625549807E+02  0.33334137696E+02  0.51100000000E-03 0. -1.
        -11    1    3    3    0    0  0.96893250951E+01  0.57667423004E-01  0.91642822679E+01  0.13336806817E+02  0.51100000000E-03 0.  1.
         12    1    3    3    0    0 -0.25168686178E+02 -0.55484706318E+01 -0.95156233138E+00  0.25790575045E+02  0.00000000000E+00 0. -1.
</event>
<event>
 7    1  0.2656097E-013  0.7246158E+02  0.7816164E-02  0.1226708E+00
        -11   -1    0    0    0    0  0.00000000000E+00  0.00000000000E+00  0.45593999997E+02  0.45594000000E+02  0.51100000000E-03 0. -1.
         11   -1    0    0    0    0 -0.00000000000E+00 -0.00000000000E+00 -0.45593999997E+02  0.45594000000E+02  0.51100000000E-03 0.  1.
    9900012    2    1    2    0    0  0.44523166414E+01 -0.16846570501E+02  0.68592095928E+01  0.72461579697E+02  0.70000012249E+02 0.  0.
        -12    1    1    2    0    0 -0.44523166414E+01  0.16846570501E+02 -0.68592095928E+01  0.18726420303E+02  0.00000000000E+00 0.  1.
         11    1    3    3    0    0 -0.60024089753E+01 -0.37609949689E+01  0.21921496903E+02  0.23037491691E+02  0.51100000000E-03 0. -1.
        -11    1    3    3    0    0 -0.12367995773E+01 -0.24019872999E+02  0.41603752421E+01  0.24408865080E+02  0.51100000000E-03 0.  1.
         12    1    3    3    0    0  0.11691525194E+02  0.10934297466E+02 -0.19222662553E+02  0.25015222926E+02  0.00000000000E+00 0. -1.
</event>
<event>
 7    1  0.2656097E-013  0.7246132E+02  0.7816164E-02  0.1226709E+00
        -11   -1    0    0    0    0  0.00000000000E+00  0.00000000000E+00  0.45593999997E+02  0.45594000000E+02  0.51100000000E-03 0.  1.
         11   -1    0    0    0    0 -0.00000000000E+00 -0.00000000000E+00 -0.45593999997E+02  0.45594000000E+02  0.51100000000E-03 0. -1.
    9900012    2    1    2    0    0 -0.14451293305E+02 -0.76415686158E+01 -0.91353825695E+01  0.72461316797E+02  0.69999669772E+02 0.  0.
        -12    1    1    2    0    0  0.14451293305E+02  0.76415686158E+01  0.91353825695E+01  0.18726683203E+02  0.00000000000E+00 0.  1.
         11    1    3    3    0    0  0.37342405831E+01 -0.12362592976E+02  0.44904566959E+01  0.13672690278E+02  0.51100000000E-03 0. -1.
        -11    1    3    3    0    0  0.38318870193E+01 -0.13577348825E+02  0.13371875552E+02  0.19437973539E+02  0.51100000000E-03 0.  1.
         12    1    3    3    0    0 -0.22017420907E+02  0.18298373186E+02 -0.26997714817E+02  0.39350652981E+02  0.00000000000E+00 0. -1.
</event>
<event>
 7    1  0.2656097E-013  0.7246155E+02  0.7816164E-02  0.1226708E+00
        -11   -1    0    0    0    0  0.00000000000E+00  0.00000000000E+00  0.45593999997E+02  0.45594000000E+02  0.51100000000E-03 0. -1.
         11   -1    0    0    0    0 -0.00000000000E+00 -0.00000000000E+00 -0.45593999997E+02  0.45594000000E+02  0.51100000000E-03 0.  1.
    9900012    2    1    2    0    0  0.21420025255E+01  0.12696905778E+02  0.13597074501E+02  0.72461547423E+02  0.69999970205E+02 0.  0.
        -12    1    1    2    0    0 -0.21420025255E+01 -0.12696905778E+02 -0.13597074501E+02  0.18726452577E+02  0.00000000000E+00 0.  1.
         11    1    3    3    0    0  0.17299991487E+01 -0.14891509490E+02 -0.12354218031E+01  0.15042480488E+02  0.51100000000E-03 0. -1.
        -11    1    3    3    0    0  0.82912990331E+01  0.20267247866E+01 -0.15057256385E+02  0.17308212592E+02  0.51100000000E-03 0.  1.
         12    1    3    3    0    0 -0.78792956563E+01  0.25561690481E+02  0.29889752689E+02  0.40110854343E+02  0.00000000000E+00 0. -1.
</event>
<event>
 7    1  0.2656097E-013  0.7246157E+02  0.7816164E-02  0.1226708E+00
        -11   -1    0    0    0    0  0.00000000000E+00  0.00000000000E+00  0.45593999997E+02  0.45594000000E+02  0.51100000000E-03 0. -1.
         11   -1    0    0    0    0 -0.00000000000E+00 -0.00000000000E+00 -0.45593999997E+02  0.45594000000E+02  0.51100000000E-03 0.  1.
    9900012    2    1    2    0    0  0.28971979884E+01  0.42754049438E+01  0.18000176979E+02  0.72461569083E+02  0.69999998422E+02 0.  0.
        -12    1    1    2    0    0 -0.28971979884E+01 -0.42754049438E+01 -0.18000176979E+02  0.18726430917E+02  0.00000000000E+00 0.  1.
         11    1    3    3    0    0  0.84497364907E+01  0.20694784605E+02  0.15165495558E+02  0.27012301131E+02  0.51100000000E-03 0. -1.
        -11    1    3    3    0    0  0.17054775717E+01  0.33353190967E+01  0.18713780905E+02  0.19085036108E+02  0.51100000000E-03 0.  1.
        -12    1    3    3    0    0 -0.72580160740E+01 -0.19754698758E+02 -0.15879099484E+02  0.26364231845E+02  0.00000000000E+00 0.  1.
</event>
<event>
 7    1  0.2656097E-013  0.7246158E+02  0.7816164E-02  0.1226708E+00
        -11   -1    0    0    0    0  0.00000000000E+00  0.00000000000E+00  0.45593999997E+02  0.45594000000E+02  0.51100000000E-03 0.  1.
         11   -1    0    0    0    0 -0.00000000000E+00 -0.00000000000E+00 -0.45593999997E+02  0.45594000000E+02  0.51100000000E-03 0. -1.
    9900012    2    1    2    0    0  0.14969709501E+02 -0.41015936861E+01 -0.10476809400E+02  0.72461579933E+02  0.70000012556E+02 0.  0.
        -12    1    1    2    0    0 -0.14969709501E+02  0.41015936861E+01  0.10476809400E+02  0.18726420067E+02  0.00000000000E+00 0.  1.
         11    1    3    3    0    0  0.14504036105E+02 -0.15447207345E+02 -0.79350814776E+01  0.22626285519E+02  0.51100000000E-03 0. -1.
        -11    1    3    3    0    0  0.15991643798E+02 -0.13093518133E+02 -0.29558562212E+01  0.20878457192E+02  0.51100000000E-03 0.  1.
        -12    1    3    3    0    0 -0.15525970401E+02  0.24439131792E+02  0.41412829836E+00  0.28956837222E+02  0.00000000000E+00 0.  1.
</event>
<event>
 7    1  0.2656097E-013  0.7246152E+02  0.7816164E-02  0.1226708E+00
        -11   -1    0    0    0    0  0.00000000000E+00  0.00000000000E+00  0.45593999997E+02  0.45594000000E+02  0.51100000000E-03 0. -1.
         11   -1    0    0    0    0 -0.00000000000E+00 -0.00000000000E+00 -0.45593999997E+02  0.45594000000E+02  0.51100000000E-03 0.  1.
    9900012    2    1    2    0    0  0.50191207144E+01  0.15773036824E+02  0.87579082375E+01  0.72461515544E+02  0.69999928677E+02 0.  0.
        -12    1    1    2    0    0 -0.50191207144E+01 -0.15773036824E+02 -0.87579082375E+01  0.18726484456E+02  0.00000000000E+00 0.  1.
         11    1    3    3    0    0 -0.89601710374E+00  0.17012733384E+02  0.19733109975E+02  0.26069744406E+02  0.51100000000E-03 0. -1.
        -11    1    3    3    0    0 -0.78490996418E+01 -0.15010454559E+02 -0.18891816824E+02  0.25373664584E+02  0.51100000000E-03 0.  1.
         12    1    3    3    0    0  0.13764237460E+02  0.13770757998E+02  0.79166150868E+01  0.21018106554E+02  0.00000000000E+00 0. -1.
</event>
<event>
 7    1  0.2656097E-013  0.7246156E+02  0.7816164E-02  0.1226708E+00
        -11   -1    0    0    0    0  0.00000000000E+00  0.00000000000E+00  0.45593999997E+02  0.45594000000E+02  0.51100000000E-03 0.  1.
         11   -1    0    0    0    0 -0.00000000000E+00 -0.00000000000E+00 -0.45593999997E+02  0.45594000000E+02  0.51100000000E-03 0. -1.
    9900012    2    1    2    0    0  0.13743580455E+02  0.86130417365E+01 -0.93599707841E+01  0.72461560276E+02  0.69999986949E+02 0.  0.
        -12    1    1    2    0    0 -0.13743580455E+02 -0.86130417365E+01  0.93599707841E+01  0.18726439724E+02  0.00000000000E+00 0.  1.
         11    1    3    3    0    0 -0.48089244062E+01  0.29943608671E+01  0.88671551885E+00  0.57339528791E+01  0.51100000000E-03 0. -1.
        -11    1    3    3    0    0  0.65873358267E+01  0.15190597242E+02  0.24029967989E+02  0.29181956749E+02  0.51100000000E-03 0.  1.
         12    1    3    3    0    0  0.11965169034E+02 -0.95719163729E+01 -0.34276654292E+02  0.37545650648E+02  0.00000000000E+00 0. -1.
</event>
<event>
 7    1  0.2656097E-013  0.7246156E+02  0.7816164E-02  0.1226708E+00
        -11   -1    0    0    0    0  0.00000000000E+00  0.00000000000E+00  0.45593999997E+02  0.45594000000E+02  0.51100000000E-03 0.  1.
         11   -1    0    0    0    0 -0.00000000000E+00 -0.00000000000E+00 -0.45593999997E+02  0.45594000000E+02  0.51100000000E-03 0. -1.
    9900012    2    1    2    0    0 -0.72058203288E+01 -0.87142071355E+01 -0.14927093773E+02  0.72461564644E+02  0.69999992640E+02 0.  0.
        -12    1    1    2    0    0  0.72058203288E+01  0.87142071355E+01  0.14927093773E+02  0.18726435356E+02  0.00000000000E+00 0.  1.
         11    1    3    3    0    0  0.95800368665E+01  0.16074871101E+02 -0.91030596496E+01  0.20809716060E+02  0.51100000000E-03 0. -1.
        -11    1    3    3    0    0  0.79297581714E+01  0.66043307739E+01 -0.55032917306E+01  0.11695489291E+02  0.51100000000E-03 0.  1.
        -12    1    3    3    0    0 -0.24715615367E+02 -0.31393409010E+02 -0.32074239302E+00  0.39956359293E+02  0.00000000000E+00 0.  1.
</event>
<event>
 7    1  0.2656097E-013  0.7246153E+02  0.7816164E-02  0.1226708E+00
        -11   -1    0    0    0    0  0.00000000000E+00  0.00000000000E+00  0.45593999997E+02  0.45594000000E+02  0.51100000000E-03 0. -1.
         11   -1    0    0    0    0 -0.00000000000E+00 -0.00000000000E+00 -0.45593999997E+02  0.45594000000E+02  0.51100000000E-03 0.  1.
    9900012    2    1    2    0    0 -0.33020204533E+01  0.15985024779E+02  0.91791141983E+01  0.72461534938E+02  0.69999953942E+02 0.  0.
        -12    1    1    2    0    0  0.33020204533E+01 -0.15985024779E+02 -0.91791141983E+01  0.18726465062E+02  0.00000000000E+00 0.  1.
         11    1    3    3    0    0 -0.25596797543E+02  0.81413929593E+01  0.13536520281E+02  0.30078492405E+02  0.51100000000E-03 0. -1.
        -11    1    3    3    0    0  0.94790348419E+01  0.15653923682E+02  0.10637838519E+02  0.21167452298E+02  0.51100000000E-03 0.  1.
        -12    1    3    3    0    0  0.12815742248E+02 -0.78102918626E+01 -0.14995244601E+02  0.21215590235E+02  0.00000000000E+00 0.  1.
</event>
<event>
 7    1  0.2656097E-013  0.7246160E+02  0.7816164E-02  0.1226708E+00
        -11   -1    0    0    0    0  0.00000000000E+00  0.00000000000E+00  0.45593999997E+02  0.45594000000E+02  0.51100000000E-03 0. -1.
         11   -1    0    0    0    0 -0.00000000000E+00 -0.00000000000E+00 -0.45593999997E+02  0.45594000000E+02  0.51100000000E-03 0.  1.
    9900012    2    1    2    0    0  0.17503542441E+02  0.65468517448E+01  0.12011494528E+01  0.72461600833E+02  0.70000039782E+02 0.  0.
        -12    1    1    2    0    0 -0.17503542441E+02 -0.65468517448E+01 -0.12011494528E+01  0.18726399167E+02  0.00000000000E+00 0.  1.
         11    1    3    3    0    0  0.48359335976E+01  0.66365394029E+01  0.13480679645E+02  0.15784759516E+02  0.51100000000E-03 0. -1.
        -11    1    3    3    0    0  0.32117358657E+02  0.19095907900E+01  0.23463296594E+01  0.32259518398E+02  0.51100000000E-03 0.  1.
        -12    1    3    3    0    0 -0.19449749814E+02 -0.19992784480E+01 -0.14625859852E+02  0.24417322919E+02  0.00000000000E+00 0.  1.
</event>
<event>
 7    1  0.2656097E-013  0.7246159E+02  0.7816164E-02  0.1226708E+00
        -11   -1    0    0    0    0  0.00000000000E+00  0.00000000000E+00  0.45593999997E+02  0.45594000000E+02  0.51100000000E-03 0. -1.
         11   -1    0    0    0    0 -0.00000000000E+00 -0.00000000000E+00 -0.45593999997E+02  0.45594000000E+02  0.51100000000E-03 0.  1.
    9900012    2    1    2    0    0  0.10364730826E+02 -0.13622264556E+02  0.75950540287E+01  0.72461585970E+02  0.70000020420E+02 0.  0.
        -12    1    1    2    0    0 -0.10364730826E+02  0.13622264556E+02 -0.75950540287E+01  0.18726414030E+02  0.00000000000E+00 0.  1.
         11    1    3    3    0    0  0.24132875243E+02 -0.25944980258E+01 -0.23842509234E+01  0.24388762581E+02  0.51100000000E-03 0. -1.
        -11    1    3    3    0    0  0.40608076964E+01 -0.18802855631E+02  0.18635734886E+02  0.26782982545E+02  0.51100000000E-03 0.  1.
        -12    1    3    3    0    0 -0.17828952113E+02  0.77750891007E+01 -0.86564299337E+01  0.21289840844E+02  0.00000000000E+00 0.  1.
</event>
<event>
 7    1  0.2656097E-013  0.7246156E+02  0.7816164E-02  0.1226708E+00
        -11   -1    0    0    0    0  0.00000000000E+00  0.00000000000E+00  0.45593999997E+02  0.45594000000E+02  0.51100000000E-03 0. -1.
         11   -1    0    0    0    0 -0.00000000000E+00 -0.00000000000E+00 -0.45593999997E+02  0.45594000000E+02  0.51100000000E-03 0.  1.
    9900012    2    1    2    0    0 -0.64601427959E+01  0.51836688674E+01  0.16795112281E+02  0.72461557081E+02  0.69999982787E+02 0.  0.
        -12    1    1    2    0    0  0.64601427959E+01 -0.51836688674E+01 -0.16795112281E+02  0.18726442919E+02  0.00000000000E+00 0.  1.
         11    1    3    3    0    0 -0.36337201009E+01 -0.10452913706E+02 -0.38169840279E+01  0.11706267298E+02  0.51100000000E-03 0. -1.
        -11    1    3    3    0    0 -0.14435973352E+02 -0.97010543647E+01 -0.94228132263E+01  0.19781233323E+02  0.51100000000E-03 0.  1.
         12    1    3    3    0    0  0.11609550657E+02  0.25337636938E+02  0.30034909535E+02  0.40974056461E+02  0.00000000000E+00 0. -1.
</event>
<event>
 7    1  0.2656097E-013  0.7246174E+02  0.7816164E-02  0.1226708E+00
        -11   -1    0    0    0    0  0.00000000000E+00  0.00000000000E+00  0.45593999997E+02  0.45594000000E+02  0.51100000000E-03 0.  1.
         11   -1    0    0    0    0 -0.00000000000E+00 -0.00000000000E+00 -0.45593999997E+02  0.45594000000E+02  0.51100000000E-03 0. -1.
    9900012    2    1    2    0    0  0.25549690240E+01 -0.28316127168E+01 -0.18333759690E+02  0.72461744590E+02  0.70000227052E+02 0.  0.
        -12    1    1    2    0    0 -0.25549690240E+01  0.28316127168E+01  0.18333759690E+02  0.18726255410E+02  0.00000000000E+00 0.  1.
         11    1    3    3    0    0  0.18687094651E+02 -0.27004209587E+02 -0.84495676826E+01  0.33909143843E+02  0.51100000000E-03 0. -1.
        -11    1    3    3    0    0  0.21815022463E+01 -0.33960578845E+01 -0.21104510169E+01  0.45547958199E+01  0.51100000000E-03 0.  1.
        -12    1    3    3    0    0 -0.18313627873E+02  0.27568654755E+02 -0.77737409909E+01  0.33997804927E+02  0.00000000000E+00 0.  1.
</event>
<event>
 7    1  0.2656097E-013  0.7246151E+02  0.7816164E-02  0.1226708E+00
        -11   -1    0    0    0    0  0.00000000000E+00  0.00000000000E+00  0.45593999997E+02  0.45594000000E+02  0.51100000000E-03 0.  1.
         11   -1    0    0    0    0 -0.00000000000E+00 -0.00000000000E+00 -0.45593999997E+02  0.45594000000E+02  0.51100000000E-03 0. -1.
    9900012    2    1    2    0    0  0.89427736692E+01  0.12011741232E+02 -0.11243949128E+02  0.72461507528E+02  0.69999918235E+02 0.  0.
        -12    1    1    2    0    0 -0.89427736692E+01 -0.12011741232E+02  0.11243949128E+02  0.18726492472E+02  0.00000000000E+00 0.  1.
         11    1    3    3    0    0 -0.20752414551E+02 -0.15204805328E+01 -0.13617207649E+02  0.24867708281E+02  0.51100000000E-03 0. -1.
        -11    1    3    3    0    0 -0.69667816178E+01 -0.35954282023E+00  0.45484328524E+01  0.83278784107E+01  0.51100000000E-03 0.  1.
        -12    1    3    3    0    0  0.36661969838E+02  0.13891764585E+02 -0.21751743318E+01  0.39265920836E+02  0.00000000000E+00 0.  1.
</event>
<event>
 7    1  0.2656097E-013  0.7246147E+02  0.7816164E-02  0.1226708E+00
        -11   -1    0    0    0    0  0.00000000000E+00  0.00000000000E+00  0.45593999997E+02  0.45594000000E+02  0.51100000000E-03 0. -1.
         11   -1    0    0    0    0 -0.00000000000E+00 -0.00000000000E+00 -0.45593999997E+02  0.45594000000E+02  0.51100000000E-03 0.  1.
    9900012    2    1    2    0    0 -0.15494969785E+02 -0.84431794682E+01  0.62691025606E+01  0.72461467617E+02  0.69999866244E+02 0.  0.
        -12    1    1    2    0    0  0.15494969785E+02  0.84431794682E+01 -0.62691025606E+01  0.18726532383E+02  0.00000000000E+00 0.  1.
         11    1    3    3    0    0 -0.20115599294E+02  0.27294169717E+01 -0.13326764026E+02  0.24283527167E+02  0.51100000000E-03 0. -1.
        -11    1    3    3    0    0 -0.53487759312E+01  0.46099440071E+01 -0.10564979907E+02  0.12707469788E+02  0.51100000000E-03 0.  1.
         12    1    3    3    0    0  0.99694054406E+01 -0.15782540447E+02  0.30160846494E+02  0.35470470663E+02  0.00000000000E+00 0. -1.
</event>
<event>
 7    1  0.2656097E-013  0.7246156E+02  0.7816164E-02  0.1226708E+00
        -11   -1    0    0    0    0  0.00000000000E+00  0.00000000000E+00  0.45593999997E+02  0.45594000000E+02  0.51100000000E-03 0. -1.
         11   -1    0    0    0    0 -0.00000000000E+00 -0.00000000000E+00 -0.45593999997E+02  0.45594000000E+02  0.51100000000E-03 0.  1.
    9900012    2    1    2    0    0  0.38086757463E+01 -0.28851729266E+01  0.18106612480E+02  0.72461557485E+02  0.69999983313E+02 0.  0.
        -12    1    1    2    0    0 -0.38086757463E+01  0.28851729266E+01 -0.18106612480E+02  0.18726442515E+02  0.00000000000E+00 0.  1.
         11    1    3    3    0    0  0.11732691668E+02 -0.16402503466E+02  0.97455659188E+00  0.20190293077E+02  0.51100000000E-03 0. -1.
        -11    1    3    3    0    0 -0.13222963200E+02 -0.13877472356E+01 -0.12774934883E+02  0.18438317702E+02  0.51100000000E-03 0.  1.
         12    1    3    3    0    0  0.52989472783E+01  0.14905077775E+02  0.29906990771E+02  0.33832946705E+02  0.00000000000E+00 0. -1.
</event>
<event>
 7    1  0.2656097E-013  0.7246156E+02  0.7816164E-02  0.1226708E+00
        -11   -1    0    0    0    0  0.00000000000E+00  0.00000000000E+00  0.45593999997E+02  0.45594000000E+02  0.51100000000E-03 0.  1.
         11   -1    0    0    0    0 -0.00000000000E+00 -0.00000000000E+00 -0.45593999997E+02  0.45594000000E+02  0.51100000000E-03 0. -1.
    9900012    2    1    2    0    0 -0.46458598636E+01 -0.14266022434E+02 -0.11206082021E+02  0.72461556552E+02  0.69999982098E+02 0.  0.
        -12    1    1    2    0    0  0.46458598636E+01  0.14266022434E+02  0.11206082021E+02  0.18726443448E+02  0.00000000000E+00 0.  1.
         11    1    3    3    0    0 -0.74374882115E+01 -0.12786272677E+02  0.10905005287E+02  0.18377272388E+02  0.51100000000E-03 0. -1.
        -11    1    3    3    0    0 -0.15530870632E+02  0.62905533087E+01  0.75388024871E+01  0.18374235949E+02  0.51100000000E-03 0.  1.
         12    1    3    3    0    0  0.18322498980E+02 -0.77703030659E+01 -0.29649889795E+02  0.35710048214E+02  0.00000000000E+00 0. -1.
</event>
<event>
 7    1  0.2656097E-013  0.7246162E+02  0.7816164E-02  0.1226708E+00
        -11   -1    0    0    0    0  0.00000000000E+00  0.00000000000E+00  0.45593999997E+02  0.45594000000E+02  0.51100000000E-03 0. -1.
         11   -1    0    0    0    0 -0.00000000000E+00 -0.00000000000E+00 -0.45593999997E+02  0.45594000000E+02  0.51100000000E-03 0.  1.
    9900012    2    1    2    0    0  0.95576524808E+00  0.18580654324E+02 -0.21267497457E+01  0.72461621098E+02  0.70000066181E+02 0.  0.
        -12    1    1    2    0    0 -0.95576524808E+00 -0.18580654324E+02  0.21267497457E+01  0.18726378902E+02  0.00000000000E+00 0.  1.
         11    1    3    3    0    0 -0.73558703941E+00  0.25092910603E+02  0.94064642122E+01  0.26808148390E+02  0.51100000000E-03 0. -1.
        -11    1    3    3    0    0  0.17165970024E+01 -0.95091617440E+01  0.15602719216E+02  0.18352539594E+02  0.51100000000E-03 0.  1.
        -12    1    3    3    0    0 -0.25244714897E-01  0.29969054644E+01 -0.27135933174E+02  0.27300933114E+02  0.00000000000E+00 0.  1.
</event>
<event>
 7    1  0.2656097E-013  0.7246153E+02  0.7816164E-02  0.1226708E+00
        -11   -1    0    0    0    0  0.00000000000E+00  0.00000000000E+00  0.45593999997E+02  0.45594000000E+02  0.51100000000E-03 0. -1.
         11   -1    0    0    0    0 -0.00000000000E+00 -0.00000000000E+00 -0.45593999997E+02  0.45594000000E+02  0.51100000000E-03 0.  1.
    9900012    2    1    2    0    0  0.17874029181E+02 -0.27133445387E+01  0.48823703657E+01  0.72461529480E+02  0.69999946832E+02 0.  0.
        -12    1    1    2    0    0 -0.17874029181E+02  0.27133445387E+01 -0.48823703657E+01  0.18726470520E+02  0.00000000000E+00 0.  1.
         11    1    3    3    0    0 -0.43465834998E+01 -0.70760944153E+01 -0.12086338595E+02  0.14664360920E+02  0.51100000000E-03 0. -1.
        -11    1    3    3    0    0  0.12541697926E+02 -0.17405603043E+02  0.24732752138E+02  0.32740773246E+02  0.51100000000E-03 0.  1.
         12    1    3    3    0    0  0.96789147545E+01  0.21768352920E+02 -0.77640431774E+01  0.25056395314E+02  0.00000000000E+00 0. -1.
</event>
<event>
 7    1  0.2656097E-013  0.7246162E+02  0.7816164E-02  0.1226708E+00
        -11   -1    0    0    0    0  0.00000000000E+00  0.00000000000E+00  0.45593999997E+02  0.45594000000E+02  0.51100000000E-03 0. -1.
         11   -1    0    0    0    0 -0.00000000000E+00 -0.00000000000E+00 -0.45593999997E+02  0.45594000000E+02  0.51100000000E-03 0.  1.
    9900012    2    1    2    0    0 -0.10024288883E+02  0.20020812994E+01  0.15690204943E+02  0.72461622126E+02  0.70000067520E+02 0.  0.
        -12    1    1    2    0    0  0.10024288883E+02 -0.20020812994E+01 -0.15690204943E+02  0.18726377874E+02  0.00000000000E+00 0.  1.
         11    1    3    3    0    0 -0.70710170066E+01  0.12664311918E+02 -0.67907388168E+01  0.16015561551E+02  0.51100000000E-03 0.  1.
        -11    1    3    3    0    0 -0.11852775249E+02  0.14622186685E+02 -0.34668174704E+01  0.19139369064E+02  0.51100000000E-03 0. -1.
        -12    1    3    3    0    0  0.88995033726E+01 -0.25284417303E+02  0.25947761230E+02  0.37306691511E+02  0.00000000000E+00 0.  1.
</event>
<event>
 7    1  0.2656097E-013  0.7246157E+02  0.7816164E-02  0.1226708E+00
        -11   -1    0    0    0    0  0.00000000000E+00  0.00000000000E+00  0.45593999997E+02  0.45594000000E+02  0.51100000000E-03 0.  1.
         11   -1    0    0    0    0 -0.00000000000E+00 -0.00000000000E+00 -0.45593999997E+02  0.45594000000E+02  0.51100000000E-03 0. -1.
    9900012    2    1    2    0    0 -0.34282609173E+01  0.16015239178E+02 -0.90795597213E+01  0.72461567783E+02  0.69999996729E+02 0.  0.
        -12    1    1    2    0    0  0.34282609173E+01 -0.16015239178E+02  0.90795597213E+01  0.18726432217E+02  0.00000000000E+00 0.  1.
         11    1    3    3    0    0  0.16793581431E+01  0.12397490126E+02 -0.11039235834E+02  0.16684805460E+02  0.51100000000E-03 0. -1.
        -11    1    3    3    0    0  0.10779129075E+02  0.25906249743E+02 -0.19551401585E+01  0.28127317196E+02  0.51100000000E-03 0.  1.
        -12    1    3    3    0    0 -0.15886748135E+02 -0.22288500691E+02  0.39148162707E+01  0.27649445127E+02  0.00000000000E+00 0.  1.
</event>
<event>
 7    1  0.2656097E-013  0.7246156E+02  0.7816164E-02  0.1226708E+00
        -11   -1    0    0    0    0  0.00000000000E+00  0.00000000000E+00  0.45593999997E+02  0.45594000000E+02  0.51100000000E-03 0.  1.
         11   -1    0    0    0    0 -0.00000000000E+00 -0.00000000000E+00 -0.45593999997E+02  0.45594000000E+02  0.51100000000E-03 0. -1.
    9900012    2    1    2    0    0  0.21108873901E+01  0.14010926266E+02 -0.12244091937E+02  0.72461556457E+02  0.69999981975E+02 0.  0.
        -12    1    1    2    0    0 -0.21108873901E+01 -0.14010926266E+02  0.12244091937E+02  0.18726443543E+02  0.00000000000E+00 0.  1.
         11    1    3    3    0    0 -0.35351177405E+01  0.16338138032E+02 -0.12677180606E+02  0.20979578646E+02  0.51100000000E-03 0. -1.
        -11    1    3    3    0    0  0.18790074808E+02 -0.10869011428E+02 -0.17340684846E+02  0.27783118469E+02  0.51100000000E-03 0.  1.
         12    1    3    3    0    0 -0.13144069677E+02  0.85417996616E+01  0.17773773515E+02  0.23698859342E+02  0.00000000000E+00 0. -1.
</event>
<event>
 7    1  0.2656097E-013  0.7246156E+02  0.7816164E-02  0.1226708E+00
        -11   -1    0    0    0    0  0.00000000000E+00  0.00000000000E+00  0.45593999997E+02  0.45594000000E+02  0.51100000000E-03 0. -1.
         11   -1    0    0    0    0 -0.00000000000E+00 -0.00000000000E+00 -0.45593999997E+02  0.45594000000E+02  0.51100000000E-03 0.  1.
    9900012    2    1    2    0    0  0.15240184740E+01  0.18099924146E+02  0.45551773117E+01  0.72461560757E+02  0.69999987575E+02 0.  0.
        -12    1    1    2    0    0 -0.15240184740E+01 -0.18099924146E+02 -0.45551773117E+01  0.18726439243E+02  0.00000000000E+00 0.  1.
         11    1    3    3    0    0 -0.29116021210E+02  0.23791291629E+01 -0.69252506185E+01  0.30022692136E+02  0.51100000000E-03 0. -1.
        -11    1    3    3    0    0  0.35858889282E+01  0.75308610556E+01  0.11457738094E+02  0.14172234479E+02  0.51100000000E-03 0.  1.
        -12    1    3    3    0    0  0.27054150756E+02  0.81899339273E+01  0.22689836455E-01  0.28266634142E+02  0.00000000000E+00 0.  1.
</event>
<event>
 7    1  0.2656097E-013  0.7246154E+02  0.7816164E-02  0.1226708E+00
        -11   -1    0    0    0    0  0.00000000000E+00  0.00000000000E+00  0.45593999997E+02  0.45594000000E+02  0.51100000000E-03 0.  1.
         11   -1    0    0    0    0 -0.00000000000E+00 -0.00000000000E+00 -0.45593999997E+02  0.45594000000E+02  0.51100000000E-03 0. -1.
    9900012    2    1    2    0    0 -0.19641945808E+01  0.11285157222E+02 -0.14814438509E+02  0.72461536847E+02  0.69999956429E+02 0.  0.
        -12    1    1    2    0    0  0.19641945808E+01 -0.11285157222E+02  0.14814438509E+02  0.18726463153E+02  0.00000000000E+00 0.  1.
         11    1    3    3    0    0 -0.13190849158E+02 -0.23500531923E+02 -0.75140129429E+01  0.27977381810E+02  0.51100000000E-03 0. -1.
        -11    1    3    3    0    0 -0.75124774316E+01  0.65784323921E+01 -0.96538648018E+00  0.10032201215E+02  0.51100000000E-03 0.  1.
        -12    1    3    3    0    0  0.18739132009E+02  0.28207256753E+02 -0.63350390858E+01  0.34451953822E+02  0.00000000000E+00 0.  1.
</event>
<event>
 7    1  0.2656097E-013  0.7246160E+02  0.7816164E-02  0.1226708E+00
        -11   -1    0    0    0    0  0.00000000000E+00  0.00000000000E+00  0.45593999997E+02  0.45594000000E+02  0.51100000000E-03 0. -1.
         11   -1    0    0    0    0 -0.00000000000E+00 -0.00000000000E+00 -0.45593999997E+02  0.45594000000E+02  0.51100000000E-03 0.  1.
    9900012    2    1    2    0    0 -0.14726823321E+02 -0.50344822198E+01  0.10414062622E+02  0.72461600543E+02  0.70000039404E+02 0.  0.
        -12    1    1    2    0    0  0.14726823321E+02  0.50344822198E+01 -0.10414062622E+02  0.18726399457E+02  0.00000000000E+00 0.  1.
         11    1    3    3    0    0 -0.15106866106E+02 -0.22606983050E+02  0.48731336184E+01  0.27623188043E+02  0.51100000000E-03 0. -1.
        -11    1    3    3    0    0  0.11082877190E+02 -0.44944501436E+00 -0.12834745292E+02  0.16963574346E+02  0.51100000000E-03 0.  1.
        -12    1    3    3    0    0 -0.10702834404E+02  0.18021945844E+02  0.18375674295E+02  0.27874838154E+02  0.00000000000E+00 0.  1.
</event>
<event>
 7    1  0.2656097E-013  0.7246157E+02  0.7816164E-02  0.1226708E+00
        -11   -1    0    0    0    0  0.00000000000E+00  0.00000000000E+00  0.45593999997E+02  0.45594000000E+02  0.51100000000E-03 0.  1.
         11   -1    0    0    0    0 -0.00000000000E+00 -0.00000000000E+00 -0.45593999997E+02  0.45594000000E+02  0.51100000000E-03 0. -1.
    9900012    2    1    2    0    0  0.16501103199E+02  0.82759535641E+01 -0.31466345064E+01  0.72461571539E+02  0.70000001622E+02 0.  0.
        -12    1    1    2    0    0 -0.16501103199E+02 -0.82759535641E+01  0.31466345064E+01  0.18726428461E+02  0.00000000000E+00 0.  1.
         11    1    3    3    0    0  0.66629917984E+01  0.47551893517E+01 -0.71877057960E+01  0.10893594464E+02  0.51100000000E-03 0. -1.
        -11    1    3    3    0    0  0.22093471077E+02 -0.22503636766E+02 -0.37696494864E+01  0.31760752344E+02  0.51100000000E-03 0.  1.
        -12    1    3    3    0    0 -0.12255359677E+02  0.26024400979E+02  0.78107207760E+01  0.29807224731E+02  0.00000000000E+00 0.  1.
</event>
<event>
 7    1  0.2656097E-013  0.7246157E+02  0.7816164E-02  0.1226708E+00
        -11   -1    0    0    0    0  0.00000000000E+00  0.00000000000E+00  0.45593999997E+02  0.45594000000E+02  0.51100000000E-03 0.  1.
         11   -1    0    0    0    0 -0.00000000000E+00 -0.00000000000E+00 -0.45593999997E+02  0.45594000000E+02  0.51100000000E-03 0. -1.
    9900012    2    1    2    0    0 -0.68772646821E+01 -0.15696409468E+02  0.75501714508E+01  0.72461571386E+02  0.70000001422E+02 0.  0.
        -12    1    1    2    0    0  0.68772646821E+01  0.15696409468E+02 -0.75501714508E+01  0.18726428614E+02  0.00000000000E+00 0.  1.
         11    1    3    3    0    0 -0.49492109912E+01 -0.20101187778E+02 -0.20156827358E+01  0.20799409046E+02  0.51100000000E-03 0. -1.
        -11    1    3    3    0    0 -0.24298051753E+02 -0.72516996786E+01  0.70099506982E+01  0.26308209294E+02  0.51100000000E-03 0.  1.
         12    1    3    3    0    0  0.22369998062E+02  0.11656477988E+02  0.25559034884E+01  0.25353953045E+02  0.00000000000E+00 0. -1.
</event>
<event>
 7    1  0.2656097E-013  0.7246156E+02  0.7816164E-02  0.1226708E+00
        -11   -1    0    0    0    0  0.00000000000E+00  0.00000000000E+00  0.45593999997E+02  0.45594000000E+02  0.51100000000E-03 0.  1.
         11   -1    0    0    0    0 -0.00000000000E+00 -0.00000000000E+00 -0.45593999997E+02  0.45594000000E+02  0.51100000000E-03 0. -1.
    9900012    2    1    2    0    0 -0.79003140744E+01  0.16974473091E+02  0.36333731148E+00  0.72461555778E+02  0.69999981090E+02 0.  0.
        -12    1    1    2    0    0  0.79003140744E+01 -0.16974473091E+02 -0.36333731148E+00  0.18726444222E+02  0.00000000000E+00 0.  1.
         11    1    3    3    0    0 -0.29360195954E+01 -0.29101703413E+01 -0.11624535429E+02  0.12337711566E+02  0.51100000000E-03 0. -1.
        -11    1    3    3    0    0 -0.11877296307E+02  0.23715309243E+02  0.30246219678E+02  0.40228346537E+02  0.51100000000E-03 0.  1.
         12    1    3    3    0    0  0.69130018278E+01 -0.38306658101E+01 -0.18258346938E+02  0.19895497675E+02  0.00000000000E+00 0. -1.
</event>
<event>
 7    1  0.2656097E-013  0.7246162E+02  0.7816164E-02  0.1226708E+00
        -11   -1    0    0    0    0  0.00000000000E+00  0.00000000000E+00  0.45593999997E+02  0.45594000000E+02  0.51100000000E-03 0. -1.
         11   -1    0    0    0    0 -0.00000000000E+00 -0.00000000000E+00 -0.45593999997E+02  0.45594000000E+02  0.51100000000E-03 0.  1.
    9900012    2    1    2    0    0 -0.13615468060E+02 -0.60941421615E+01  0.11320683560E+02  0.72461617129E+02  0.70000061011E+02 0.  0.
        -12    1    1    2    0    0  0.13615468060E+02  0.60941421615E+01 -0.11320683560E+02  0.18726382871E+02  0.00000000000E+00 0.  1.
         11    1    3    3    0    0 -0.25206031876E+02 -0.28175141527E+02  0.24217157735E+01  0.37882018829E+02  0.51100000000E-03 0. -1.
        -11    1    3    3    0    0 -0.29447847679E+01  0.78955072745E+01 -0.51573298306E+01  0.98797188064E+01  0.51100000000E-03 0.  1.
        -12    1    3    3    0    0  0.14535348584E+02  0.14185492091E+02  0.14056297617E+02  0.24699879494E+02  0.00000000000E+00 0.  1.
</event>
<event>
 7    1  0.2656097E-013  0.7246170E+02  0.7816164E-02  0.1226708E+00
        -11   -1    0    0    0    0  0.00000000000E+00  0.00000000000E+00  0.45593999997E+02  0.45594000000E+02  0.51100000000E-03 0. -1.
         11   -1    0    0    0    0 -0.00000000000E+00 -0.00000000000E+00 -0.45593999997E+02  0.45594000000E+02  0.51100000000E-03 0.  1.
    9900012    2    1    2    0    0  0.12875560778E+02 -0.12167080105E+02  0.60709552430E+01  0.72461697610E+02  0.70000165852E+02 0.  0.
        -12    1    1    2    0    0 -0.12875560778E+02  0.12167080105E+02 -0.60709552430E+01  0.18726302390E+02  0.00000000000E+00 0.  1.
         11    1    3    3    0    0  0.31730873975E+01  0.18603091555E+01  0.18232514833E+01  0.41052990170E+01  0.51100000000E-03 0. -1.
        -11    1    3    3    0    0  0.36373168958E+01 -0.18505118856E+02 -0.28818916454E+02  0.34441246259E+02  0.51100000000E-03 0.  1.
         12    1    3    3    0    0  0.60651564844E+01  0.44777295947E+01  0.33066620213E+02  0.33915152334E+02  0.00000000000E+00 0. -1.
</event>
<event>
 7    1  0.2821184E-013  0.7246180E+02  0.7816164E-02  0.1226707E+00
        -11   -1    0    0    0    0  0.00000000000E+00  0.00000000000E+00  0.45593999997E+02  0.45594000000E+02  0.51100000000E-03 0. -1.
         11   -1    0    0    0    0 -0.00000000000E+00 -0.00000000000E+00 -0.45593999997E+02  0.45594000000E+02  0.51100000000E-03 0.  1.
    9900012    2    1    2    0    0  0.89542372808E+01  0.98187569544E+01  0.13194102908E+02  0.72461796302E+02  0.70000294416E+02 0.  0.
        -12    1    1    2    0    0 -0.89542372808E+01 -0.98187569544E+01 -0.13194102908E+02  0.18726203698E+02  0.00000000000E+00 0.  1.
         11    1    3    3    0    0  0.46223700236E+01 -0.25608917602E+01  0.28778980912E+02  0.29260113019E+02  0.51100000000E-03 0. -1.
        -11    1    3    3    0    0  0.98045511173E+01  0.13722116478E+02  0.82040217675E+01  0.18754510835E+02  0.51100000000E-03 0.  1.
        -12    1    3    3    0    0 -0.54726838602E+01 -0.13424677634E+01 -0.23788899772E+02  0.24447172448E+02  0.00000000000E+00 0.  1.
</event>
<event>
 7    1  0.2656097E-013  0.7246147E+02  0.7816164E-02  0.1226708E+00
        -11   -1    0    0    0    0  0.00000000000E+00  0.00000000000E+00  0.45593999997E+02  0.45594000000E+02  0.51100000000E-03 0.  1.
         11   -1    0    0    0    0 -0.00000000000E+00 -0.00000000000E+00 -0.45593999997E+02  0.45594000000E+02  0.51100000000E-03 0. -1.
    9900012    2    1    2    0    0  0.46225465044E+01 -0.15075337505E+02  0.10101941959E+02  0.72461468863E+02  0.69999867867E+02 0.  0.
        -12    1    1    2    0    0 -0.46225465044E+01  0.15075337505E+02 -0.10101941959E+02  0.18726531137E+02  0.00000000000E+00 0.  1.
         11    1    3    3    0    0  0.21439437772E+02 -0.11436538875E+02  0.11238351598E+01  0.24325026602E+02  0.51100000000E-03 0. -1.
        -11    1    3    3    0    0  0.32410222924E+01  0.71462012682E+01 -0.13832742207E+02  0.15903369935E+02  0.51100000000E-03 0.  1.
        -12    1    3    3    0    0 -0.20057913560E+02 -0.10784999898E+02  0.22810849006E+02  0.32233072326E+02  0.00000000000E+00 0.  1.
</event>
<event>
 7    1  0.2656097E-013  0.7246161E+02  0.7816164E-02  0.1226708E+00
        -11   -1    0    0    0    0  0.00000000000E+00  0.00000000000E+00  0.45593999997E+02  0.45594000000E+02  0.51100000000E-03 0.  1.
         11   -1    0    0    0    0 -0.00000000000E+00 -0.00000000000E+00 -0.45593999997E+02  0.45594000000E+02  0.51100000000E-03 0. -1.
    9900012    2    1    2    0    0  0.46234954729E+01  0.12920948030E+01 -0.18100589710E+02  0.72461613076E+02  0.70000055731E+02 0.  0.
        -12    1    1    2    0    0 -0.46234954729E+01 -0.12920948030E+01  0.18100589710E+02  0.18726386924E+02  0.00000000000E+00 0.  1.
         11    1    3    3    0    0 -0.85301396478E+01  0.12215510909E+02 -0.18931008020E+02  0.24090766989E+02  0.51100000000E-03 0. -1.
        -11    1    3    3    0    0  0.22097809243E+02 -0.11296303203E+02 -0.15844933670E+02  0.29444550645E+02  0.51100000000E-03 0.  1.
        -12    1    3    3    0    0 -0.89441741223E+01  0.37288709691E+00  0.16675351980E+02  0.18926295442E+02  0.00000000000E+00 0.  1.
</event>
<event>
 7    1  0.2656097E-013  0.7246157E+02  0.7816164E-02  0.1226708E+00
        -11   -1    0    0    0    0  0.00000000000E+00  0.00000000000E+00  0.45593999997E+02  0.45594000000E+02  0.51100000000E-03 0.  1.
         11   -1    0    0    0    0 -0.00000000000E+00 -0.00000000000E+00 -0.45593999997E+02  0.45594000000E+02  0.51100000000E-03 0. -1.
    9900012    2    1    2    0    0 -0.16266322619E+02 -0.75458552302E+01 -0.53987074806E+01  0.72461568809E+02  0.69999998065E+02 0.  0.
        -12    1    1    2    0    0  0.16266322619E+02  0.75458552302E+01  0.53987074806E+01  0.18726431191E+02  0.00000000000E+00 0.  1.
         11    1    3    3    0    0  0.23132709929E+02  0.77977436575E+01  0.99738536783E+01  0.26370529617E+02  0.51100000000E-03 0. -1.
        -11    1    3    3    0    0 -0.13205240102E+00 -0.11659244758E+01  0.68804625075E+00  0.13602299894E+01  0.51100000000E-03 0.  1.
        -12    1    3    3    0    0 -0.39266980147E+02 -0.14177674412E+02 -0.16060607410E+02  0.44730809203E+02  0.00000000000E+00 0.  1.
</event>
<event>
 7    1  0.2656097E-013  0.7246156E+02  0.7816164E-02  0.1226708E+00
        -11   -1    0    0    0    0  0.00000000000E+00  0.00000000000E+00  0.45593999997E+02  0.45594000000E+02  0.51100000000E-03 0. -1.
         11   -1    0    0    0    0 -0.00000000000E+00 -0.00000000000E+00 -0.45593999997E+02  0.45594000000E+02  0.51100000000E-03 0.  1.
    9900012    2    1    2    0    0 -0.13608777552E+02  0.67977102887E+01 -0.10921158426E+02  0.72461564328E+02  0.69999992227E+02 0.  0.
        -12    1    1    2    0    0  0.13608777552E+02 -0.67977102887E+01  0.10921158426E+02  0.18726435672E+02  0.00000000000E+00 0.  1.
         11    1    3    3    0    0 -0.36256825052E+02 -0.53439758459E+01  0.20818943345E+01  0.36707624888E+02  0.51100000000E-03 0. -1.
        -11    1    3    3    0    0 -0.20218821310E+01  0.74675473483E+01 -0.56844082095E+01  0.96002483147E+01  0.51100000000E-03 0.  1.
        -12    1    3    3    0    0  0.24669929631E+02  0.46741387862E+01 -0.73186445509E+01  0.26153691125E+02  0.00000000000E+00 0.  1.
</event>
<event>
 7    1  0.2656097E-013  0.7246213E+02  0.7816164E-02  0.1226707E+00
        -11   -1    0    0    0    0  0.00000000000E+00  0.00000000000E+00  0.45593999997E+02  0.45594000000E+02  0.51100000000E-03 0.  1.
         11   -1    0    0    0    0 -0.00000000000E+00 -0.00000000000E+00 -0.45593999997E+02  0.45594000000E+02  0.51100000000E-03 0. -1.
    9900012    2    1    2    0    0  0.24713419588E+01  0.10930153308E+02 -0.15002747591E+02  0.72462129721E+02  0.70000728753E+02 0.  0.
        -12    1    1    2    0    0 -0.24713419588E+01 -0.10930153308E+02  0.15002747591E+02  0.18725870279E+02  0.00000000000E+00 0.  1.
         11    1    3    3    0    0 -0.15476784369E+02  0.93525807771E+01 -0.27097577469E+02  0.32577297717E+02  0.51100000000E-03 0. -1.
        -11    1    3    3    0    0 -0.86795720949E+01  0.60418169284E+01  0.61679065775E+01  0.12242613910E+02  0.51100000000E-03 0.  1.
         12    1    3    3    0    0  0.26627698423E+02 -0.44642443973E+01  0.59269233001E+01  0.27642218094E+02  0.00000000000E+00 0. -1.
</event>
<event>
 7    1  0.2656097E-013  0.7246155E+02  0.7816164E-02  0.1226708E+00
        -11   -1    0    0    0    0  0.00000000000E+00  0.00000000000E+00  0.45593999997E+02  0.45594000000E+02  0.51100000000E-03 0.  1.
         11   -1    0    0    0    0 -0.00000000000E+00 -0.00000000000E+00 -0.45593999997E+02  0.45594000000E+02  0.51100000000E-03 0. -1.
    9900012    2    1    2    0    0  0.13357000749E+02  0.11008918842E+02 -0.71466265127E+01  0.72461547224E+02  0.69999969946E+02 0.  0.
        -12    1    1    2    0    0 -0.13357000749E+02 -0.11008918842E+02  0.71466265127E+01  0.18726452776E+02  0.00000000000E+00 0.  1.
         11    1    3    3    0    0 -0.22638673701E+02  0.13078008592E+02 -0.13481094571E+02  0.29415706124E+02  0.51100000000E-03 0. -1.
        -11    1    3    3    0    0  0.30452587033E+01  0.69199566198E+01  0.45945819784E+01  0.88470098908E+01  0.51100000000E-03 0.  1.
        -12    1    3    3    0    0  0.32950415746E+02 -0.89890463693E+01  0.17398860795E+01  0.34198831209E+02  0.00000000000E+00 0.  1.
</event>
<event>
 7    1  0.2656097E-013  0.7246157E+02  0.7816164E-02  0.1226708E+00
        -11   -1    0    0    0    0  0.00000000000E+00  0.00000000000E+00  0.45593999997E+02  0.45594000000E+02  0.51100000000E-03 0.  1.
         11   -1    0    0    0    0 -0.00000000000E+00 -0.00000000000E+00 -0.45593999997E+02  0.45594000000E+02  0.51100000000E-03 0. -1.
    9900012    2    1    2    0    0 -0.11900049682E+02 -0.68968816855E+01 -0.12708307252E+02  0.72461568610E+02  0.69999997805E+02 0.  0.
        -12    1    1    2    0    0  0.11900049682E+02  0.68968816855E+01  0.12708307252E+02  0.18726431390E+02  0.00000000000E+00 0.  1.
         11    1    3    3    0    0  0.19446702254E+02 -0.33269807952E+01 -0.11446726219E+02  0.22809440395E+02  0.51100000000E-03 0. -1.
        -11    1    3    3    0    0 -0.89684121655E+01  0.21710801956E+01 -0.18602390916E+02  0.20765234264E+02  0.51100000000E-03 0.  1.
        -12    1    3    3    0    0 -0.22378339770E+02 -0.57409810858E+01  0.17340809883E+02  0.28886893950E+02  0.00000000000E+00 0.  1.
</event>
<event>
 7    1  0.2656097E-013  0.7246126E+02  0.7816164E-02  0.1226709E+00
        -11   -1    0    0    0    0  0.00000000000E+00  0.00000000000E+00  0.45593999997E+02  0.45594000000E+02  0.51100000000E-03 0.  1.
         11   -1    0    0    0    0 -0.00000000000E+00 -0.00000000000E+00 -0.45593999997E+02  0.45594000000E+02  0.51100000000E-03 0. -1.
    9900012    2    1    2    0    0  0.99568803397E+01  0.64950886091E+01 -0.14469455686E+02  0.72461260028E+02  0.69999595819E+02 0.  0.
        -12    1    1    2    0    0 -0.99568803397E+01 -0.64950886091E+01  0.14469455686E+02  0.18726739972E+02  0.00000000000E+00 0.  1.
         11    1    3    3    0    0 -0.93117968609E+01  0.27932674096E+02  0.53824978914E+01  0.29931841352E+02  0.51100000000E-03 0. -1.
        -11    1    3    3    0    0  0.12028202267E+01  0.42680296818E+01  0.13390173671E+01  0.46320429222E+01  0.51100000000E-03 0.  1.
        -12    1    3    3    0    0  0.18065856974E+02 -0.25705615169E+02 -0.21190970945E+02  0.37897375753E+02  0.00000000000E+00 0.  1.
</event>
<event>
 7    1  0.2656097E-013  0.7246156E+02  0.7816164E-02  0.1226708E+00
        -11   -1    0    0    0    0  0.00000000000E+00  0.00000000000E+00  0.45593999997E+02  0.45594000000E+02  0.51100000000E-03 0. -1.
         11   -1    0    0    0    0 -0.00000000000E+00 -0.00000000000E+00 -0.45593999997E+02  0.45594000000E+02  0.51100000000E-03 0.  1.
    9900012    2    1    2    0    0 -0.16228688165E+02  0.67643646252E+01 -0.64461368622E+01  0.72461558032E+02  0.69999984026E+02 0.  0.
        -12    1    1    2    0    0  0.16228688165E+02 -0.67643646252E+01  0.64461368622E+01  0.18726441968E+02  0.00000000000E+00 0.  1.
         11    1    3    3    0    0  0.25259427821E+01 -0.54942190301E+01  0.28283884269E+02  0.28923086615E+02  0.51100000000E-03 0. -1.
        -11    1    3    3    0    0 -0.23095039601E+01 -0.29369277064E+01 -0.35667936862E+01  0.51654012773E+01  0.51100000000E-03 0.  1.
        -12    1    3    3    0    0 -0.16445126987E+02  0.15195511362E+02 -0.31163227445E+02  0.38373070140E+02  0.00000000000E+00 0.  1.
</event>
<event>
 7    1  0.2656097E-013  0.7246157E+02  0.7816164E-02  0.1226708E+00
        -11   -1    0    0    0    0  0.00000000000E+00  0.00000000000E+00  0.45593999997E+02  0.45594000000E+02  0.51100000000E-03 0.  1.
         11   -1    0    0    0    0 -0.00000000000E+00 -0.00000000000E+00 -0.45593999997E+02  0.45594000000E+02  0.51100000000E-03 0. -1.
    9900012    2    1    2    0    0 -0.43658907881E+01 -0.11750121904E+02 -0.13912329695E+02  0.72461567220E+02  0.69999995995E+02 0.  0.
        -12    1    1    2    0    0  0.43658907881E+01  0.11750121904E+02  0.13912329695E+02  0.18726432780E+02  0.00000000000E+00 0.  1.
         11    1    3    3    0    0  0.10170284574E+02 -0.12816592812E+02 -0.38539413495E+02  0.41868677223E+02  0.51100000000E-03 0. -1.
        -11    1    3    3    0    0 -0.75278429951E+01 -0.47950222939E+01  0.13680209548E+02  0.16334282736E+02  0.51100000000E-03 0.  1.
        -12    1    3    3    0    0 -0.70083323672E+01  0.58614932020E+01  0.10946874253E+02  0.14258607261E+02  0.00000000000E+00 0.  1.
</event>
<event>
 7    1  0.2656097E-013  0.7246160E+02  0.7816164E-02  0.1226708E+00
        -11   -1    0    0    0    0  0.00000000000E+00  0.00000000000E+00  0.45593999997E+02  0.45594000000E+02  0.51100000000E-03 0.  1.
         11   -1    0    0    0    0 -0.00000000000E+00 -0.00000000000E+00 -0.45593999997E+02  0.45594000000E+02  0.51100000000E-03 0. -1.
    9900012    2    1    2    0    0 -0.54121108055E+01  0.17704617626E+02  0.28166381914E+01  0.72461604742E+02  0.70000044874E+02 0.  0.
        -12    1    1    2    0    0  0.54121108055E+01 -0.17704617626E+02 -0.28166381914E+01  0.18726395258E+02  0.00000000000E+00 0.  1.
         11    1    3    3    0    0 -0.24020194015E+01  0.81133252043E+01 -0.17945102218E+02  0.19839920286E+02  0.51100000000E-03 0. -1.
        -11    1    3    3    0    0 -0.70893902463E+01 -0.11856537263E+02 -0.84190172675E+01  0.16177663056E+02  0.51100000000E-03 0.  1.
        -12    1    3    3    0    0  0.40792988423E+01  0.21447829685E+02  0.29180757677E+02  0.36444021400E+02  0.00000000000E+00 0.  1.
</event>
<event>
 7    1  0.2656097E-013  0.7246158E+02  0.7816164E-02  0.1226708E+00
        -11   -1    0    0    0    0  0.00000000000E+00  0.00000000000E+00  0.45593999997E+02  0.45594000000E+02  0.51100000000E-03 0. -1.
         11   -1    0    0    0    0 -0.00000000000E+00 -0.00000000000E+00 -0.45593999997E+02  0.45594000000E+02  0.51100000000E-03 0.  1.
    9900012    2    1    2    0    0  0.52528845331E+00 -0.18661174364E+02  0.14709286765E+01  0.72461575147E+02  0.70000006321E+02 0.  0.
        -12    1    1    2    0    0 -0.52528845331E+00  0.18661174364E+02 -0.14709286765E+01  0.18726424853E+02  0.00000000000E+00 0.  1.
         11    1    3    3    0    0  0.23372021873E+02  0.12519261665E+02  0.15119492848E+01  0.26556907010E+02  0.51100000000E-03 0. -1.
        -11    1    3    3    0    0  0.46783758507E+01 -0.77189814309E+00 -0.11292889392E+01  0.48742508259E+01  0.51100000000E-03 0.  1.
        -12    1    3    3    0    0 -0.27525109270E+02 -0.30408537886E+02  0.10882683308E+01  0.41030417310E+02  0.00000000000E+00 0.  1.
</event>
<event>
 7    1  0.2656097E-013  0.7246159E+02  0.7816164E-02  0.1226708E+00
        -11   -1    0    0    0    0  0.00000000000E+00  0.00000000000E+00  0.45593999997E+02  0.45594000000E+02  0.51100000000E-03 0.  1.
         11   -1    0    0    0    0 -0.00000000000E+00 -0.00000000000E+00 -0.45593999997E+02  0.45594000000E+02  0.51100000000E-03 0. -1.
    9900012    2    1    2    0    0 -0.14692200518E+02 -0.21673462376E+01  0.11407027418E+02  0.72461590299E+02  0.70000026060E+02 0.  0.
        -12    1    1    2    0    0  0.14692200518E+02  0.21673462376E+01 -0.11407027418E+02  0.18726409701E+02  0.00000000000E+00 0.  1.
         11    1    3    3    0    0  0.11902095997E+02 -0.30291920277E+01 -0.21486524630E+01  0.12468063247E+02  0.51100000000E-03 0. -1.
        -11    1    3    3    0    0  0.20070988898E+01  0.21969761604E+02  0.10148911417E+02  0.24283724469E+02  0.51100000000E-03 0.  1.
         12    1    3    3    0    0 -0.28601395405E+02 -0.21107915814E+02  0.34067684640E+01  0.35709802582E+02  0.00000000000E+00 0. -1.
</event>
<event>
 7    1  0.2656097E-013  0.7246157E+02  0.7816164E-02  0.1226708E+00
        -11   -1    0    0    0    0  0.00000000000E+00  0.00000000000E+00  0.45593999997E+02  0.45594000000E+02  0.51100000000E-03 0. -1.
         11   -1    0    0    0    0 -0.00000000000E+00 -0.00000000000E+00 -0.45593999997E+02  0.45594000000E+02  0.51100000000E-03 0.  1.
    9900012    2    1    2    0    0 -0.14062984992E+02  0.11582126849E+02  0.43319882843E+01  0.72461565963E+02  0.69999994358E+02 0.  0.
        -12    1    1    2    0    0  0.14062984992E+02 -0.11582126849E+02 -0.43319882843E+01  0.18726434037E+02  0.00000000000E+00 0.  1.
         11    1    3    3    0    0  0.42330210339E+01  0.13158669861E+02  0.24089780407E+02  0.27773847049E+02  0.51100000000E-03 0. -1.
        -11    1    3    3    0    0 -0.97700044563E+01 -0.15990229929E+00  0.98318829283E+01  0.13861618881E+02  0.51100000000E-03 0.  1.
        -12    1    3    3    0    0 -0.85260015694E+01 -0.14166407124E+01 -0.29589675051E+02  0.30826100034E+02  0.00000000000E+00 0.  1.
</event>
<event>
 7    1  0.2656097E-013  0.7246155E+02  0.7816164E-02  0.1226708E+00
        -11   -1    0    0    0    0  0.00000000000E+00  0.00000000000E+00  0.45593999997E+02  0.45594000000E+02  0.51100000000E-03 0. -1.
         11   -1    0    0    0    0 -0.00000000000E+00 -0.00000000000E+00 -0.45593999997E+02  0.45594000000E+02  0.51100000000E-03 0.  1.
    9900012    2    1    2    0    0  0.46495863368E+01  0.57503365326E+01  0.17204505781E+02  0.72461546986E+02  0.69999969636E+02 0.  0.
        -12    1    1    2    0    0 -0.46495863368E+01 -0.57503365326E+01 -0.17204505781E+02  0.18726453014E+02  0.00000000000E+00 0.  1.
         11    1    3    3    0    0  0.13491333710E+02  0.49377948460E+01  0.23961137234E+02  0.27938038604E+02  0.51100000000E-03 0. -1.
        -11    1    3    3    0    0  0.15893114240E+00 -0.87724321898E+01  0.15996360098E+02  0.18244570761E+02  0.51100000000E-03 0.  1.
         12    1    3    3    0    0 -0.90006785160E+01  0.95849738764E+01 -0.22752991551E+02  0.26278937621E+02  0.00000000000E+00 0. -1.
</event>
<event>
 7    1  0.2656097E-013  0.7246167E+02  0.7816164E-02  0.1226708E+00
        -11   -1    0    0    0    0  0.00000000000E+00  0.00000000000E+00  0.45593999997E+02  0.45594000000E+02  0.51100000000E-03 0. -1.
         11   -1    0    0    0    0 -0.00000000000E+00 -0.00000000000E+00 -0.45593999997E+02  0.45594000000E+02  0.51100000000E-03 0.  1.
    9900012    2    1    2    0    0 -0.13079064728E+02  0.13020284398E+02  0.31758190200E+01  0.72461666498E+02  0.70000125323E+02 0.  0.
        -12    1    1    2    0    0  0.13079064728E+02 -0.13020284398E+02 -0.31758190200E+01  0.18726333502E+02  0.00000000000E+00 0.  1.
         11    1    3    3    0    0 -0.24344084778E+02  0.94343708145E+01 -0.12659408344E+01  0.26138944562E+02  0.51100000000E-03 0. -1.
        -11    1    3    3    0    0  0.30317820017E+01 -0.20261999317E+02 -0.10054989407E+01  0.20512224326E+02  0.51100000000E-03 0.  1.
         12    1    3    3    0    0  0.82332380485E+01  0.23847912901E+02  0.54472587951E+01  0.25810497610E+02  0.00000000000E+00 0. -1.
</event>
<event>
 7    1  0.2656097E-013  0.7246186E+02  0.7816164E-02  0.1226707E+00
        -11   -1    0    0    0    0  0.00000000000E+00  0.00000000000E+00  0.45593999997E+02  0.45594000000E+02  0.51100000000E-03 0.  1.
         11   -1    0    0    0    0 -0.00000000000E+00 -0.00000000000E+00 -0.45593999997E+02  0.45594000000E+02  0.51100000000E-03 0. -1.
    9900012    2    1    2    0    0 -0.64105484772E+01 -0.17557118216E+02 -0.11492022135E+01  0.72461863251E+02  0.70000381629E+02 0.  0.
        -12    1    1    2    0    0  0.64105484772E+01  0.17557118216E+02  0.11492022135E+01  0.18726136749E+02  0.00000000000E+00 0.  1.
         11    1    3    3    0    0 -0.13957835769E+02 -0.15745044285E+02  0.46329860128E+01  0.21545119135E+02  0.51100000000E-03 0. -1.
        -11    1    3    3    0    0 -0.90840485373E+01  0.48489421310E+01  0.18242163337E+02  0.20947761243E+02  0.51100000000E-03 0.  1.
         12    1    3    3    0    0  0.16631335829E+02 -0.66610160621E+01 -0.24024351563E+02  0.29968982873E+02  0.00000000000E+00 0. -1.
</event>
<event>
 7    1  0.2656097E-013  0.7246158E+02  0.7816164E-02  0.1226708E+00
        -11   -1    0    0    0    0  0.00000000000E+00  0.00000000000E+00  0.45593999997E+02  0.45594000000E+02  0.51100000000E-03 0.  1.
         11   -1    0    0    0    0 -0.00000000000E+00 -0.00000000000E+00 -0.45593999997E+02  0.45594000000E+02  0.51100000000E-03 0. -1.
    9900012    2    1    2    0    0 -0.18222582168E+02  0.42848126637E+01  0.50676527024E+00  0.72461576650E+02  0.70000008279E+02 0.  0.
        -12    1    1    2    0    0  0.18222582168E+02 -0.42848126637E+01 -0.50676527024E+00  0.18726423350E+02  0.00000000000E+00 0.  1.
         11    1    3    3    0    0  0.13164816090E+02  0.14217135727E+02 -0.12513270884E+02  0.23065586475E+02  0.51100000000E-03 0. -1.
        -11    1    3    3    0    0  0.36699208108E+01  0.64454510962E+01  0.70702014656E+01  0.10246946258E+02  0.51100000000E-03 0.  1.
        -12    1    3    3    0    0 -0.35057319070E+02 -0.16377774159E+02  0.59498346885E+01  0.39149043917E+02  0.00000000000E+00 0.  1.
</event>
<event>
 7    1  0.2656097E-013  0.7246161E+02  0.7816164E-02  0.1226708E+00
        -11   -1    0    0    0    0  0.00000000000E+00  0.00000000000E+00  0.45593999997E+02  0.45594000000E+02  0.51100000000E-03 0.  1.
         11   -1    0    0    0    0 -0.00000000000E+00 -0.00000000000E+00 -0.45593999997E+02  0.45594000000E+02  0.51100000000E-03 0. -1.
    9900012    2    1    2    0    0  0.14108389215E+02 -0.10131243475E+01 -0.12272104772E+02  0.72461611595E+02  0.70000053801E+02 0.  0.
        -12    1    1    2    0    0 -0.14108389215E+02  0.10131243475E+01  0.12272104772E+02  0.18726388405E+02  0.00000000000E+00 0.  1.
         11    1    3    3    0    0  0.14818938780E+02 -0.21842016020E+02 -0.22734142160E+00  0.26395573393E+02  0.51100000000E-03 0. -1.
        -11    1    3    3    0    0  0.17515855765E+02  0.13967802152E+02  0.13267050270E+01  0.22442478621E+02  0.51100000000E-03 0.  1.
        -12    1    3    3    0    0 -0.18226405331E+02  0.68610895204E+01 -0.13371468377E+02  0.23623559581E+02  0.00000000000E+00 0.  1.
</event>
<event>
 7    1  0.2656097E-013  0.7246161E+02  0.7816164E-02  0.1226708E+00
        -11   -1    0    0    0    0  0.00000000000E+00  0.00000000000E+00  0.45593999997E+02  0.45594000000E+02  0.51100000000E-03 0.  1.
         11   -1    0    0    0    0 -0.00000000000E+00 -0.00000000000E+00 -0.45593999997E+02  0.45594000000E+02  0.51100000000E-03 0. -1.
    9900012    2    1    2    0    0 -0.20485889169E+01 -0.18558267001E+02  0.14393636512E+01  0.72461607973E+02  0.70000049083E+02 0.  0.
        -12    1    1    2    0    0  0.20485889169E+01  0.18558267001E+02 -0.14393636512E+01  0.18726392027E+02  0.00000000000E+00 0.  1.
         11    1    3    3    0    0  0.22231498843E+02  0.53127218202E+01 -0.15118575125E+02  0.27405033626E+02  0.51100000000E-03 0. -1.
        -11    1    3    3    0    0 -0.43710921631E+00 -0.12410555340E+02  0.13633080600E+02  0.18441090944E+02  0.51100000000E-03 0.  1.
        -12    1    3    3    0    0 -0.23842978544E+02 -0.11460433481E+02  0.29248581765E+01  0.26615483403E+02  0.00000000000E+00 0.  1.
</event>
<event>
 7    1  0.2656097E-013  0.7246157E+02  0.7816164E-02  0.1226708E+00
        -11   -1    0    0    0    0  0.00000000000E+00  0.00000000000E+00  0.45593999997E+02  0.45594000000E+02  0.51100000000E-03 0.  1.
         11   -1    0    0    0    0 -0.00000000000E+00 -0.00000000000E+00 -0.45593999997E+02  0.45594000000E+02  0.51100000000E-03 0. -1.
    9900012    2    1    2    0    0 -0.13702302915E+02 -0.12081329204E+02 -0.41191714170E+01  0.72461569650E+02  0.69999999160E+02 0.  0.
        -12    1    1    2    0    0  0.13702302915E+02  0.12081329204E+02  0.41191714170E+01  0.18726430350E+02  0.00000000000E+00 0.  1.
         11    1    3    3    0    0 -0.18437194690E+02 -0.27227149699E+02 -0.19730644453E+02  0.38347700838E+02  0.51100000000E-03 0. -1.
        -11    1    3    3    0    0  0.26355099168E+01 -0.61356443703E+01 -0.13577586981E+01  0.68143637490E+01  0.51100000000E-03 0.  1.
        -12    1    3    3    0    0  0.20993818588E+01  0.21281464866E+02  0.16969231734E+02  0.27299505063E+02  0.00000000000E+00 0.  1.
</event>
<event>
 7    1  0.2656097E-013  0.7246157E+02  0.7816164E-02  0.1226708E+00
        -11   -1    0    0    0    0  0.00000000000E+00  0.00000000000E+00  0.45593999997E+02  0.45594000000E+02  0.51100000000E-03 0.  1.
         11   -1    0    0    0    0 -0.00000000000E+00 -0.00000000000E+00 -0.45593999997E+02  0.45594000000E+02  0.51100000000E-03 0. -1.
    9900012    2    1    2    0    0  0.13563805978E+02  0.11986028430E+02  0.47997509491E+01  0.72461566295E+02  0.69999994790E+02 0.  0.
        -12    1    1    2    0    0 -0.13563805978E+02 -0.11986028430E+02 -0.47997509491E+01  0.18726433705E+02  0.00000000000E+00 0.  1.
         11    1    3    3    0    0 -0.14863831891E+01 -0.69885900783E+01  0.17764217953E+02  0.19147249567E+02  0.51100000000E-03 0. -1.
        -11    1    3    3    0    0  0.17051744597E+02  0.29886180431E+02  0.22532764016E+01  0.34482213232E+02  0.51100000000E-03 0.  1.
         12    1    3    3    0    0 -0.20015554299E+01 -0.10911561923E+02 -0.15217743405E+02  0.18832103496E+02  0.00000000000E+00 0. -1.
</event>
<event>
 7    1  0.2656097E-013  0.7246157E+02  0.7816164E-02  0.1226708E+00
        -11   -1    0    0    0    0  0.00000000000E+00  0.00000000000E+00  0.45593999997E+02  0.45594000000E+02  0.51100000000E-03 0.  1.
         11   -1    0    0    0    0 -0.00000000000E+00 -0.00000000000E+00 -0.45593999997E+02  0.45594000000E+02  0.51100000000E-03 0. -1.
    9900012    2    1    2    0    0  0.80584898118E+01  0.12975010225E+02 -0.10834618876E+02  0.72461571762E+02  0.70000001911E+02 0.  0.
        -12    1    1    2    0    0 -0.80584898118E+01 -0.12975010225E+02  0.10834618876E+02  0.18726428238E+02  0.00000000000E+00 0.  1.
         11    1    3    3    0    0  0.49649563493E+01  0.16749974746E+02 -0.14984104598E+02  0.23015990885E+02  0.51100000000E-03 0. -1.
        -11    1    3    3    0    0  0.22851517364E+02  0.15960410966E+01 -0.95415338673E+01  0.24814916115E+02  0.51100000000E-03 0.  1.
         12    1    3    3    0    0 -0.19757983901E+02 -0.53710056180E+01  0.13691019589E+02  0.24630664761E+02  0.00000000000E+00 0. -1.
</event>
<event>
 7    1  0.2656097E-013  0.7246155E+02  0.7816164E-02  0.1226708E+00
        -11   -1    0    0    0    0  0.00000000000E+00  0.00000000000E+00  0.45593999997E+02  0.45594000000E+02  0.51100000000E-03 0.  1.
         11   -1    0    0    0    0 -0.00000000000E+00 -0.00000000000E+00 -0.45593999997E+02  0.45594000000E+02  0.51100000000E-03 0. -1.
    9900012    2    1    2    0    0  0.73210804028E+01 -0.16972905102E+02  0.30003566645E+01  0.72461551699E+02  0.69999975776E+02 0.  0.
        -12    1    1    2    0    0 -0.73210804028E+01  0.16972905102E+02 -0.30003566645E+01  0.18726448301E+02  0.00000000000E+00 0.  1.
         11    1    3    3    0    0 -0.30870702670E+00 -0.18350944371E+02 -0.86243935862E+01  0.20278871377E+02  0.51100000000E-03 0. -1.
        -11    1    3    3    0    0  0.26383735483E+02 -0.56602290734E+01  0.16417690762E+02  0.31586077019E+02  0.51100000000E-03 0.  1.
        -12    1    3    3    0    0 -0.18753948054E+02  0.70382683424E+01 -0.47929405114E+01  0.20596603303E+02  0.00000000000E+00 0.  1.
</event>
<event>
 7    1  0.2656097E-013  0.7246149E+02  0.7816164E-02  0.1226708E+00
        -11   -1    0    0    0    0  0.00000000000E+00  0.00000000000E+00  0.45593999997E+02  0.45594000000E+02  0.51100000000E-03 0.  1.
         11   -1    0    0    0    0 -0.00000000000E+00 -0.00000000000E+00 -0.45593999997E+02  0.45594000000E+02  0.51100000000E-03 0. -1.
    9900012    2    1    2    0    0  0.51426197265E+01 -0.12296549169E+02 -0.13154100838E+02  0.72461493973E+02  0.69999900577E+02 0.  0.
        -12    1    1    2    0    0 -0.51426197265E+01  0.12296549169E+02  0.13154100838E+02  0.18726506027E+02  0.00000000000E+00 0.  1.
         11    1    3    3    0    0  0.14044846101E+02  0.16640618275E+02 -0.12056435412E+02  0.24890269458E+02  0.51100000000E-03 0. -1.
        -11    1    3    3    0    0  0.83605786182E+01  0.47746403434E+01  0.70503758004E+00  0.96536803081E+01  0.51100000000E-03 0.  1.
        -12    1    3    3    0    0 -0.17262804993E+02 -0.33711807788E+02 -0.18027030058E+01  0.37917544207E+02  0.00000000000E+00 0.  1.
</event>
<event>
 7    1  0.2656097E-013  0.7246158E+02  0.7816164E-02  0.1226708E+00
        -11   -1    0    0    0    0  0.00000000000E+00  0.00000000000E+00  0.45593999997E+02  0.45594000000E+02  0.51100000000E-03 0.  1.
         11   -1    0    0    0    0 -0.00000000000E+00 -0.00000000000E+00 -0.45593999997E+02  0.45594000000E+02  0.51100000000E-03 0. -1.
    9900012    2    1    2    0    0  0.14061589445E+02 -0.82281529315E+01 -0.92329898622E+01  0.72461577486E+02  0.70000009368E+02 0.  0.
        -12    1    1    2    0    0 -0.14061589445E+02  0.82281529315E+01  0.92329898622E+01  0.18726422514E+02  0.00000000000E+00 0.  1.
         11    1    3    3    0    0  0.22816618325E+02  0.57005491692E+01 -0.23823227852E+02  0.33475969264E+02  0.51100000000E-03 0. -1.
        -11    1    3    3    0    0  0.75061675693E+01 -0.17890640067E+02  0.72893553569E+01  0.20725642459E+02  0.51100000000E-03 0.  1.
        -12    1    3    3    0    0 -0.16261196449E+02  0.39619379659E+01  0.73008826331E+01  0.18259965762E+02  0.00000000000E+00 0.  1.
</event>
<event>
 7    1  0.2656097E-013  0.7246154E+02  0.7816164E-02  0.1226708E+00
        -11   -1    0    0    0    0  0.00000000000E+00  0.00000000000E+00  0.45593999997E+02  0.45594000000E+02  0.51100000000E-03 0. -1.
         11   -1    0    0    0    0 -0.00000000000E+00 -0.00000000000E+00 -0.45593999997E+02  0.45594000000E+02  0.51100000000E-03 0.  1.
    9900012    2    1    2    0    0 -0.16952065478E+01 -0.38163005555E+01  0.18254927256E+02  0.72461541597E+02  0.69999962617E+02 0.  0.
        -12    1    1    2    0    0  0.16952065478E+01  0.38163005555E+01 -0.18254927256E+02  0.18726458403E+02  0.00000000000E+00 0.  1.
         11    1    3    3    0    0 -0.77078381331E+01  0.21502202917E+02  0.83587024589E+01  0.24323309932E+02  0.51100000000E-03 0. -1.
        -11    1    3    3    0    0  0.14023949651E+02  0.48146302825E+01  0.81260272292E+01  0.16908108923E+02  0.51100000000E-03 0.  1.
        -12    1    3    3    0    0 -0.80113180652E+01 -0.30133133755E+02  0.17701975684E+01  0.31230122742E+02  0.00000000000E+00 0.  1.
</event>
<event>
 7    1  0.2656097E-013  0.7246153E+02  0.7816164E-02  0.1226708E+00
        -11   -1    0    0    0    0  0.00000000000E+00  0.00000000000E+00  0.45593999997E+02  0.45594000000E+02  0.51100000000E-03 0.  1.
         11   -1    0    0    0    0 -0.00000000000E+00 -0.00000000000E+00 -0.45593999997E+02  0.45594000000E+02  0.51100000000E-03 0. -1.
    9900012    2    1    2    0    0 -0.12854409830E+02 -0.13303829732E+02 -0.29073898040E+01  0.72461530683E+02  0.69999948399E+02 0.  0.
        -12    1    1    2    0    0  0.12854409830E+02  0.13303829732E+02  0.29073898040E+01  0.18726469317E+02  0.00000000000E+00 0.  1.
         11    1    3    3    0    0 -0.86463947434E+01  0.33408261232E+01  0.19249407801E+02  0.21364947044E+02  0.51100000000E-03 0. -1.
        -11    1    3    3    0    0  0.58680010422E+01 -0.12354726119E+01  0.11365887670E+02  0.12850806652E+02  0.51100000000E-03 0.  1.
         12    1    3    3    0    0 -0.10076016129E+02 -0.15409183244E+02 -0.33522685275E+02  0.38245776987E+02  0.00000000000E+00 0. -1.
</event>
<event>
 7    1  0.2656097E-013  0.7246153E+02  0.7816164E-02  0.1226708E+00
        -11   -1    0    0    0    0  0.00000000000E+00  0.00000000000E+00  0.45593999997E+02  0.45594000000E+02  0.51100000000E-03 0. -1.
         11   -1    0    0    0    0 -0.00000000000E+00 -0.00000000000E+00 -0.45593999997E+02  0.45594000000E+02  0.51100000000E-03 0.  1.
    9900012    2    1    2    0    0  0.17879638371E+02  0.55317559628E+01  0.63152168111E+00  0.72461531782E+02  0.69999949830E+02 0.  0.
        -12    1    1    2    0    0 -0.17879638371E+02 -0.55317559628E+01 -0.63152168111E+00  0.18726468218E+02  0.00000000000E+00 0.  1.
         11    1    3    3    0    0  0.17467511378E+02 -0.15842508866E+02 -0.28799249805E+01  0.23756957066E+02  0.51100000000E-03 0. -1.
        -11    1    3    3    0    0  0.19365219845E+01 -0.16809685837E+01  0.20098663765E+02  0.20261590712E+02  0.51100000000E-03 0.  1.
        -12    1    3    3    0    0 -0.15243949914E+01  0.23055233412E+02 -0.16587217104E+02  0.28442984004E+02  0.00000000000E+00 0.  1.
</event>
<event>
 7    1  0.2656097E-013  0.7246165E+02  0.7816164E-02  0.1226708E+00
        -11   -1    0    0    0    0  0.00000000000E+00  0.00000000000E+00  0.45593999997E+02  0.45594000000E+02  0.51100000000E-03 0.  1.
         11   -1    0    0    0    0 -0.00000000000E+00 -0.00000000000E+00 -0.45593999997E+02  0.45594000000E+02  0.51100000000E-03 0. -1.
    9900012    2    1    2    0    0  0.44138011165E+01  0.57650599514E+01 -0.17261478755E+02  0.72461649439E+02  0.70000103100E+02 0.  0.
        -12    1    1    2    0    0 -0.44138011165E+01 -0.57650599514E+01  0.17261478755E+02  0.18726350561E+02  0.00000000000E+00 0.  1.
         11    1    3    3    0    0 -0.69115211708E+01  0.18880975210E+01 -0.21587164845E+02  0.22745103285E+02  0.51100000000E-03 0. -1.
        -11    1    3    3    0    0 -0.13260453570E+02 -0.69206984101E+01 -0.11211468007E+02  0.18693119336E+02  0.51100000000E-03 0.  1.
        -12    1    3    3    0    0  0.24585775857E+02  0.10797660840E+02  0.15537154097E+02  0.31023426818E+02  0.00000000000E+00 0.  1.
</event>
<event>
 7    1  0.2656097E-013  0.7246157E+02  0.7816164E-02  0.1226708E+00
        -11   -1    0    0    0    0  0.00000000000E+00  0.00000000000E+00  0.45593999997E+02  0.45594000000E+02  0.51100000000E-03 0. -1.
         11   -1    0    0    0    0 -0.00000000000E+00 -0.00000000000E+00 -0.45593999997E+02  0.45594000000E+02  0.51100000000E-03 0.  1.
    9900012    2    1    2    0    0  0.86718361117E+01  0.14498997794E+02 -0.80782056414E+01  0.72461572552E+02  0.70000002941E+02 0.  0.
        -12    1    1    2    0    0 -0.86718361117E+01 -0.14498997794E+02  0.80782056414E+01  0.18726427448E+02  0.00000000000E+00 0.  1.
         11    1    3    3    0    0 -0.16531574644E+02  0.23306675765E+02  0.16804988254E+01  0.28623734417E+02  0.51100000000E-03 0. -1.
        -11    1    3    3    0    0  0.23738382401E+02  0.79482057622E+01 -0.14444736235E+01  0.25075312125E+02  0.51100000000E-03 0.  1.
        -12    1    3    3    0    0  0.14650283549E+01 -0.16755883733E+02 -0.83142308433E+01  0.18762526010E+02  0.00000000000E+00 0.  1.
</event>
<event>
 7    1  0.2656097E-013  0.7246159E+02  0.7816164E-02  0.1226708E+00
        -11   -1    0    0    0    0  0.00000000000E+00  0.00000000000E+00  0.45593999997E+02  0.45594000000E+02  0.51100000000E-03 0. -1.
         11   -1    0    0    0    0 -0.00000000000E+00 -0.00000000000E+00 -0.45593999997E+02  0.45594000000E+02  0.51100000000E-03 0.  1.
    9900012    2    1    2    0    0 -0.59012928770E+01  0.11670186792E+02  0.13403730789E+02  0.72461587732E+02  0.70000022716E+02 0.  0.
        -12    1    1    2    0    0  0.59012928770E+01 -0.11670186792E+02 -0.13403730789E+02  0.18726412268E+02  0.00000000000E+00 0.  1.
         11    1    3    3    0    0 -0.16160032878E+02 -0.16228986576E+02  0.25001985059E+01  0.23038612387E+02  0.51100000000E-03 0. -1.
        -11    1    3    3    0    0 -0.84092798074E+01 -0.48254859949E+01  0.60711765305E+01  0.11439426852E+02  0.51100000000E-03 0.  1.
        -12    1    3    3    0    0  0.18668019808E+02  0.32724659363E+02  0.48323557526E+01  0.37983548493E+02  0.00000000000E+00 0.  1.
</event>
<event>
 7    1  0.2656097E-013  0.7246163E+02  0.7816164E-02  0.1226708E+00
        -11   -1    0    0    0    0  0.00000000000E+00  0.00000000000E+00  0.45593999997E+02  0.45594000000E+02  0.51100000000E-03 0. -1.
         11   -1    0    0    0    0 -0.00000000000E+00 -0.00000000000E+00 -0.45593999997E+02  0.45594000000E+02  0.51100000000E-03 0.  1.
    9900012    2    1    2    0    0 -0.13683380078E+02 -0.94508054102E+01 -0.86095577410E+01  0.72461625611E+02  0.70000072061E+02 0.  0.
        -12    1    1    2    0    0  0.13683380078E+02  0.94508054102E+01  0.86095577410E+01  0.18726374389E+02  0.00000000000E+00 0.  1.
         11    1    3    3    0    0  0.10199968484E+02  0.91237494243E+01 -0.52848850855E+01  0.14670111495E+02  0.51100000000E-03 0.  1.
        -11    1    3    3    0    0 -0.35353076558E+02 -0.13750103914E+02 -0.14940592727E+02  0.40769188010E+02  0.51100000000E-03 0. -1.
         12    1    3    3    0    0  0.11469727996E+02 -0.48244509207E+01  0.11615920071E+02  0.17022326107E+02  0.00000000000E+00 0. -1.
</event>
<event>
 7    1  0.2656097E-013  0.7246157E+02  0.7816164E-02  0.1226708E+00
        -11   -1    0    0    0    0  0.00000000000E+00  0.00000000000E+00  0.45593999997E+02  0.45594000000E+02  0.51100000000E-03 0.  1.
         11   -1    0    0    0    0 -0.00000000000E+00 -0.00000000000E+00 -0.45593999997E+02  0.45594000000E+02  0.51100000000E-03 0. -1.
    9900012    2    1    2    0    0 -0.92349603868E+01 -0.51247067593E+01 -0.15463894035E+02  0.72461571311E+02  0.70000001325E+02 0.  0.
        -12    1    1    2    0    0  0.92349603868E+01  0.51247067593E+01  0.15463894035E+02  0.18726428689E+02  0.00000000000E+00 0.  1.
         11    1    3    3    0    0 -0.21227352451E+02 -0.70145092927E+01  0.11659636193E+01  0.22386676933E+02  0.51100000000E-03 0. -1.
        -11    1    3    3    0    0  0.72287852440E+00  0.21868637820E+02 -0.16038481014E+02  0.27129186257E+02  0.51100000000E-03 0.  1.
         12    1    3    3    0    0  0.11269513540E+02 -0.19978835287E+02 -0.59137664048E+00  0.22945708121E+02  0.00000000000E+00 0. -1.
</event>
<event>
 7    1  0.2656097E-013  0.7246158E+02  0.7816164E-02  0.1226708E+00
        -11   -1    0    0    0    0  0.00000000000E+00  0.00000000000E+00  0.45593999997E+02  0.45594000000E+02  0.51100000000E-03 0.  1.
         11   -1    0    0    0    0 -0.00000000000E+00 -0.00000000000E+00 -0.45593999997E+02  0.45594000000E+02  0.51100000000E-03 0. -1.
    9900012    2    1    2    0    0 -0.10888258546E+02  0.13022890726E+02 -0.79075365136E+01  0.72461575068E+02  0.70000006219E+02 0.  0.
        -12    1    1    2    0    0  0.10888258546E+02 -0.13022890726E+02  0.79075365136E+01  0.18726424932E+02  0.00000000000E+00 0.  1.
         11    1    3    3    0    0 -0.38005302585E+01 -0.19008839185E+01  0.14003853479E+02  0.14634387669E+02  0.51100000000E-03 0. -1.
        -11    1    3    3    0    0  0.91127836681E+01 -0.85934365374E+01  0.92415295363E+01  0.15565855137E+02  0.51100000000E-03 0.  1.
         12    1    3    3    0    0 -0.16200511955E+02  0.23517211182E+02 -0.31152919529E+02  0.42261332262E+02  0.00000000000E+00 0. -1.
</event>
<event>
 7    1  0.2656097E-013  0.7246160E+02  0.7816164E-02  0.1226708E+00
        -11   -1    0    0    0    0  0.00000000000E+00  0.00000000000E+00  0.45593999997E+02  0.45594000000E+02  0.51100000000E-03 0. -1.
         11   -1    0    0    0    0 -0.00000000000E+00 -0.00000000000E+00 -0.45593999997E+02  0.45594000000E+02  0.51100000000E-03 0.  1.
    9900012    2    1    2    0    0  0.65397382657E+00  0.11913121718E+02  0.14433571540E+02  0.72461597830E+02  0.70000035871E+02 0.  0.
        -12    1    1    2    0    0 -0.65397382657E+00 -0.11913121718E+02 -0.14433571540E+02  0.18726402170E+02  0.00000000000E+00 0.  1.
         11    1    3    3    0    0 -0.22268190610E-01 -0.14483101188E+02 -0.70137530177E+01  0.16092030560E+02  0.51100000000E-03 0.  1.
        -11    1    3    3    0    0  0.16706271061E+02 -0.41413478717E+01  0.10602930269E+02  0.20215647046E+02  0.51100000000E-03 0. -1.
        -12    1    3    3    0    0 -0.16030029043E+02  0.30537570777E+02  0.10844394289E+02  0.36153920224E+02  0.00000000000E+00 0.  1.
</event>
<event>
 7    1  0.2656097E-013  0.7246153E+02  0.7816164E-02  0.1226708E+00
        -11   -1    0    0    0    0  0.00000000000E+00  0.00000000000E+00  0.45593999997E+02  0.45594000000E+02  0.51100000000E-03 0.  1.
         11   -1    0    0    0    0 -0.00000000000E+00 -0.00000000000E+00 -0.45593999997E+02  0.45594000000E+02  0.51100000000E-03 0. -1.
    9900012    2    1    2    0    0  0.64368761446E+00 -0.16256838858E+02 -0.92726132737E+01  0.72461534762E+02  0.69999953712E+02 0.  0.
        -12    1    1    2    0    0 -0.64368761446E+00  0.16256838858E+02  0.92726132737E+01  0.18726465238E+02  0.00000000000E+00 0.  1.
         11    1    3    3    0    0  0.23946004359E+02 -0.35504962391E+01 -0.21275216800E+01  0.24301100737E+02  0.51100000000E-03 0. -1.
        -11    1    3    3    0    0  0.26778007668E+01 -0.54086181072E+01  0.13101003014E+02  0.14424286707E+02  0.51100000000E-03 0.  1.
         12    1    3    3    0    0 -0.25980117511E+02 -0.72977245116E+01 -0.20246094608E+02  0.33736147317E+02  0.00000000000E+00 0. -1.
</event>
<event>
 7    1  0.2656097E-013  0.7246156E+02  0.7816164E-02  0.1226708E+00
        -11   -1    0    0    0    0  0.00000000000E+00  0.00000000000E+00  0.45593999997E+02  0.45594000000E+02  0.51100000000E-03 0.  1.
         11   -1    0    0    0    0 -0.00000000000E+00 -0.00000000000E+00 -0.45593999997E+02  0.45594000000E+02  0.51100000000E-03 0. -1.
    9900012    2    1    2    0    0  0.12393027656E+02  0.30229865959E+01 -0.13709626329E+02  0.72461563165E+02  0.69999990713E+02 0.  0.
        -12    1    1    2    0    0 -0.12393027656E+02 -0.30229865959E+01  0.13709626329E+02  0.18726436835E+02  0.00000000000E+00 0.  1.
         11    1    3    3    0    0  0.85877329208E+01 -0.23436614611E+02 -0.14579813350E+02  0.28906660456E+02  0.51100000000E-03 0. -1.
        -11    1    3    3    0    0  0.15343949704E+02  0.99511811579E+01 -0.98141659415E+01  0.20755256018E+02  0.51100000000E-03 0.  1.
        -12    1    3    3    0    0 -0.11538654970E+02  0.16508420049E+02  0.10684352962E+02  0.22799646691E+02  0.00000000000E+00 0.  1.
</event>
<event>
 7    1  0.2656097E-013  0.7246159E+02  0.7816164E-02  0.1226708E+00
        -11   -1    0    0    0    0  0.00000000000E+00  0.00000000000E+00  0.45593999997E+02  0.45594000000E+02  0.51100000000E-03 0. -1.
         11   -1    0    0    0    0 -0.00000000000E+00 -0.00000000000E+00 -0.45593999997E+02  0.45594000000E+02  0.51100000000E-03 0.  1.
    9900012    2    1    2    0    0  0.14364845053E+02  0.60867743959E+01  0.10357644089E+02  0.72461591187E+02  0.70000027217E+02 0.  0.
        -12    1    1    2    0    0 -0.14364845053E+02 -0.60867743959E+01 -0.10357644089E+02  0.18726408813E+02  0.00000000000E+00 0.  1.
         11    1    3    3    0    0 -0.67648170116E+01  0.41601330615E+01  0.10741002584E+01  0.80139346089E+01  0.51100000000E-03 0. -1.
        -11    1    3    3    0    0 -0.21000885596E+02  0.44391215440E+01  0.48841675048E+01  0.22013588720E+02  0.51100000000E-03 0.  1.
         12    1    3    3    0    0  0.42130547660E+02 -0.25124802096E+01  0.43993763262E+01  0.42434067858E+02  0.00000000000E+00 0. -1.
</event>
<event>
 7    1  0.2656097E-013  0.7246159E+02  0.7816164E-02  0.1226708E+00
        -11   -1    0    0    0    0  0.00000000000E+00  0.00000000000E+00  0.45593999997E+02  0.45594000000E+02  0.51100000000E-03 0.  1.
         11   -1    0    0    0    0 -0.00000000000E+00 -0.00000000000E+00 -0.45593999997E+02  0.45594000000E+02  0.51100000000E-03 0. -1.
    9900012    2    1    2    0    0 -0.11886336328E+02 -0.81385418178E-01 -0.14470202705E+02  0.72461591342E+02  0.70000027419E+02 0.  0.
        -12    1    1    2    0    0  0.11886336328E+02  0.81385418178E-01  0.14470202705E+02  0.18726408658E+02  0.00000000000E+00 0.  1.
         11    1    3    3    0    0 -0.19215954272E+02  0.77315459713E+00 -0.12704228120E+02  0.23048819471E+02  0.51100000000E-03 0. -1.
        -11    1    3    3    0    0 -0.80589556275E+01  0.10481263410E+02  0.17725937813E+02  0.22113627475E+02  0.51100000000E-03 0.  1.
        -12    1    3    3    0    0  0.15388573572E+02 -0.11335803425E+02 -0.19491912398E+02  0.27299144397E+02  0.00000000000E+00 0.  1.
</event>
<event>
 7    1  0.2656097E-013  0.7246158E+02  0.7816164E-02  0.1226708E+00
        -11   -1    0    0    0    0  0.00000000000E+00  0.00000000000E+00  0.45593999997E+02  0.45594000000E+02  0.51100000000E-03 0. -1.
         11   -1    0    0    0    0 -0.00000000000E+00 -0.00000000000E+00 -0.45593999997E+02  0.45594000000E+02  0.51100000000E-03 0.  1.
    9900012    2    1    2    0    0 -0.14152547095E+02 -0.10910024449E+02  0.55995968649E+01  0.72461582623E+02  0.70000016060E+02 0.  0.
        -12    1    1    2    0    0  0.14152547095E+02  0.10910024449E+02 -0.55995968649E+01  0.18726417377E+02  0.00000000000E+00 0.  1.
         11    1    3    3    0    0 -0.18572898039E+02 -0.95298979788E+01  0.81359302408E+01  0.22404572261E+02  0.51100000000E-03 0. -1.
        -11    1    3    3    0    0  0.97815431974E+01 -0.22517568911E+02 -0.10688661500E+02  0.26776239129E+02  0.51100000000E-03 0.  1.
         12    1    3    3    0    0 -0.53611922535E+01  0.21137442441E+02  0.81523281241E+01  0.23280771232E+02  0.00000000000E+00 0. -1.
</event>
<event>
 7    1  0.2656097E-013  0.7246151E+02  0.7816164E-02  0.1226708E+00
        -11   -1    0    0    0    0  0.00000000000E+00  0.00000000000E+00  0.45593999997E+02  0.45594000000E+02  0.51100000000E-03 0.  1.
         11   -1    0    0    0    0 -0.00000000000E+00 -0.00000000000E+00 -0.45593999997E+02  0.45594000000E+02  0.51100000000E-03 0. -1.
    9900012    2    1    2    0    0  0.15361235760E+02  0.78145888203E+01  0.73243427024E+01  0.72461511847E+02  0.69999923862E+02 0.  0.
        -12    1    1    2    0    0 -0.15361235760E+02 -0.78145888203E+01 -0.73243427024E+01  0.18726488153E+02  0.00000000000E+00 0.  1.
         11    1    3    3    0    0 -0.41886733140E+00  0.62566050281E+01 -0.21667806486E+02  0.22556914560E+02  0.51100000000E-03 0. -1.
        -11    1    3    3    0    0 -0.51487779149E+01 -0.51719580801E+01 -0.54054575039E+01  0.90817418752E+01  0.51100000000E-03 0.  1.
        -12    1    3    3    0    0  0.20928881007E+02  0.67299418723E+01  0.34397606692E+02  0.40822855411E+02  0.00000000000E+00 0.  1.
</event>
<event>
 7    1  0.2656097E-013  0.7246161E+02  0.7816164E-02  0.1226708E+00
        -11   -1    0    0    0    0  0.00000000000E+00  0.00000000000E+00  0.45593999997E+02  0.45594000000E+02  0.51100000000E-03 0. -1.
         11   -1    0    0    0    0 -0.00000000000E+00 -0.00000000000E+00 -0.45593999997E+02  0.45594000000E+02  0.51100000000E-03 0.  1.
    9900012    2    1    2    0    0  0.51526630555E+01  0.17975806617E+02 -0.99910356588E+00  0.72461607715E+02  0.70000048747E+02 0.  0.
        -12    1    1    2    0    0 -0.51526630555E+01 -0.17975806617E+02  0.99910356588E+00  0.18726392285E+02  0.00000000000E+00 0.  1.
         11    1    3    3    0    0 -0.79537407286E+01  0.14763047389E+02  0.16880477110E+02  0.23794118338E+02  0.51100000000E-03 0. -1.
        -11    1    3    3    0    0 -0.53358343951E+01  0.10984628829E+02  0.89897558482E+01  0.15164066397E+02  0.51100000000E-03 0.  1.
        -12    1    3    3    0    0  0.18442238179E+02 -0.77718696011E+01 -0.26869336524E+02  0.33503422980E+02  0.00000000000E+00 0.  1.
</event>
<event>
 7    1  0.2656097E-013  0.7246117E+02  0.7816164E-02  0.1226709E+00
        -11   -1    0    0    0    0  0.00000000000E+00  0.00000000000E+00  0.45593999997E+02  0.45594000000E+02  0.51100000000E-03 0.  1.
         11   -1    0    0    0    0 -0.00000000000E+00 -0.00000000000E+00 -0.45593999997E+02  0.45594000000E+02  0.51100000000E-03 0. -1.
    9900012    2    1    2    0    0  0.63113017880E+01  0.17592530027E+02  0.11681607470E+01  0.72461167845E+02  0.69999475733E+02 0.  0.
        -12    1    1    2    0    0 -0.63113017880E+01 -0.17592530027E+02 -0.11681607470E+01  0.18726832155E+02  0.00000000000E+00 0.  1.
         11    1    3    3    0    0  0.50058531633E+01  0.15740904602E+01 -0.34507170345E+01  0.62804279299E+01  0.51100000000E-03 0. -1.
        -11    1    3    3    0    0 -0.28865697749E+02  0.16918544379E+02 -0.63675564601E+01  0.34058940471E+02  0.51100000000E-03 0.  1.
         12    1    3    3    0    0  0.30171146374E+02 -0.90010481185E+00  0.10986434242E+02  0.32121799444E+02  0.00000000000E+00 0. -1.
</event>
<event>
 7    1  0.2656097E-013  0.7246158E+02  0.7816164E-02  0.1226708E+00
        -11   -1    0    0    0    0  0.00000000000E+00  0.00000000000E+00  0.45593999997E+02  0.45594000000E+02  0.51100000000E-03 0. -1.
         11   -1    0    0    0    0 -0.00000000000E+00 -0.00000000000E+00 -0.45593999997E+02  0.45594000000E+02  0.51100000000E-03 0.  1.
    9900012    2    1    2    0    0  0.14285695336E+02  0.40151428242E+01  0.11422616438E+02  0.72461584715E+02  0.70000018786E+02 0.  0.
        -12    1    1    2    0    0 -0.14285695336E+02 -0.40151428242E+01 -0.11422616438E+02  0.18726415285E+02  0.00000000000E+00 0.  1.
         11    1    3    3    0    0  0.11805637410E+01  0.28390170998E+01  0.12425210506E+02  0.12799984579E+02  0.51100000000E-03 0. -1.
        -11    1    3    3    0    0  0.14388851393E+02  0.28685459196E+02  0.26698882659E+00  0.32093081762E+02  0.51100000000E-03 0.  1.
         12    1    3    3    0    0 -0.12837197979E+01 -0.27509333472E+02 -0.12695828953E+01  0.27568518373E+02  0.00000000000E+00 0. -1.
</event>
<event>
 7    1  0.2656097E-013  0.7246151E+02  0.7816164E-02  0.1226708E+00
        -11   -1    0    0    0    0  0.00000000000E+00  0.00000000000E+00  0.45593999997E+02  0.45594000000E+02  0.51100000000E-03 0. -1.
         11   -1    0    0    0    0 -0.00000000000E+00 -0.00000000000E+00 -0.45593999997E+02  0.45594000000E+02  0.51100000000E-03 0.  1.
    9900012    2    1    2    0    0  0.11593327183E+02  0.74348530844E+00  0.14687525116E+02  0.72461510750E+02  0.69999922432E+02 0.  0.
        -12    1    1    2    0    0 -0.11593327183E+02 -0.74348530844E+00 -0.14687525116E+02  0.18726489250E+02  0.00000000000E+00 0.  1.
         11    1    3    3    0    0  0.17251518483E+02  0.11661891709E+02  0.43987383321E+01  0.21282939350E+02  0.51100000000E-03 0. -1.
        -11    1    3    3    0    0  0.14351836066E+02  0.12256827831E+02  0.79224569133E+01  0.20468765248E+02  0.51100000000E-03 0.  1.
         12    1    3    3    0    0 -0.20010027365E+02 -0.23175234232E+02  0.23663298709E+01  0.30709806153E+02  0.00000000000E+00 0. -1.
</event>
<event>
 7    1  0.2656097E-013  0.7246158E+02  0.7816164E-02  0.1226708E+00
        -11   -1    0    0    0    0  0.00000000000E+00  0.00000000000E+00  0.45593999997E+02  0.45594000000E+02  0.51100000000E-03 0.  1.
         11   -1    0    0    0    0 -0.00000000000E+00 -0.00000000000E+00 -0.45593999997E+02  0.45594000000E+02  0.51100000000E-03 0. -1.
    9900012    2    1    2    0    0  0.15345913879E+02  0.10600669274E+02 -0.16755470925E+01  0.72461582299E+02  0.70000015638E+02 0.  0.
        -12    1    1    2    0    0 -0.15345913879E+02 -0.10600669274E+02  0.16755470925E+01  0.18726417701E+02  0.00000000000E+00 0.  1.
         11    1    3    3    0    0 -0.88461199643E+01  0.67861389012E+01 -0.10101465075E+02  0.15044770405E+02  0.51100000000E-03 0. -1.
        -11    1    3    3    0    0 -0.62882760740E+01  0.19400492666E+02  0.10843130212E+02  0.23097510790E+02  0.51100000000E-03 0.  1.
        -12    1    3    3    0    0  0.30480309918E+02 -0.15585962293E+02 -0.24172122287E+01  0.34319301104E+02  0.00000000000E+00 0.  1.
</event>
<event>
 7    1  0.2656097E-013  0.7246160E+02  0.7816164E-02  0.1226708E+00
        -11   -1    0    0    0    0  0.00000000000E+00  0.00000000000E+00  0.45593999997E+02  0.45594000000E+02  0.51100000000E-03 0. -1.
         11   -1    0    0    0    0 -0.00000000000E+00 -0.00000000000E+00 -0.45593999997E+02  0.45594000000E+02  0.51100000000E-03 0.  1.
    9900012    2    1    2    0    0  0.11954530042E+02 -0.50619862902E+01  0.13496062622E+02  0.72461596180E+02  0.70000033721E+02 0.  0.
        -12    1    1    2    0    0 -0.11954530042E+02  0.50619862902E+01 -0.13496062622E+02  0.18726403820E+02  0.00000000000E+00 0.  1.
         11    1    3    3    0    0 -0.27521487802E+01  0.80730829046E+01  0.20949895523E+02  0.22619617883E+02  0.51100000000E-03 0. -1.
        -11    1    3    3    0    0  0.18090897280E+02  0.13129039880E+02 -0.67558878830E+01  0.23351536864E+02  0.51100000000E-03 0.  1.
         12    1    3    3    0    0 -0.33842184572E+01 -0.26264109075E+02 -0.69794501875E+00  0.26490441433E+02  0.00000000000E+00 0. -1.
</event>
<event>
 7    1  0.2656097E-013  0.7246154E+02  0.7816164E-02  0.1226708E+00
        -11   -1    0    0    0    0  0.00000000000E+00  0.00000000000E+00  0.45593999997E+02  0.45594000000E+02  0.51100000000E-03 0. -1.
         11   -1    0    0    0    0 -0.00000000000E+00 -0.00000000000E+00 -0.45593999997E+02  0.45594000000E+02  0.51100000000E-03 0.  1.
    9900012    2    1    2    0    0 -0.13904712149E+02  0.38479739210E+01 -0.11938691500E+02  0.72461540699E+02  0.69999961446E+02 0.  0.
        -12    1    1    2    0    0  0.13904712149E+02 -0.38479739210E+01  0.11938691500E+02  0.18726459301E+02  0.00000000000E+00 0.  1.
         11    1    3    3    0    0 -0.19578089800E+01 -0.92185744014E+01 -0.27404267897E+01  0.98145335726E+01  0.51100000000E-03 0. -1.
        -11    1    3    3    0    0 -0.92839920776E+01 -0.20098645589E+02 -0.17655307792E+02  0.28317096548E+02  0.51100000000E-03 0.  1.
        -12    1    3    3    0    0 -0.26629110912E+01  0.33165193911E+02  0.84570430820E+01  0.34329910578E+02  0.00000000000E+00 0.  1.
</event>
<event>
 7    1  0.2656097E-013  0.7246157E+02  0.7816164E-02  0.1226708E+00
        -11   -1    0    0    0    0  0.00000000000E+00  0.00000000000E+00  0.45593999997E+02  0.45594000000E+02  0.51100000000E-03 0. -1.
         11   -1    0    0    0    0 -0.00000000000E+00 -0.00000000000E+00 -0.45593999997E+02  0.45594000000E+02  0.51100000000E-03 0.  1.
    9900012    2    1    2    0    0 -0.14838665512E+02  0.11228420074E+02 -0.21013403882E+01  0.72461573674E+02  0.70000004402E+02 0.  0.
        -12    1    1    2    0    0  0.14838665512E+02 -0.11228420074E+02  0.21013403882E+01  0.18726426326E+02  0.00000000000E+00 0.  1.
         11    1    3    3    0    0  0.26486978157E+00  0.18805952204E+02  0.17347909889E+01  0.18887654548E+02  0.51100000000E-03 0. -1.
        -11    1    3    3    0    0  0.18330527843E+02  0.14487865347E+00 -0.57345158210E+01  0.19207131821E+02  0.51100000000E-03 0.  1.
        -12    1    3    3    0    0 -0.33434063137E+02 -0.77224107836E+01  0.18983844440E+01  0.34366787305E+02  0.00000000000E+00 0.  1.
</event>
<event>
 7    1  0.2656097E-013  0.7246157E+02  0.7816164E-02  0.1226708E+00
        -11   -1    0    0    0    0  0.00000000000E+00  0.00000000000E+00  0.45593999997E+02  0.45594000000E+02  0.51100000000E-03 0.  1.
         11   -1    0    0    0    0 -0.00000000000E+00 -0.00000000000E+00 -0.45593999997E+02  0.45594000000E+02  0.51100000000E-03 0. -1.
    9900012    2    1    2    0    0  0.13841013605E+02  0.12445223633E+02 -0.20547294047E+01  0.72461570500E+02  0.70000000268E+02 0.  0.
        -12    1    1    2    0    0 -0.13841013605E+02 -0.12445223633E+02  0.20547294047E+01  0.18726429500E+02  0.00000000000E+00 0.  1.
         11    1    3    3    0    0 -0.12334253928E+02  0.22672002806E+02 -0.99676343907E+01  0.27667801987E+02  0.51100000000E-03 0. -1.
        -11    1    3    3    0    0 -0.35299508023E+01  0.41553275873E+01  0.10351998934E+02  0.11700050522E+02  0.51100000000E-03 0.  1.
        -12    1    3    3    0    0  0.29705218335E+02 -0.14382106760E+02 -0.24390939480E+01  0.33093717991E+02  0.00000000000E+00 0.  1.
</event>
<event>
 7    1  0.2656097E-013  0.7246160E+02  0.7816164E-02  0.1226708E+00
        -11   -1    0    0    0    0  0.00000000000E+00  0.00000000000E+00  0.45593999997E+02  0.45594000000E+02  0.51100000000E-03 0. -1.
         11   -1    0    0    0    0 -0.00000000000E+00 -0.00000000000E+00 -0.45593999997E+02  0.45594000000E+02  0.51100000000E-03 0.  1.
    9900012    2    1    2    0    0  0.15909825653E+01 -0.18525874418E+02 -0.22223431279E+01  0.72461599987E+02  0.70000038680E+02 0.  0.
        -12    1    1    2    0    0 -0.15909825653E+01  0.18525874418E+02  0.22223431279E+01  0.18726400013E+02  0.00000000000E+00 0.  1.
         11    1    3    3    0    0 -0.10557789016E+02 -0.23278959280E+02  0.19841153508E+02  0.32358124588E+02  0.51100000000E-03 0. -1.
        -11    1    3    3    0    0 -0.30467477422E+01 -0.10303294285E+02 -0.23171720518E+01  0.10991352578E+02  0.51100000000E-03 0.  1.
        -12    1    3    3    0    0  0.15195519323E+02  0.15056379147E+02 -0.19746324584E+02  0.29112122820E+02  0.00000000000E+00 0.  1.
</event>
<event>
 7    1  0.2656097E-013  0.7246145E+02  0.7816164E-02  0.1226708E+00
        -11   -1    0    0    0    0  0.00000000000E+00  0.00000000000E+00  0.45593999997E+02  0.45594000000E+02  0.51100000000E-03 0. -1.
         11   -1    0    0    0    0 -0.00000000000E+00 -0.00000000000E+00 -0.45593999997E+02  0.45594000000E+02  0.51100000000E-03 0.  1.
    9900012    2    1    2    0    0 -0.13421373155E+02 -0.11878141291E+02  0.54277399684E+01  0.72461445083E+02  0.69999836888E+02 0.  0.
        -12    1    1    2    0    0  0.13421373155E+02  0.11878141291E+02 -0.54277399684E+01  0.18726554917E+02  0.00000000000E+00 0.  1.
         11    1    3    3    0    0  0.83105965613E+01  0.84655371102E+01  0.23809594320E+02  0.26601280340E+02  0.51100000000E-03 0. -1.
        -11    1    3    3    0    0 -0.17305540264E+02 -0.10504012626E+02  0.43425454126E+01  0.20704436867E+02  0.51100000000E-03 0.  1.
        -12    1    3    3    0    0 -0.44264294527E+01 -0.98396657753E+01 -0.22724399765E+02  0.25155727875E+02  0.00000000000E+00 0.  1.
</event>
<event>
 7    1  0.2656097E-013  0.7246181E+02  0.7816164E-02  0.1226707E+00
        -11   -1    0    0    0    0  0.00000000000E+00  0.00000000000E+00  0.45593999997E+02  0.45594000000E+02  0.51100000000E-03 0.  1.
         11   -1    0    0    0    0 -0.00000000000E+00 -0.00000000000E+00 -0.45593999997E+02  0.45594000000E+02  0.51100000000E-03 0. -1.
    9900012    2    1    2    0    0 -0.12205734225E+02 -0.37017353849E+00 -0.14196946646E+02  0.72461807902E+02  0.70000309527E+02 0.  0.
        -12    1    1    2    0    0  0.12205734225E+02  0.37017353849E+00  0.14196946646E+02  0.18726192098E+02  0.00000000000E+00 0.  1.
         11    1    3    3    0    0 -0.28051044334E+01  0.17166421463E+02  0.37301529249E+01  0.17789566544E+02  0.51100000000E-03 0. -1.
        -11    1    3    3    0    0 -0.14896876475E+02  0.12440816768E+02 -0.14026650413E+02  0.23946560769E+02  0.51100000000E-03 0.  1.
        -12    1    3    3    0    0  0.54962466836E+01 -0.29977411770E+02 -0.39004491577E+01  0.30725680589E+02  0.00000000000E+00 0.  1.
</event>
<event>
 7    1  0.2656097E-013  0.7246157E+02  0.7816164E-02  0.1226708E+00
        -11   -1    0    0    0    0  0.00000000000E+00  0.00000000000E+00  0.45593999997E+02  0.45594000000E+02  0.51100000000E-03 0. -1.
         11   -1    0    0    0    0 -0.00000000000E+00 -0.00000000000E+00 -0.45593999997E+02  0.45594000000E+02  0.51100000000E-03 0.  1.
    9900012    2    1    2    0    0  0.11895213440E+02 -0.24435177559E+01  0.14255253349E+02  0.72461571353E+02  0.70000001380E+02 0.  0.
        -12    1    1    2    0    0 -0.11895213440E+02  0.24435177559E+01 -0.14255253349E+02  0.18726428647E+02  0.00000000000E+00 0.  1.
         11    1    3    3    0    0 -0.65347136451E+01 -0.17814120526E+02  0.11539438253E+02  0.22208196865E+02  0.51100000000E-03 0. -1.
        -11    1    3    3    0    0 -0.79964586220E+01  0.19359188677E+02  0.90022413341E+01  0.22798286910E+02  0.51100000000E-03 0.  1.
        -12    1    3    3    0    0  0.26426385707E+02 -0.39885859066E+01 -0.62864262381E+01  0.27455087578E+02  0.00000000000E+00 0.  1.
</event>
<event>
 7    1  0.2656097E-013  0.7246155E+02  0.7816164E-02  0.1226708E+00
        -11   -1    0    0    0    0  0.00000000000E+00  0.00000000000E+00  0.45593999997E+02  0.45594000000E+02  0.51100000000E-03 0. -1.
         11   -1    0    0    0    0 -0.00000000000E+00 -0.00000000000E+00 -0.45593999997E+02  0.45594000000E+02  0.51100000000E-03 0.  1.
    9900012    2    1    2    0    0 -0.34657123247E+00  0.15390278479E+02  0.10662976302E+02  0.72461552208E+02  0.69999976440E+02 0.  0.
        -12    1    1    2    0    0  0.34657123247E+00 -0.15390278479E+02 -0.10662976302E+02  0.18726447792E+02  0.00000000000E+00 0.  1.
         11    1    3    3    0    0 -0.13445815097E+01 -0.55622966534E+01 -0.24934762009E+01  0.62421524591E+01  0.51100000000E-03 0. -1.
        -11    1    3    3    0    0 -0.66903537039E+00 -0.95644493619E+01 -0.19354068729E+02  0.21598756366E+02  0.51100000000E-03 0.  1.
         12    1    3    3    0    0  0.16670456477E+01  0.30517024494E+02  0.32510521232E+02  0.44620643383E+02  0.00000000000E+00 0. -1.
</event>
<event>
 7    1  0.2656097E-013  0.7246157E+02  0.7816164E-02  0.1226708E+00
        -11   -1    0    0    0    0  0.00000000000E+00  0.00000000000E+00  0.45593999997E+02  0.45594000000E+02  0.51100000000E-03 0.  1.
         11   -1    0    0    0    0 -0.00000000000E+00 -0.00000000000E+00 -0.45593999997E+02  0.45594000000E+02  0.51100000000E-03 0. -1.
    9900012    2    1    2    0    0  0.41289283931E+01  0.95850129277E+01 -0.15548591555E+02  0.72461568897E+02  0.69999998180E+02 0.  0.
        -12    1    1    2    0    0 -0.41289283931E+01 -0.95850129277E+01  0.15548591555E+02  0.18726431103E+02  0.00000000000E+00 0.  1.
         11    1    3    3    0    0  0.93133860466E+01  0.23612558078E+02 -0.11539553618E+02  0.27882850582E+02  0.51100000000E-03 0. -1.
        -11    1    3    3    0    0  0.14381793575E+02 -0.13938015981E+01 -0.13170610218E+02  0.19551052225E+02  0.51100000000E-03 0.  1.
        -12    1    3    3    0    0 -0.19566251228E+02 -0.12633743552E+02  0.91615722808E+01  0.25027666090E+02  0.00000000000E+00 0.  1.
</event>
<event>
 7    1  0.2656097E-013  0.7246155E+02  0.7816164E-02  0.1226708E+00
        -11   -1    0    0    0    0  0.00000000000E+00  0.00000000000E+00  0.45593999997E+02  0.45594000000E+02  0.51100000000E-03 0.  1.
         11   -1    0    0    0    0 -0.00000000000E+00 -0.00000000000E+00 -0.45593999997E+02  0.45594000000E+02  0.51100000000E-03 0. -1.
    9900012    2    1    2    0    0 -0.18164928573E+02 -0.40643880497E+01 -0.20484609456E+01  0.72461546184E+02  0.69999968592E+02 0.  0.
        -12    1    1    2    0    0  0.18164928573E+02  0.40643880497E+01  0.20484609456E+01  0.18726453816E+02  0.00000000000E+00 0.  1.
         11    1    3    3    0    0 -0.19380501029E+02 -0.17434195277E+02 -0.30197585287E+02  0.39892971092E+02  0.51100000000E-03 0. -1.
        -11    1    3    3    0    0  0.36011859452E+01  0.35487944656E+01  0.41950154796E+01  0.65696756013E+01  0.51100000000E-03 0.  1.
        -12    1    3    3    0    0 -0.23856134892E+01  0.98210127613E+01  0.23954108862E+02  0.25998899491E+02  0.00000000000E+00 0.  1.
</event>
<event>
 7    1  0.2656097E-013  0.7246161E+02  0.7816164E-02  0.1226708E+00
        -11   -1    0    0    0    0  0.00000000000E+00  0.00000000000E+00  0.45593999997E+02  0.45594000000E+02  0.51100000000E-03 0. -1.
         11   -1    0    0    0    0 -0.00000000000E+00 -0.00000000000E+00 -0.45593999997E+02  0.45594000000E+02  0.51100000000E-03 0.  1.
    9900012    2    1    2    0    0  0.16873878588E+02 -0.78689595854E+01  0.20073745156E+01  0.72461605366E+02  0.70000045687E+02 0.  0.
        -12    1    1    2    0    0 -0.16873878588E+02  0.78689595854E+01 -0.20073745156E+01  0.18726394634E+02  0.00000000000E+00 0.  1.
         11    1    3    3    0    0  0.21072472665E+02  0.53374797712E+01  0.67084735301E+01  0.22749536520E+02  0.51100000000E-03 0. -1.
        -11    1    3    3    0    0 -0.61982921387E+00 -0.11761700460E+00  0.20808492429E+02  0.20818054170E+02  0.51100000000E-03 0.  1.
        -12    1    3    3    0    0 -0.35787648630E+01 -0.13088822352E+02 -0.25509591443E+02  0.28894014676E+02  0.00000000000E+00 0.  1.
</event>
<event>
 7    1  0.2656097E-013  0.7246156E+02  0.7816164E-02  0.1226708E+00
        -11   -1    0    0    0    0  0.00000000000E+00  0.00000000000E+00  0.45593999997E+02  0.45594000000E+02  0.51100000000E-03 0.  1.
         11   -1    0    0    0    0 -0.00000000000E+00 -0.00000000000E+00 -0.45593999997E+02  0.45594000000E+02  0.51100000000E-03 0. -1.
    9900012    2    1    2    0    0  0.13932083804E+02 -0.89175704588E+01 -0.87780168016E+01  0.72461558774E+02  0.69999984993E+02 0.  0.
        -12    1    1    2    0    0 -0.13932083804E+02  0.89175704588E+01  0.87780168016E+01  0.18726441226E+02  0.00000000000E+00 0.  1.
         11    1    3    3    0    0 -0.57574075393E+01 -0.55325687601E+01  0.68733271312E+01  0.10535638793E+02  0.51100000000E-03 0. -1.
        -11    1    3    3    0    0 -0.14713798325E+02 -0.12432924400E+02  0.61287525145E+01  0.20214724285E+02  0.51100000000E-03 0.  1.
         12    1    3    3    0    0  0.34403289668E+02  0.90479227012E+01 -0.21780096447E+02  0.41711195697E+02  0.00000000000E+00 0. -1.
</event>
<event>
 7    1  0.2656097E-013  0.7246158E+02  0.7816164E-02  0.1226708E+00
        -11   -1    0    0    0    0  0.00000000000E+00  0.00000000000E+00  0.45593999997E+02  0.45594000000E+02  0.51100000000E-03 0. -1.
         11   -1    0    0    0    0 -0.00000000000E+00 -0.00000000000E+00 -0.45593999997E+02  0.45594000000E+02  0.51100000000E-03 0.  1.
    9900012    2    1    2    0    0 -0.14910270438E+02  0.13902044418E+01  0.11244111616E+02  0.72461578052E+02  0.70000010106E+02 0.  0.
        -12    1    1    2    0    0  0.14910270438E+02 -0.13902044418E+01 -0.11244111616E+02  0.18726421948E+02  0.00000000000E+00 0.  1.
         11    1    3    3    0    0  0.63728427102E+01 -0.48585730220E+01  0.78911265222E+01  0.11246721036E+02  0.51100000000E-03 0. -1.
        -11    1    3    3    0    0  0.23340130628E+01 -0.16610108188E+02  0.18545525517E+02  0.25005595933E+02  0.51100000000E-03 0.  1.
         12    1    3    3    0    0 -0.23617126211E+02  0.22858885652E+02 -0.15192540422E+02  0.36209261083E+02  0.00000000000E+00 0. -1.
</event>
<event>
 7    1  0.2656097E-013  0.7246159E+02  0.7816164E-02  0.1226708E+00
        -11   -1    0    0    0    0  0.00000000000E+00  0.00000000000E+00  0.45593999997E+02  0.45594000000E+02  0.51100000000E-03 0.  1.
         11   -1    0    0    0    0 -0.00000000000E+00 -0.00000000000E+00 -0.45593999997E+02  0.45594000000E+02  0.51100000000E-03 0. -1.
    9900012    2    1    2    0    0  0.10696401434E+02 -0.15363011023E+02 -0.49314222367E+00  0.72461593495E+02  0.70000030223E+02 0.  0.
        -12    1    1    2    0    0 -0.10696401434E+02  0.15363011023E+02  0.49314222367E+00  0.18726406505E+02  0.00000000000E+00 0.  1.
         11    1    3    3    0    0 -0.10348069901E+02 -0.13476569684E+01 -0.69606928290E+01  0.12543921831E+02  0.51100000000E-03 0. -1.
        -11    1    3    3    0    0 -0.13865933343E+02 -0.11275287321E+02 -0.10792144328E+02  0.20877418210E+02  0.51100000000E-03 0.  1.
         12    1    3    3    0    0  0.34910404679E+02 -0.27400667341E+01  0.17259694933E+02  0.39040253454E+02  0.00000000000E+00 0. -1.
</event>
<event>
 7    1  0.2656097E-013  0.7246145E+02  0.7816164E-02  0.1226708E+00
        -11   -1    0    0    0    0  0.00000000000E+00  0.00000000000E+00  0.45593999997E+02  0.45594000000E+02  0.51100000000E-03 0. -1.
         11   -1    0    0    0    0 -0.00000000000E+00 -0.00000000000E+00 -0.45593999997E+02  0.45594000000E+02  0.51100000000E-03 0.  1.
    9900012    2    1    2    0    0  0.78083076316E+01  0.16309765920E+02 -0.48688302377E+01  0.72461450923E+02  0.69999844497E+02 0.  0.
        -12    1    1    2    0    0 -0.78083076316E+01 -0.16309765920E+02  0.48688302377E+01  0.18726549077E+02  0.00000000000E+00 0.  1.
         11    1    3    3    0    0  0.10497621963E+02 -0.10066295731E+02  0.53791354048E+01  0.15506949235E+02  0.51100000000E-03 0. -1.
        -11    1    3    3    0    0  0.13571587513E+02  0.13967698069E+02 -0.25032648959E+02  0.31716211803E+02  0.51100000000E-03 0.  1.
         12    1    3    3    0    0 -0.16260901843E+02  0.12408363582E+02  0.14784683317E+02  0.25238289885E+02  0.00000000000E+00 0. -1.
</event>
<event>
 7    1  0.2656097E-013  0.7246152E+02  0.7816164E-02  0.1226708E+00
        -11   -1    0    0    0    0  0.00000000000E+00  0.00000000000E+00  0.45593999997E+02  0.45594000000E+02  0.51100000000E-03 0. -1.
         11   -1    0    0    0    0 -0.00000000000E+00 -0.00000000000E+00 -0.45593999997E+02  0.45594000000E+02  0.51100000000E-03 0.  1.
    9900012    2    1    2    0    0  0.12161298473E+02  0.13834421865E+02  0.33753146149E+01  0.72461517211E+02  0.69999930850E+02 0.  0.
        -12    1    1    2    0    0 -0.12161298473E+02 -0.13834421865E+02 -0.33753146149E+01  0.18726482789E+02  0.00000000000E+00 0.  1.
         11    1    3    3    0    0 -0.10774754984E+01  0.31344590512E+00 -0.36174156957E+01  0.37874659552E+01  0.51100000000E-03 0. -1.
        -11    1    3    3    0    0 -0.36080107517E+01 -0.13773559039E+02 -0.21489432833E+02  0.25778370661E+02  0.51100000000E-03 0.  1.
         12    1    3    3    0    0  0.16846784723E+02  0.27294534999E+02  0.28482163144E+02  0.42895680595E+02  0.00000000000E+00 0. -1.
</event>
<event>
 7    1  0.2656097E-013  0.7246159E+02  0.7816164E-02  0.1226708E+00
        -11   -1    0    0    0    0  0.00000000000E+00  0.00000000000E+00  0.45593999997E+02  0.45594000000E+02  0.51100000000E-03 0.  1.
         11   -1    0    0    0    0 -0.00000000000E+00 -0.00000000000E+00 -0.45593999997E+02  0.45594000000E+02  0.51100000000E-03 0. -1.
    9900012    2    1    2    0    0  0.90524453111E+01 -0.14799916334E+02 -0.70494169325E+01  0.72461586336E+02  0.70000020898E+02 0.  0.
        -12    1    1    2    0    0 -0.90524453111E+01  0.14799916334E+02  0.70494169325E+01  0.18726413664E+02  0.00000000000E+00 0.  1.
         11    1    3    3    0    0  0.19324735775E+01 -0.27887518984E+01 -0.28961479408E+02  0.29159541852E+02  0.51100000000E-03 0. -1.
        -11    1    3    3    0    0  0.36527361795E+01  0.12291264350E+01 -0.88389868396E+01  0.96426615622E+01  0.51100000000E-03 0.  1.
        -12    1    3    3    0    0  0.34672355541E+01 -0.13240290871E+02  0.30751049315E+02  0.33659382922E+02  0.00000000000E+00 0.  1.
</event>
<event>
 7    1  0.2656097E-013  0.7246163E+02  0.7816164E-02  0.1226708E+00
        -11   -1    0    0    0    0  0.00000000000E+00  0.00000000000E+00  0.45593999997E+02  0.45594000000E+02  0.51100000000E-03 0. -1.
         11   -1    0    0    0    0 -0.00000000000E+00 -0.00000000000E+00 -0.45593999997E+02  0.45594000000E+02  0.51100000000E-03 0.  1.
    9900012    2    1    2    0    0 -0.10966973945E+02 -0.14588972036E+02  0.41909993167E+01  0.72461625608E+02  0.70000072057E+02 0.  0.
        -12    1    1    2    0    0  0.10966973945E+02  0.14588972036E+02 -0.41909993167E+01  0.18726374392E+02  0.00000000000E+00 0.  1.
         11    1    3    3    0    0  0.22697618234E+02 -0.18758609383E+02 -0.88679139154E+01  0.30752352706E+02  0.51100000000E-03 0. -1.
        -11    1    3    3    0    0 -0.18785888785E+01  0.14703908967E+01 -0.46477048531E+01  0.52242038845E+01  0.51100000000E-03 0.  1.
         12    1    3    3    0    0 -0.31786003301E+02  0.26992464503E+01  0.17706618085E+02  0.36485069018E+02  0.00000000000E+00 0. -1.
</event>
<event>
 7    1  0.2656097E-013  0.7246155E+02  0.7816164E-02  0.1226708E+00
        -11   -1    0    0    0    0  0.00000000000E+00  0.00000000000E+00  0.45593999997E+02  0.45594000000E+02  0.51100000000E-03 0.  1.
         11   -1    0    0    0    0 -0.00000000000E+00 -0.00000000000E+00 -0.45593999997E+02  0.45594000000E+02  0.51100000000E-03 0. -1.
    9900012    2    1    2    0    0 -0.57674927539E+01  0.75191835358E+01 -0.16151717310E+02  0.72461546364E+02  0.69999968827E+02 0.  0.
        -12    1    1    2    0    0  0.57674927539E+01 -0.75191835358E+01  0.16151717310E+02  0.18726453636E+02  0.00000000000E+00 0.  1.
         11    1    3    3    0    0  0.94613430402E+01 -0.14098867290E+02 -0.31885869711E+02  0.36124835757E+02  0.51100000000E-03 0.  1.
        -11    1    3    3    0    0 -0.13089300707E+02  0.14587470764E+02  0.71048116283E+00  0.19611957578E+02  0.51100000000E-03 0. -1.
        -12    1    3    3    0    0 -0.21395350869E+01  0.70305800616E+01  0.15023671239E+02  0.16724753029E+02  0.00000000000E+00 0.  1.
</event>
<event>
 7    1  0.2656097E-013  0.7246165E+02  0.7816164E-02  0.1226708E+00
        -11   -1    0    0    0    0  0.00000000000E+00  0.00000000000E+00  0.45593999997E+02  0.45594000000E+02  0.51100000000E-03 0. -1.
         11   -1    0    0    0    0 -0.00000000000E+00 -0.00000000000E+00 -0.45593999997E+02  0.45594000000E+02  0.51100000000E-03 0.  1.
    9900012    2    1    2    0    0 -0.11896435511E+02 -0.30374540889E+01  0.14139482018E+02  0.72461648061E+02  0.70000101306E+02 0.  0.
        -12    1    1    2    0    0  0.11896435511E+02  0.30374540889E+01 -0.14139482018E+02  0.18726351939E+02  0.00000000000E+00 0.  1.
         11    1    3    3    0    0 -0.13021627021E+02 -0.48380523995E+01 -0.54157938983E+01  0.14909739941E+02  0.51100000000E-03 0. -1.
        -11    1    3    3    0    0 -0.54015218557E+01  0.95844528357E+01 -0.16645623953E+02  0.19952818637E+02  0.51100000000E-03 0.  1.
         12    1    3    3    0    0  0.65267133653E+01 -0.77838545251E+01  0.36200899869E+02  0.37599089483E+02  0.00000000000E+00 0. -1.
</event>
<event>
 7    1  0.2656097E-013  0.7246151E+02  0.7816164E-02  0.1226708E+00
        -11   -1    0    0    0    0  0.00000000000E+00  0.00000000000E+00  0.45593999997E+02  0.45594000000E+02  0.51100000000E-03 0.  1.
         11   -1    0    0    0    0 -0.00000000000E+00 -0.00000000000E+00 -0.45593999997E+02  0.45594000000E+02  0.51100000000E-03 0. -1.
    9900012    2    1    2    0    0 -0.15575483583E+01 -0.18082901640E+02 -0.46113042776E+01  0.72461510319E+02  0.69999921871E+02 0.  0.
        -12    1    1    2    0    0  0.15575483583E+01  0.18082901640E+02  0.46113042776E+01  0.18726489681E+02  0.00000000000E+00 0.  1.
         11    1    3    3    0    0 -0.13673838207E+02 -0.18289524201E+02 -0.15590448326E+02  0.27650363941E+02  0.51100000000E-03 0. -1.
        -11    1    3    3    0    0  0.21852951858E+02 -0.13507529420E+02  0.20587395900E+01  0.25772917276E+02  0.51100000000E-03 0.  1.
        -12    1    3    3    0    0 -0.97366620094E+01  0.13714151981E+02  0.89204044583E+01  0.19038229102E+02  0.00000000000E+00 0.  1.
</event>
<event>
 7    1  0.2656097E-013  0.7246158E+02  0.7816164E-02  0.1226708E+00
        -11   -1    0    0    0    0  0.00000000000E+00  0.00000000000E+00  0.45593999997E+02  0.45594000000E+02  0.51100000000E-03 0.  1.
         11   -1    0    0    0    0 -0.00000000000E+00 -0.00000000000E+00 -0.45593999997E+02  0.45594000000E+02  0.51100000000E-03 0. -1.
    9900012    2    1    2    0    0 -0.18350740741E+02 -0.14359349994E+01  0.34448917621E+01  0.72461578176E+02  0.70000010267E+02 0.  0.
        -12    1    1    2    0    0  0.18350740741E+02  0.14359349994E+01 -0.34448917621E+01  0.18726421824E+02  0.00000000000E+00 0.  1.
         11    1    3    3    0    0 -0.28873896718E+02  0.99952065660E+00 -0.14357866113E+02  0.32262195722E+02  0.51100000000E-03 0. -1.
        -11    1    3    3    0    0 -0.96352397580E+01 -0.10568031044E+02  0.67641930196E+01  0.15820095854E+02  0.51100000000E-03 0.  1.
         12    1    3    3    0    0  0.20158395735E+02  0.81325753884E+01  0.11038564856E+02  0.24379286600E+02  0.00000000000E+00 0. -1.
</event>
<event>
 7    1  0.2656097E-013  0.7246157E+02  0.7816164E-02  0.1226708E+00
        -11   -1    0    0    0    0  0.00000000000E+00  0.00000000000E+00  0.45593999997E+02  0.45594000000E+02  0.51100000000E-03 0. -1.
         11   -1    0    0    0    0 -0.00000000000E+00 -0.00000000000E+00 -0.45593999997E+02  0.45594000000E+02  0.51100000000E-03 0.  1.
    9900012    2    1    2    0    0 -0.12003061880E+02 -0.38310676074E+01  0.13853828269E+02  0.72461571317E+02  0.70000001332E+02 0.  0.
        -12    1    1    2    0    0  0.12003061880E+02  0.38310676074E+01 -0.13853828269E+02  0.18726428683E+02  0.00000000000E+00 0.  1.
         11    1    3    3    0    0  0.58794886884E+01  0.22733777337E+01  0.19776394131E+01  0.66066399528E+01  0.51100000000E-03 0. -1.
        -11    1    3    3    0    0  0.22124895761E+02  0.12064879086E+01  0.11971242550E+02  0.25184862000E+02  0.51100000000E-03 0.  1.
         12    1    3    3    0    0 -0.40007446330E+02 -0.73109332497E+01 -0.95053693717E-01  0.40670069364E+02  0.00000000000E+00 0. -1.
</event>
<event>
 7    1  0.2656097E-013  0.7246158E+02  0.7816164E-02  0.1226708E+00
        -11   -1    0    0    0    0  0.00000000000E+00  0.00000000000E+00  0.45593999997E+02  0.45594000000E+02  0.51100000000E-03 0. -1.
         11   -1    0    0    0    0 -0.00000000000E+00 -0.00000000000E+00 -0.45593999997E+02  0.45594000000E+02  0.51100000000E-03 0.  1.
    9900012    2    1    2    0    0 -0.17391943056E+02  0.66927899975E+01 -0.18454825693E+01  0.72461576766E+02  0.70000008431E+02 0.  0.
        -12    1    1    2    0    0  0.17391943056E+02 -0.66927899975E+01  0.18454825693E+01  0.18726423234E+02  0.00000000000E+00 0.  1.
         11    1    3    3    0    0  0.21344910027E+02  0.15631189166E+02  0.12780292303E+00  0.26456673878E+02  0.51100000000E-03 0. -1.
        -11    1    3    3    0    0 -0.60081124492E+01 -0.21803063620E+01  0.88143044837E+01  0.10887750678E+02  0.51100000000E-03 0.  1.
        -12    1    3    3    0    0 -0.32728740634E+02 -0.67580928067E+01 -0.10787589976E+02  0.35117152210E+02  0.00000000000E+00 0.  1.
</event>
<event>
 7    1  0.3385753E-013  0.7246137E+02  0.7816164E-02  0.1226709E+00
        -11   -1    0    0    0    0  0.00000000000E+00  0.00000000000E+00  0.45593999997E+02  0.45594000000E+02  0.51100000000E-03 0. -1.
         11   -1    0    0    0    0 -0.00000000000E+00 -0.00000000000E+00 -0.45593999997E+02  0.45594000000E+02  0.51100000000E-03 0.  1.
    9900012    2    1    2    0    0  0.54868522497E+01  0.15573809739E+01  0.17836921830E+02  0.72461367535E+02  0.69999735868E+02 0.  0.
        -12    1    1    2    0    0 -0.54868522497E+01 -0.15573809739E+01 -0.17836921830E+02  0.18726632465E+02  0.00000000000E+00 0.  1.
         11    1    3    3    0    0  0.23898478427E+01  0.13186584223E+02  0.32176676870E+02  0.34855930784E+02  0.51100000000E-03 0. -1.
        -11    1    3    3    0    0 -0.84566932133E+01 -0.13511320768E+01  0.71320283618E+01  0.11144821524E+02  0.51100000000E-03 0.  1.
        -12    1    3    3    0    0  0.11553697620E+02 -0.10278071172E+02 -0.21471783402E+02  0.26460615227E+02  0.00000000000E+00 0.  1.
</event>
<event>
 7    1  0.2656097E-013  0.7246159E+02  0.7816164E-02  0.1226708E+00
        -11   -1    0    0    0    0  0.00000000000E+00  0.00000000000E+00  0.45593999997E+02  0.45594000000E+02  0.51100000000E-03 0.  1.
         11   -1    0    0    0    0 -0.00000000000E+00 -0.00000000000E+00 -0.45593999997E+02  0.45594000000E+02  0.51100000000E-03 0. -1.
    9900012    2    1    2    0    0  0.68911791731E+01  0.98521283334E+00 -0.17384459563E+02  0.72461590066E+02  0.70000025756E+02 0.  0.
        -12    1    1    2    0    0 -0.68911791731E+01 -0.98521283334E+00  0.17384459563E+02  0.18726409934E+02  0.00000000000E+00 0.  1.
         11    1    3    3    0    0 -0.66133053295E+00 -0.60253202934E+01 -0.37799464780E+01  0.71435172254E+01  0.51100000000E-03 0. -1.
        -11    1    3    3    0    0  0.18728810310E+02 -0.16768252205E+02  0.12678260305E+02  0.28154589364E+02  0.51100000000E-03 0.  1.
        -12    1    3    3    0    0 -0.11176300604E+02  0.23778785332E+02 -0.26282773390E+02  0.37163483476E+02  0.00000000000E+00 0.  1.
</event>
<event>
 7    1  0.2656097E-013  0.7246182E+02  0.7816164E-02  0.1226707E+00
        -11   -1    0    0    0    0  0.00000000000E+00  0.00000000000E+00  0.45593999997E+02  0.45594000000E+02  0.51100000000E-03 0. -1.
         11   -1    0    0    0    0 -0.00000000000E+00 -0.00000000000E+00 -0.45593999997E+02  0.45594000000E+02  0.51100000000E-03 0.  1.
    9900012    2    1    2    0    0 -0.10711635921E+02  0.99233998291E+01  0.11724190865E+02  0.72461824210E+02  0.70000330771E+02 0.  0.
        -12    1    1    2    0    0  0.10711635921E+02 -0.99233998291E+01 -0.11724190865E+02  0.18726175790E+02  0.00000000000E+00 0.  1.
         11    1    3    3    0    0  0.11658683755E+02  0.15640544603E+02  0.20620448527E+02  0.28385814064E+02  0.51100000000E-03 0. -1.
        -11    1    3    3    0    0 -0.28760393955E+01  0.14329209610E+02  0.36646006998E+00  0.14619580839E+02  0.51100000000E-03 0.  1.
        -12    1    3    3    0    0 -0.19494280280E+02 -0.20046354384E+02 -0.92627177317E+01  0.29456429307E+02  0.00000000000E+00 0.  1.
</event>
<event>
 7    1  0.2656097E-013  0.7246167E+02  0.7816164E-02  0.1226708E+00
        -11   -1    0    0    0    0  0.00000000000E+00  0.00000000000E+00  0.45593999997E+02  0.45594000000E+02  0.51100000000E-03 0.  1.
         11   -1    0    0    0    0 -0.00000000000E+00 -0.00000000000E+00 -0.45593999997E+02  0.45594000000E+02  0.51100000000E-03 0. -1.
    9900012    2    1    2    0    0  0.95335258420E+01 -0.12883489646E+02 -0.96851912392E+01  0.72461672283E+02  0.70000132859E+02 0.  0.
        -12    1    1    2    0    0 -0.95335258420E+01  0.12883489646E+02  0.96851912392E+01  0.18726327717E+02  0.00000000000E+00 0.  1.
         11    1    3    3    0    0  0.28958783599E+02 -0.17770760286E+02 -0.12934989073E+02  0.36355536184E+02  0.51100000000E-03 0. -1.
        -11    1    3    3    0    0 -0.71079550741E+01 -0.10920165657E+02  0.82886358748E+01  0.15442620511E+02  0.51100000000E-03 0.  1.
        -12    1    3    3    0    0 -0.12317302683E+02  0.15807436296E+02 -0.50388380414E+01  0.20663515588E+02  0.00000000000E+00 0.  1.
</event>
<event>
 7    1  0.2656097E-013  0.7246139E+02  0.7816164E-02  0.1226709E+00
        -11   -1    0    0    0    0  0.00000000000E+00  0.00000000000E+00  0.45593999997E+02  0.45594000000E+02  0.51100000000E-03 0. -1.
         11   -1    0    0    0    0 -0.00000000000E+00 -0.00000000000E+00 -0.45593999997E+02  0.45594000000E+02  0.51100000000E-03 0.  1.
    9900012    2    1    2    0    0  0.75644323559E+01  0.12615152773E+02 -0.11589796893E+02  0.72461385026E+02  0.69999758653E+02 0.  0.
        -12    1    1    2    0    0 -0.75644323559E+01 -0.12615152773E+02  0.11589796893E+02  0.18726614974E+02  0.00000000000E+00 0.  1.
         11    1    3    3    0    0 -0.45868430760E+01 -0.44355027891E+01 -0.56899594311E+01  0.85491784976E+01  0.51100000000E-03 0. -1.
        -11    1    3    3    0    0 -0.14175489173E+02  0.14804259302E+02 -0.24243267414E+02  0.31746599848E+02  0.51100000000E-03 0.  1.
         12    1    3    3    0    0  0.26326764604E+02  0.22463962601E+01  0.18343429952E+02  0.32165606680E+02  0.00000000000E+00 0. -1.
</event>
<event>
 7    1  0.2656097E-013  0.7246161E+02  0.7816164E-02  0.1226708E+00
        -11   -1    0    0    0    0  0.00000000000E+00  0.00000000000E+00  0.45593999997E+02  0.45594000000E+02  0.51100000000E-03 0.  1.
         11   -1    0    0    0    0 -0.00000000000E+00 -0.00000000000E+00 -0.45593999997E+02  0.45594000000E+02  0.51100000000E-03 0. -1.
    9900012    2    1    2    0    0  0.14785423891E+02 -0.31002073452E+01 -0.11066065965E+02  0.72461605228E+02  0.70000045507E+02 0.  0.
        -12    1    1    2    0    0 -0.14785423891E+02  0.31002073452E+01  0.11066065965E+02  0.18726394772E+02  0.00000000000E+00 0.  1.
         11    1    3    3    0    0 -0.10695221423E+02 -0.23890378960E+01 -0.79352818370E+01  0.13530113135E+02  0.51100000000E-03 0. -1.
        -11    1    3    3    0    0 -0.51930130682E+01  0.19189814276E+02 -0.91340272627E+01  0.21877998331E+02  0.51100000000E-03 0.  1.
         12    1    3    3    0    0  0.30673658382E+02 -0.19900983725E+02  0.60032431349E+01  0.37053493762E+02  0.00000000000E+00 0. -1.
</event>
<event>
 7    1  0.2656097E-013  0.7246162E+02  0.7816164E-02  0.1226708E+00
        -11   -1    0    0    0    0  0.00000000000E+00  0.00000000000E+00  0.45593999997E+02  0.45594000000E+02  0.51100000000E-03 0. -1.
         11   -1    0    0    0    0 -0.00000000000E+00 -0.00000000000E+00 -0.45593999997E+02  0.45594000000E+02  0.51100000000E-03 0.  1.
    9900012    2    1    2    0    0 -0.66710132251E+01 -0.85292136709E+01  0.15278332235E+02  0.72461619165E+02  0.70000063663E+02 0.  0.
        -12    1    1    2    0    0  0.66710132251E+01  0.85292136709E+01 -0.15278332235E+02  0.18726380835E+02  0.00000000000E+00 0.  1.
         11    1    3    3    0    0  0.25671677553E+01  0.27108859990E+01 -0.98612541608E+01  0.10544362810E+02  0.51100000000E-03 0. -1.
        -11    1    3    3    0    0  0.12802138188E+02  0.41340875719E+01 -0.10652569028E+02  0.17159914027E+02  0.51100000000E-03 0.  1.
         12    1    3    3    0    0 -0.22040319168E+02 -0.15374187242E+02  0.35792155424E+02  0.44757342328E+02  0.00000000000E+00 0. -1.
</event>
<event>
 7    1  0.2656097E-013  0.7246165E+02  0.7816164E-02  0.1226708E+00
        -11   -1    0    0    0    0  0.00000000000E+00  0.00000000000E+00  0.45593999997E+02  0.45594000000E+02  0.51100000000E-03 0.  1.
         11   -1    0    0    0    0 -0.00000000000E+00 -0.00000000000E+00 -0.45593999997E+02  0.45594000000E+02  0.51100000000E-03 0. -1.
    9900012    2    1    2    0    0 -0.77189061922E+01  0.15876253392E+02  0.62481286818E+01  0.72461653677E+02  0.70000108621E+02 0.  0.
        -12    1    1    2    0    0  0.77189061922E+01 -0.15876253392E+02 -0.62481286818E+01  0.18726346323E+02  0.00000000000E+00 0.  1.
         11    1    3    3    0    0 -0.23014733714E+02  0.18366218525E+02 -0.85565310867E+01  0.30662846823E+02  0.51100000000E-03 0. -1.
        -11    1    3    3    0    0 -0.60931879112E+01 -0.84323375395E+01 -0.54530277442E+01  0.11745925555E+02  0.51100000000E-03 0.  1.
        -12    1    3    3    0    0  0.21389015433E+02  0.59423724073E+01  0.20257687513E+02  0.30052881299E+02  0.00000000000E+00 0.  1.
</event>
<event>
 7    1  0.2656097E-013  0.7246156E+02  0.7816164E-02  0.1226708E+00
        -11   -1    0    0    0    0  0.00000000000E+00  0.00000000000E+00  0.45593999997E+02  0.45594000000E+02  0.51100000000E-03 0. -1.
         11   -1    0    0    0    0 -0.00000000000E+00 -0.00000000000E+00 -0.45593999997E+02  0.45594000000E+02  0.51100000000E-03 0.  1.
    9900012    2    1    2    0    0 -0.15533279312E+01 -0.18504968048E+02 -0.24151700176E+01  0.72461555694E+02  0.69999980980E+02 0.  0.
        -12    1    1    2    0    0  0.15533279312E+01  0.18504968048E+02  0.24151700176E+01  0.18726444306E+02  0.00000000000E+00 0.  1.
         11    1    3    3    0    0 -0.19455092799E+01 -0.89837362142E+01  0.92490110411E+01  0.13039813197E+02  0.51100000000E-03 0. -1.
        -11    1    3    3    0    0 -0.71480041403E+00  0.33614830049E+00  0.23179848980E+02  0.23193303652E+02  0.51100000000E-03 0.  1.
        -12    1    3    3    0    0  0.11069817628E+01 -0.98573801348E+01 -0.34844030039E+02  0.36228438844E+02  0.00000000000E+00 0.  1.
</event>
<event>
 7    1  0.2656097E-013  0.7246165E+02  0.7816164E-02  0.1226708E+00
        -11   -1    0    0    0    0  0.00000000000E+00  0.00000000000E+00  0.45593999997E+02  0.45594000000E+02  0.51100000000E-03 0.  1.
         11   -1    0    0    0    0 -0.00000000000E+00 -0.00000000000E+00 -0.45593999997E+02  0.45594000000E+02  0.51100000000E-03 0. -1.
    9900012    2    1    2    0    0  0.54257510543E+01  0.13464892740E+01 -0.17872447209E+02  0.72461650192E+02  0.70000104082E+02 0.  0.
        -12    1    1    2    0    0 -0.54257510543E+01 -0.13464892740E+01  0.17872447209E+02  0.18726349808E+02  0.00000000000E+00 0.  1.
         11    1    3    3    0    0  0.19695184745E+02  0.71895593637E+01  0.47775616565E+01  0.21503840625E+02  0.51100000000E-03 0.  1.
        -11    1    3    3    0    0  0.18228755004E+01  0.12422357892E+02 -0.23452079063E+02  0.26601463556E+02  0.51100000000E-03 0. -1.
         12    1    3    3    0    0 -0.16092309191E+02 -0.18265427982E+02  0.80207019715E+00  0.24356346012E+02  0.00000000000E+00 0. -1.
</event>
<event>
 7    1  0.2656097E-013  0.7246158E+02  0.7816164E-02  0.1226708E+00
        -11   -1    0    0    0    0  0.00000000000E+00  0.00000000000E+00  0.45593999997E+02  0.45594000000E+02  0.51100000000E-03 0. -1.
         11   -1    0    0    0    0 -0.00000000000E+00 -0.00000000000E+00 -0.45593999997E+02  0.45594000000E+02  0.51100000000E-03 0.  1.
    9900012    2    1    2    0    0 -0.49298704258E+01  0.55473854849E+01  0.17193070383E+02  0.72461580766E+02  0.70000013641E+02 0.  0.
        -12    1    1    2    0    0  0.49298704258E+01 -0.55473854849E+01 -0.17193070383E+02  0.18726419234E+02  0.00000000000E+00 0.  1.
         11    1    3    3    0    0 -0.15332605093E+02  0.11612805119E+01  0.28830391983E+02  0.32674590335E+02  0.51100000000E-03 0. -1.
        -11    1    3    3    0    0 -0.16215987630E+01  0.18415784121E+02 -0.10531771826E+02  0.21276487149E+02  0.51100000000E-03 0.  1.
        -12    1    3    3    0    0  0.12024333431E+02 -0.14029679148E+02 -0.11055497734E+01  0.18510503282E+02  0.00000000000E+00 0.  1.
</event>
<event>
 7    1  0.2656097E-013  0.7246159E+02  0.7816164E-02  0.1226708E+00
        -11   -1    0    0    0    0  0.00000000000E+00  0.00000000000E+00  0.45593999997E+02  0.45594000000E+02  0.51100000000E-03 0. -1.
         11   -1    0    0    0    0 -0.00000000000E+00 -0.00000000000E+00 -0.45593999997E+02  0.45594000000E+02  0.51100000000E-03 0.  1.
    9900012    2    1    2    0    0  0.47678163283E+01  0.90582412268E+00  0.18086616110E+02  0.72461594253E+02  0.70000031211E+02 0.  0.
        -12    1    1    2    0    0 -0.47678163283E+01 -0.90582412268E+00 -0.18086616110E+02  0.18726405747E+02  0.00000000000E+00 0.  1.
         11    1    3    3    0    0  0.58435011762E+01 -0.22029775743E+02 -0.72785691065E+01  0.23925615850E+02  0.51100000000E-03 0. -1.
        -11    1    3    3    0    0  0.15813067572E+01  0.66490115736E+01 -0.84745616960E+01  0.10887060309E+02  0.51100000000E-03 0.  1.
         12    1    3    3    0    0 -0.26569916052E+01  0.16286588292E+02  0.33839746913E+02  0.37648918095E+02  0.00000000000E+00 0. -1.
</event>
<event>
 7    1  0.2656097E-013  0.7246151E+02  0.7816164E-02  0.1226708E+00
        -11   -1    0    0    0    0  0.00000000000E+00  0.00000000000E+00  0.45593999997E+02  0.45594000000E+02  0.51100000000E-03 0. -1.
         11   -1    0    0    0    0 -0.00000000000E+00 -0.00000000000E+00 -0.45593999997E+02  0.45594000000E+02  0.51100000000E-03 0.  1.
    9900012    2    1    2    0    0 -0.92711382344E-01  0.92004178058E+01  0.16310277686E+02  0.72461509635E+02  0.69999920979E+02 0.  0.
        -12    1    1    2    0    0  0.92711382344E-01 -0.92004178058E+01 -0.16310277686E+02  0.18726490365E+02  0.00000000000E+00 0.  1.
         11    1    3    3    0    0 -0.12821677814E+02 -0.10568418449E+02  0.10660583813E+02  0.19741705549E+02  0.51100000000E-03 0. -1.
        -11    1    3    3    0    0 -0.13679925883E+02 -0.35934177133E+01  0.98140340961E+01  0.17215350375E+02  0.51100000000E-03 0.  1.
        -12    1    3    3    0    0  0.26408892315E+02  0.23362253969E+02 -0.41643402226E+01  0.35504453711E+02  0.00000000000E+00 0.  1.
</event>
<event>
 7    1  0.2656097E-013  0.7246162E+02  0.7816164E-02  0.1226708E+00
        -11   -1    0    0    0    0  0.00000000000E+00  0.00000000000E+00  0.45593999997E+02  0.45594000000E+02  0.51100000000E-03 0.  1.
         11   -1    0    0    0    0 -0.00000000000E+00 -0.00000000000E+00 -0.45593999997E+02  0.45594000000E+02  0.51100000000E-03 0. -1.
    9900012    2    1    2    0    0 -0.18030838998E+01 -0.17471754760E+02 -0.64933674362E+01  0.72461624307E+02  0.70000070361E+02 0.  0.
        -12    1    1    2    0    0  0.18030838998E+01  0.17471754760E+02  0.64933674362E+01  0.18726375693E+02  0.00000000000E+00 0.  1.
         11    1    3    3    0    0  0.81350994803E-01 -0.12296851476E+02 -0.91116015177E+01  0.15304916096E+02  0.51100000000E-03 0. -1.
        -11    1    3    3    0    0  0.20269050407E+01 -0.29778183496E+02 -0.66452828183E+01  0.30577906082E+02  0.51100000000E-03 0.  1.
        -12    1    3    3    0    0 -0.39113399352E+01  0.24603280212E+02  0.92635168997E+01  0.26578802130E+02  0.00000000000E+00 0.  1.
</event>
<event>
 7    1  0.2656097E-013  0.7246158E+02  0.7816164E-02  0.1226708E+00
        -11   -1    0    0    0    0  0.00000000000E+00  0.00000000000E+00  0.45593999997E+02  0.45594000000E+02  0.51100000000E-03 0.  1.
         11   -1    0    0    0    0 -0.00000000000E+00 -0.00000000000E+00 -0.45593999997E+02  0.45594000000E+02  0.51100000000E-03 0. -1.
    9900012    2    1    2    0    0  0.13494632053E+02 -0.72275334025E+01 -0.10785934838E+02  0.72461582199E+02  0.70000015508E+02 0.  0.
        -12    1    1    2    0    0 -0.13494632053E+02  0.72275334025E+01  0.10785934838E+02  0.18726417801E+02  0.00000000000E+00 0.  1.
         11    1    3    3    0    0  0.22065102100E+02  0.16515025831E+02  0.65865909497E+01  0.28337219155E+02  0.51100000000E-03 0. -1.
        -11    1    3    3    0    0  0.81559588701E+01 -0.18332020997E+02 -0.98111135372E+00  0.20088435446E+02  0.51100000000E-03 0.  1.
         12    1    3    3    0    0 -0.16726428917E+02 -0.54105382363E+01 -0.16391414434E+02  0.24035927598E+02  0.00000000000E+00 0. -1.
</event>
<event>
 7    1  0.2656097E-013  0.7246139E+02  0.7816164E-02  0.1226709E+00
        -11   -1    0    0    0    0  0.00000000000E+00  0.00000000000E+00  0.45593999997E+02  0.45594000000E+02  0.51100000000E-03 0. -1.
         11   -1    0    0    0    0 -0.00000000000E+00 -0.00000000000E+00 -0.45593999997E+02  0.45594000000E+02  0.51100000000E-03 0.  1.
    9900012    2    1    2    0    0 -0.14818888810E+02 -0.91722590644E+01  0.68524672370E+01  0.72461385006E+02  0.69999758627E+02 0.  0.
        -12    1    1    2    0    0  0.14818888810E+02  0.91722590644E+01 -0.68524672370E+01  0.18726614994E+02  0.00000000000E+00 0.  1.
         11    1    3    3    0    0  0.13386512869E+02  0.36240348892E+01  0.19982101321E+02  0.24323172678E+02  0.51100000000E-03 0. -1.
        -11    1    3    3    0    0 -0.13682762550E+02  0.75385334503E+01  0.59312026173E+01  0.16710076072E+02  0.51100000000E-03 0.  1.
        -12    1    3    3    0    0 -0.14522639128E+02 -0.20334827404E+02 -0.19060836701E+02  0.31428136256E+02  0.00000000000E+00 0.  1.
</event>
<event>
 7    1  0.2656097E-013  0.7246164E+02  0.7816164E-02  0.1226708E+00
        -11   -1    0    0    0    0  0.00000000000E+00  0.00000000000E+00  0.45593999997E+02  0.45594000000E+02  0.51100000000E-03 0.  1.
         11   -1    0    0    0    0 -0.00000000000E+00 -0.00000000000E+00 -0.45593999997E+02  0.45594000000E+02  0.51100000000E-03 0. -1.
    9900012    2    1    2    0    0  0.11372181494E+02 -0.11725596899E+02 -0.91575373635E+01  0.72461638230E+02  0.70000088499E+02 0.  0.
        -12    1    1    2    0    0 -0.11372181494E+02  0.11725596899E+02  0.91575373635E+01  0.18726361770E+02  0.00000000000E+00 0.  1.
         11    1    3    3    0    0 -0.15441967114E+02 -0.19067607608E+02 -0.97994255999E+01  0.26420763626E+02  0.51100000000E-03 0. -1.
        -11    1    3    3    0    0  0.36721151717E+01 -0.13114039719E+02 -0.52529463438E+01  0.14596434946E+02  0.51100000000E-03 0.  1.
        -12    1    3    3    0    0  0.23142033437E+02  0.20456050428E+02  0.58948345803E+01  0.31444439658E+02  0.00000000000E+00 0.  1.
</event>
<event>
 7    1  0.2656097E-013  0.7246149E+02  0.7816164E-02  0.1226708E+00
        -11   -1    0    0    0    0  0.00000000000E+00  0.00000000000E+00  0.45593999997E+02  0.45594000000E+02  0.51100000000E-03 0.  1.
         11   -1    0    0    0    0 -0.00000000000E+00 -0.00000000000E+00 -0.45593999997E+02  0.45594000000E+02  0.51100000000E-03 0. -1.
    9900012    2    1    2    0    0 -0.10120450229E+02 -0.12925138463E+02 -0.90110651029E+01  0.72461494415E+02  0.69999901153E+02 0.  0.
        -12    1    1    2    0    0  0.10120450229E+02  0.12925138463E+02  0.90110651029E+01  0.18726505585E+02  0.00000000000E+00 0.  1.
         11    1    3    3    0    0  0.81707797259E+01 -0.88733129896E+01  0.66347043714E+01  0.13766503808E+02  0.51100000000E-03 0. -1.
        -11    1    3    3    0    0  0.10043596975E+02 -0.15265916988E+02  0.81724723583E+01  0.20017776260E+02  0.51100000000E-03 0.  1.
         12    1    3    3    0    0 -0.28334826930E+02  0.11214091514E+02 -0.23818241833E+02  0.38677214347E+02  0.00000000000E+00 0. -1.
</event>
<event>
 7    1  0.2656097E-013  0.7246162E+02  0.7816164E-02  0.1226708E+00
        -11   -1    0    0    0    0  0.00000000000E+00  0.00000000000E+00  0.45593999997E+02  0.45594000000E+02  0.51100000000E-03 0. -1.
         11   -1    0    0    0    0 -0.00000000000E+00 -0.00000000000E+00 -0.45593999997E+02  0.45594000000E+02  0.51100000000E-03 0.  1.
    9900012    2    1    2    0    0  0.81904242371E+01  0.16835665135E+02 -0.39346538834E+00  0.72461615278E+02  0.70000058600E+02 0.  0.
        -12    1    1    2    0    0 -0.81904242371E+01 -0.16835665135E+02  0.39346538834E+00  0.18726384722E+02  0.00000000000E+00 0.  1.
         11    1    3    3    0    0  0.54545246088E+01  0.31052339365E+01  0.22253734742E+01  0.66593245806E+01  0.51100000000E-03 0. -1.
        -11    1    3    3    0    0  0.29671216791E+02  0.45497719402E+01  0.13701955203E+02  0.32997350003E+02  0.51100000000E-03 0.  1.
         12    1    3    3    0    0 -0.26935317163E+02  0.91806592584E+01 -0.16320794066E+02  0.32804940695E+02  0.00000000000E+00 0. -1.
</event>
<event>
 7    1  0.2656097E-013  0.7246157E+02  0.7816164E-02  0.1226708E+00
        -11   -1    0    0    0    0  0.00000000000E+00  0.00000000000E+00  0.45593999997E+02  0.45594000000E+02  0.51100000000E-03 0.  1.
         11   -1    0    0    0    0 -0.00000000000E+00 -0.00000000000E+00 -0.45593999997E+02  0.45594000000E+02  0.51100000000E-03 0. -1.
    9900012    2    1    2    0    0 -0.91450854283E+01  0.92288488457E+01 -0.13486105456E+02  0.72461567375E+02  0.69999996197E+02 0.  0.
        -12    1    1    2    0    0  0.91450854283E+01 -0.92288488457E+01  0.13486105456E+02  0.18726432625E+02  0.00000000000E+00 0.  1.
         11    1    3    3    0    0  0.12994330915E+02 -0.13073474613E+02  0.26292123814E+01  0.18619375188E+02  0.51100000000E-03 0. -1.
        -11    1    3    3    0    0 -0.55658232094E+01  0.20052775604E+01  0.13234572551E+02  0.14496669857E+02  0.51100000000E-03 0.  1.
         12    1    3    3    0    0 -0.16573593134E+02  0.20297045898E+02 -0.29349890388E+02  0.39345522329E+02  0.00000000000E+00 0. -1.
</event>
<event>
 7    1  0.2656097E-013  0.7246156E+02  0.7816164E-02  0.1226708E+00
        -11   -1    0    0    0    0  0.00000000000E+00  0.00000000000E+00  0.45593999997E+02  0.45594000000E+02  0.51100000000E-03 0. -1.
         11   -1    0    0    0    0 -0.00000000000E+00 -0.00000000000E+00 -0.45593999997E+02  0.45594000000E+02  0.51100000000E-03 0.  1.
    9900012    2    1    2    0    0  0.14614431325E+02  0.18606958129E+00  0.11707405980E+02  0.72461559344E+02  0.69999985736E+02 0.  0.
        -12    1    1    2    0    0 -0.14614431325E+02 -0.18606958129E+00 -0.11707405980E+02  0.18726440656E+02  0.00000000000E+00 0.  1.
         11    1    3    3    0    0 -0.20264668383E+01 -0.11554168198E+02  0.12428379642E+02  0.17090055336E+02  0.51100000000E-03 0. -1.
        -11    1    3    3    0    0  0.27546140097E+01  0.19680762210E+01 -0.25284595076E+02  0.25510232668E+02  0.51100000000E-03 0.  1.
        -12    1    3    3    0    0  0.13886284153E+02  0.97721615582E+01  0.24563621414E+02  0.29861271341E+02  0.00000000000E+00 0.  1.
</event>
<event>
 7    1  0.2656097E-013  0.7246160E+02  0.7816164E-02  0.1226708E+00
        -11   -1    0    0    0    0  0.00000000000E+00  0.00000000000E+00  0.45593999997E+02  0.45594000000E+02  0.51100000000E-03 0.  1.
         11   -1    0    0    0    0 -0.00000000000E+00 -0.00000000000E+00 -0.45593999997E+02  0.45594000000E+02  0.51100000000E-03 0. -1.
    9900012    2    1    2    0    0 -0.12252946658E+02 -0.50034391745E+00 -0.14152492638E+02  0.72461599019E+02  0.70000037419E+02 0.  0.
        -12    1    1    2    0    0  0.12252946658E+02  0.50034391745E+00  0.14152492638E+02  0.18726400981E+02  0.00000000000E+00 0.  1.
         11    1    3    3    0    0  0.83809656656E+01 -0.12451885897E+02  0.40402083805E+01  0.15543916234E+02  0.51100000000E-03 0. -1.
        -11    1    3    3    0    0  0.69867521220E+01 -0.10501359348E+02  0.59104659421E+01  0.13929352508E+02  0.51100000000E-03 0.  1.
        -12    1    3    3    0    0 -0.27620664445E+02  0.22452901328E+02 -0.24103166961E+02  0.42988330277E+02  0.00000000000E+00 0.  1.
</event>
<event>
 7    1  0.2656097E-013  0.7246159E+02  0.7816164E-02  0.1226708E+00
        -11   -1    0    0    0    0  0.00000000000E+00  0.00000000000E+00  0.45593999997E+02  0.45594000000E+02  0.51100000000E-03 0.  1.
         11   -1    0    0    0    0 -0.00000000000E+00 -0.00000000000E+00 -0.45593999997E+02  0.45594000000E+02  0.51100000000E-03 0. -1.
    9900012    2    1    2    0    0  0.16055472430E+02  0.18589164879E+01 -0.94575205687E+01  0.72461589218E+02  0.70000024652E+02 0.  0.
        -12    1    1    2    0    0 -0.16055472430E+02 -0.18589164879E+01  0.94575205687E+01  0.18726410782E+02  0.00000000000E+00 0.  1.
         11    1    3    3    0    0 -0.11530633160E+02  0.81004548376E+01 -0.13675366830E+02  0.19636408222E+02  0.51100000000E-03 0. -1.
        -11    1    3    3    0    0  0.66799983373E+01  0.14630376218E+02  0.14390321006E+02  0.21581279503E+02  0.51100000000E-03 0.  1.
        -12    1    3    3    0    0  0.20906107252E+02 -0.20871914567E+02 -0.10172474744E+02  0.31243901494E+02  0.00000000000E+00 0.  1.
</event>
<event>
 7    1  0.2656097E-013  0.7246159E+02  0.7816164E-02  0.1226708E+00
        -11   -1    0    0    0    0  0.00000000000E+00  0.00000000000E+00  0.45593999997E+02  0.45594000000E+02  0.51100000000E-03 0. -1.
         11   -1    0    0    0    0 -0.00000000000E+00 -0.00000000000E+00 -0.45593999997E+02  0.45594000000E+02  0.51100000000E-03 0.  1.
    9900012    2    1    2    0    0  0.18199439742E+02 -0.27306716798E+01  0.34644491050E+01  0.72461585972E+02  0.70000020423E+02 0.  0.
        -12    1    1    2    0    0 -0.18199439742E+02  0.27306716798E+01 -0.34644491050E+01  0.18726414028E+02  0.00000000000E+00 0.  1.
         11    1    3    3    0    0 -0.12624110175E+02  0.60955697081E+01 -0.93302182477E+01  0.16839747640E+02  0.51100000000E-03 0.  1.
        -11    1    3    3    0    0  0.26024597343E+01 -0.98612716431E+01 -0.13578333930E+02  0.16982008940E+02  0.51100000000E-03 0. -1.
         12    1    3    3    0    0  0.28221090183E+02  0.10350302552E+01  0.26373001282E+02  0.38639829391E+02  0.00000000000E+00 0. -1.
</event>
<event>
 7    1  0.2656097E-013  0.7246155E+02  0.7816164E-02  0.1226708E+00
        -11   -1    0    0    0    0  0.00000000000E+00  0.00000000000E+00  0.45593999997E+02  0.45594000000E+02  0.51100000000E-03 0.  1.
         11   -1    0    0    0    0 -0.00000000000E+00 -0.00000000000E+00 -0.45593999997E+02  0.45594000000E+02  0.51100000000E-03 0. -1.
    9900012    2    1    2    0    0  0.21736266058E+01 -0.76237021380E+01 -0.16965679386E+02  0.72461554423E+02  0.69999979325E+02 0.  0.
        -12    1    1    2    0    0 -0.21736266058E+01  0.76237021380E+01  0.16965679386E+02  0.18726445577E+02  0.00000000000E+00 0.  1.
         11    1    3    3    0    0 -0.63217003654E+01 -0.44454313338E+01  0.61357409796E+01  0.98677795315E+01  0.51100000000E-03 0. -1.
        -11    1    3    3    0    0  0.51727366963E+01 -0.22434341203E+02  0.92396240998E+01  0.24807811752E+02  0.51100000000E-03 0.  1.
         12    1    3    3    0    0  0.33225902749E+01  0.19256070399E+02 -0.32341044465E+02  0.37785963140E+02  0.00000000000E+00 0. -1.
</event>
<event>
 7    1  0.2656097E-013  0.7246161E+02  0.7816164E-02  0.1226708E+00
        -11   -1    0    0    0    0  0.00000000000E+00  0.00000000000E+00  0.45593999997E+02  0.45594000000E+02  0.51100000000E-03 0.  1.
         11   -1    0    0    0    0 -0.00000000000E+00 -0.00000000000E+00 -0.45593999997E+02  0.45594000000E+02  0.51100000000E-03 0. -1.
    9900012    2    1    2    0    0  0.72261039443E+01  0.25291300380E+01 -0.17089897456E+02  0.72461610278E+02  0.70000052087E+02 0.  0.
        -12    1    1    2    0    0 -0.72261039443E+01 -0.25291300380E+01  0.17089897456E+02  0.18726389722E+02  0.00000000000E+00 0.  1.
         11    1    3    3    0    0 -0.75341765460E+01  0.20638590951E+02 -0.50631509290E+01  0.22546635009E+02  0.51100000000E-03 0. -1.
        -11    1    3    3    0    0  0.99124474382E+01  0.11393695205E+02 -0.13107024659E+02  0.19996674731E+02  0.51100000000E-03 0.  1.
        -12    1    3    3    0    0  0.48478330521E+01 -0.29503156118E+02  0.10802781323E+01  0.29918300538E+02  0.00000000000E+00 0.  1.
</event>
<event>
 7    1  0.2656097E-013  0.7246157E+02  0.7816164E-02  0.1226708E+00
        -11   -1    0    0    0    0  0.00000000000E+00  0.00000000000E+00  0.45593999997E+02  0.45594000000E+02  0.51100000000E-03 0.  1.
         11   -1    0    0    0    0 -0.00000000000E+00 -0.00000000000E+00 -0.45593999997E+02  0.45594000000E+02  0.51100000000E-03 0. -1.
    9900012    2    1    2    0    0  0.12441686481E+02 -0.68472311666E+01  0.12206523038E+02  0.72461565694E+02  0.69999994007E+02 0.  0.
        -12    1    1    2    0    0 -0.12441686481E+02  0.68472311666E+01 -0.12206523038E+02  0.18726434306E+02  0.00000000000E+00 0.  1.
         11    1    3    3    0    0 -0.59951665472E+01 -0.64632519605E+01 -0.10936351557E+02  0.14047043585E+02  0.51100000000E-03 0. -1.
        -11    1    3    3    0    0  0.11621208574E+02 -0.96657300566E+01 -0.13338281932E+02  0.20159082107E+02  0.51100000000E-03 0.  1.
        -12    1    3    3    0    0  0.68156444546E+01  0.92817508506E+01  0.36481156527E+02  0.38255440002E+02  0.00000000000E+00 0.  1.
</event>
<event>
 7    1  0.2656097E-013  0.7246180E+02  0.7816164E-02  0.1226707E+00
        -11   -1    0    0    0    0  0.00000000000E+00  0.00000000000E+00  0.45593999997E+02  0.45594000000E+02  0.51100000000E-03 0. -1.
         11   -1    0    0    0    0 -0.00000000000E+00 -0.00000000000E+00 -0.45593999997E+02  0.45594000000E+02  0.51100000000E-03 0.  1.
    9900012    2    1    2    0    0  0.62320654332E+01 -0.17425415735E+02  0.28612753092E+01  0.72461797783E+02  0.70000296345E+02 0.  0.
        -12    1    1    2    0    0 -0.62320654332E+01  0.17425415735E+02 -0.28612753092E+01  0.18726202217E+02  0.00000000000E+00 0.  1.
         11    1    3    3    0    0  0.10251350471E+02  0.16522901596E+02  0.48524592455E+01  0.20041028533E+02  0.51100000000E-03 0. -1.
        -11    1    3    3    0    0 -0.17423242571E+02 -0.21248228045E+01 -0.33222124856E+01  0.17863967916E+02  0.51100000000E-03 0.  1.
        -12    1    3    3    0    0  0.13403957533E+02 -0.31823494526E+02  0.13310285492E+01  0.34556801334E+02  0.00000000000E+00 0.  1.
</event>
<event>
 7    1  0.2656097E-013  0.7246157E+02  0.7816164E-02  0.1226708E+00
        -11   -1    0    0    0    0  0.00000000000E+00  0.00000000000E+00  0.45593999997E+02  0.45594000000E+02  0.51100000000E-03 0.  1.
         11   -1    0    0    0    0 -0.00000000000E+00 -0.00000000000E+00 -0.45593999997E+02  0.45594000000E+02  0.51100000000E-03 0. -1.
    9900012    2    1    2    0    0 -0.10298204607E+02 -0.15146580024E+02 -0.38996589277E+01  0.72461568297E+02  0.69999997399E+02 0.  0.
        -12    1    1    2    0    0  0.10298204607E+02  0.15146580024E+02  0.38996589277E+01  0.18726431703E+02  0.00000000000E+00 0.  1.
         11    1    3    3    0    0  0.14233045659E+02  0.16170192044E+02  0.82602024512E+00  0.21557759837E+02  0.51100000000E-03 0. -1.
        -11    1    3    3    0    0  0.25313266361E+01 -0.90358804857E+01  0.92403254656E+01  0.13169600057E+02  0.51100000000E-03 0.  1.
         12    1    3    3    0    0 -0.27062576903E+02 -0.22280891582E+02 -0.13966004638E+02  0.37734208404E+02  0.00000000000E+00 0. -1.
</event>
<event>
 7    1  0.2656097E-013  0.7246153E+02  0.7816164E-02  0.1226708E+00
        -11   -1    0    0    0    0  0.00000000000E+00  0.00000000000E+00  0.45593999997E+02  0.45594000000E+02  0.51100000000E-03 0.  1.
         11   -1    0    0    0    0 -0.00000000000E+00 -0.00000000000E+00 -0.45593999997E+02  0.45594000000E+02  0.51100000000E-03 0. -1.
    9900012    2    1    2    0    0 -0.50151809429E+01 -0.86921108565E+01 -0.15810622446E+02  0.72461531749E+02  0.69999949787E+02 0.  0.
        -12    1    1    2    0    0  0.50151809429E+01  0.86921108565E+01  0.15810622446E+02  0.18726468251E+02  0.00000000000E+00 0.  1.
         11    1    3    3    0    0  0.13442938929E+02 -0.25640715067E+02  0.80783633111E+01  0.30056926493E+02  0.51100000000E-03 0. -1.
        -11    1    3    3    0    0  0.23424237945E+01 -0.19499975778E+01  0.24324884908E+01  0.38995436023E+01  0.51100000000E-03 0.  1.
        -12    1    3    3    0    0 -0.20800543666E+02  0.18898601788E+02 -0.26321474248E+02  0.38505061653E+02  0.00000000000E+00 0.  1.
</event>
<event>
 7    1  0.2656097E-013  0.7246155E+02  0.7816164E-02  0.1226708E+00
        -11   -1    0    0    0    0  0.00000000000E+00  0.00000000000E+00  0.45593999997E+02  0.45594000000E+02  0.51100000000E-03 0. -1.
         11   -1    0    0    0    0 -0.00000000000E+00 -0.00000000000E+00 -0.45593999997E+02  0.45594000000E+02  0.51100000000E-03 0.  1.
    9900012    2    1    2    0    0 -0.10341200372E+02  0.31248479333E+01  0.15296230738E+02  0.72461554140E+02  0.69999978957E+02 0.  0.
        -12    1    1    2    0    0  0.10341200372E+02 -0.31248479333E+01 -0.15296230738E+02  0.18726445860E+02  0.00000000000E+00 0.  1.
         11    1    3    3    0    0 -0.17179724267E+02 -0.37201239307E+01  0.22680959423E+02  0.28695089624E+02  0.51100000000E-03 0. -1.
        -11    1    3    3    0    0 -0.94454681502E+01  0.15267591275E+02 -0.15498944400E+02  0.23717788466E+02  0.51100000000E-03 0.  1.
         12    1    3    3    0    0  0.16283992046E+02 -0.84226194113E+01  0.81142157156E+01  0.20048676050E+02  0.00000000000E+00 0. -1.
</event>
<event>
 7    1  0.2656097E-013  0.7246159E+02  0.7816164E-02  0.1226708E+00
        -11   -1    0    0    0    0  0.00000000000E+00  0.00000000000E+00  0.45593999997E+02  0.45594000000E+02  0.51100000000E-03 0.  1.
         11   -1    0    0    0    0 -0.00000000000E+00 -0.00000000000E+00 -0.45593999997E+02  0.45594000000E+02  0.51100000000E-03 0. -1.
    9900012    2    1    2    0    0 -0.11805803168E+02 -0.14299505061E+02  0.26125562085E+01  0.72461593955E+02  0.70000030822E+02 0.  0.
        -12    1    1    2    0    0  0.11805803168E+02  0.14299505061E+02 -0.26125562085E+01  0.18726406045E+02  0.00000000000E+00 0.  1.
         11    1    3    3    0    0 -0.99098013198E+01 -0.94645484347E+01 -0.23066239918E+02  0.26829708599E+02  0.51100000000E-03 0. -1.
        -11    1    3    3    0    0  0.12654868148E+02  0.95010213222E+01  0.50742035450E+01  0.16618141770E+02  0.51100000000E-03 0.  1.
         12    1    3    3    0    0 -0.14550869996E+02 -0.14335977949E+02  0.20604592582E+02  0.29013743586E+02  0.00000000000E+00 0. -1.
</event>
<event>
 7    1  0.2656097E-013  0.7246137E+02  0.7816164E-02  0.1226709E+00
        -11   -1    0    0    0    0  0.00000000000E+00  0.00000000000E+00  0.45593999997E+02  0.45594000000E+02  0.51100000000E-03 0. -1.
         11   -1    0    0    0    0 -0.00000000000E+00 -0.00000000000E+00 -0.45593999997E+02  0.45594000000E+02  0.51100000000E-03 0.  1.
    9900012    2    1    2    0    0  0.36872864030E+01 -0.17334044792E+02  0.60515720753E+01  0.72461368844E+02  0.69999737573E+02 0.  0.
        -12    1    1    2    0    0 -0.36872864030E+01  0.17334044792E+02 -0.60515720753E+01  0.18726631156E+02  0.00000000000E+00 0.  1.
         11    1    3    3    0    0  0.10572016048E+02 -0.25737513729E+02  0.11714157374E+02  0.30189544871E+02  0.51100000000E-03 0. -1.
        -11    1    3    3    0    0  0.16377675364E+02 -0.15750399728E+01 -0.63743929768E+00  0.16465580171E+02  0.51100000000E-03 0.  1.
        -12    1    3    3    0    0 -0.23262405009E+02  0.99785089101E+01 -0.50251460010E+01  0.25806243802E+02  0.00000000000E+00 0.  1.
</event>
<event>
 7    1  0.2656097E-013  0.7246146E+02  0.7816164E-02  0.1226708E+00
        -11   -1    0    0    0    0  0.00000000000E+00  0.00000000000E+00  0.45593999997E+02  0.45594000000E+02  0.51100000000E-03 0.  1.
         11   -1    0    0    0    0 -0.00000000000E+00 -0.00000000000E+00 -0.45593999997E+02  0.45594000000E+02  0.51100000000E-03 0. -1.
    9900012    2    1    2    0    0  0.52721769303E+01 -0.64571106966E+01 -0.16768812876E+02  0.72461462322E+02  0.69999859346E+02 0.  0.
        -12    1    1    2    0    0 -0.52721769303E+01  0.64571106966E+01  0.16768812876E+02  0.18726537678E+02  0.00000000000E+00 0.  1.
         11    1    3    3    0    0  0.36621819033E+01 -0.65009763567E+01 -0.25097051315E+02  0.26182747275E+02  0.51100000000E-03 0. -1.
        -11    1    3    3    0    0 -0.21135254025E+02 -0.59598064049E+01  0.30584447528E+01  0.22171430708E+02  0.51100000000E-03 0.  1.
        -12    1    3    3    0    0  0.22745249052E+02  0.60036720650E+01  0.52697936870E+01  0.24107284339E+02  0.00000000000E+00 0.  1.
</event>
<event>
 7    1  0.2656097E-013  0.7246168E+02  0.7816164E-02  0.1226708E+00
        -11   -1    0    0    0    0  0.00000000000E+00  0.00000000000E+00  0.45593999997E+02  0.45594000000E+02  0.51100000000E-03 0. -1.
         11   -1    0    0    0    0 -0.00000000000E+00 -0.00000000000E+00 -0.45593999997E+02  0.45594000000E+02  0.51100000000E-03 0.  1.
    9900012    2    1    2    0    0 -0.12983625091E+01 -0.10488341782E+02  0.15459113102E+02  0.72461675308E+02  0.70000136800E+02 0.  0.
        -12    1    1    2    0    0  0.12983625091E+01  0.10488341782E+02 -0.15459113102E+02  0.18726324692E+02  0.00000000000E+00 0.  1.
         11    1    3    3    0    0 -0.12553394456E+02  0.66840117664E+01  0.22525770426E+01  0.14399230162E+02  0.51100000000E-03 0. -1.
        -11    1    3    3    0    0 -0.14614359292E+02  0.91228127200E+01  0.12292641846E+02  0.21163984815E+02  0.51100000000E-03 0.  1.
        -12    1    3    3    0    0  0.25869391239E+02 -0.26295166269E+02  0.91389421343E+00  0.36898460331E+02  0.00000000000E+00 0.  1.
</event>
<event>
 7    1  0.2656097E-013  0.7246156E+02  0.7816164E-02  0.1226708E+00
        -11   -1    0    0    0    0  0.00000000000E+00  0.00000000000E+00  0.45593999997E+02  0.45594000000E+02  0.51100000000E-03 0.  1.
         11   -1    0    0    0    0 -0.00000000000E+00 -0.00000000000E+00 -0.45593999997E+02  0.45594000000E+02  0.51100000000E-03 0. -1.
    9900012    2    1    2    0    0  0.99177446039E+01 -0.14583960724E+02 -0.62949098199E+01  0.72461562590E+02  0.69999989963E+02 0.  0.
        -12    1    1    2    0    0 -0.99177446039E+01  0.14583960724E+02  0.62949098199E+01  0.18726437410E+02  0.00000000000E+00 0.  1.
         11    1    3    3    0    0  0.23241739574E+02 -0.26340623381E+02  0.10673454805E+02  0.36714159888E+02  0.51100000000E-03 0. -1.
        -11    1    3    3    0    0 -0.85367894632E+01 -0.68446150275E+01 -0.14162845190E+01  0.11033194973E+02  0.51100000000E-03 0.  1.
        -12    1    3    3    0    0 -0.47872055066E+01  0.18601277684E+02 -0.15552080106E+02  0.24714207729E+02  0.00000000000E+00 0.  1.
</event>
<event>
 7    1  0.2656097E-013  0.7246156E+02  0.7816164E-02  0.1226708E+00
        -11   -1    0    0    0    0  0.00000000000E+00  0.00000000000E+00  0.45593999997E+02  0.45594000000E+02  0.51100000000E-03 0.  1.
         11   -1    0    0    0    0 -0.00000000000E+00 -0.00000000000E+00 -0.45593999997E+02  0.45594000000E+02  0.51100000000E-03 0. -1.
    9900012    2    1    2    0    0 -0.61883502366E+01  0.10189870478E+02 -0.14441279536E+02  0.72461556300E+02  0.69999981770E+02 0.  0.
        -12    1    1    2    0    0  0.61883502366E+01 -0.10189870478E+02  0.14441279536E+02  0.18726443700E+02  0.00000000000E+00 0.  1.
         11    1    3    3    0    0  0.15781917032E+02 -0.84770551291E+01 -0.28071948561E+01  0.18133110932E+02  0.51100000000E-03 0. -1.
        -11    1    3    3    0    0  0.81547399625E+01  0.19181228988E+02 -0.12281609636E+02  0.24192090957E+02  0.51100000000E-03 0.  1.
        -12    1    3    3    0    0 -0.30125007231E+02 -0.51430338147E+00  0.64752495611E+00  0.30136354411E+02  0.00000000000E+00 0.  1.
</event>
<event>
 7    1  0.2656097E-013  0.7246159E+02  0.7816164E-02  0.1226708E+00
        -11   -1    0    0    0    0  0.00000000000E+00  0.00000000000E+00  0.45593999997E+02  0.45594000000E+02  0.51100000000E-03 0.  1.
         11   -1    0    0    0    0 -0.00000000000E+00 -0.00000000000E+00 -0.45593999997E+02  0.45594000000E+02  0.51100000000E-03 0. -1.
    9900012    2    1    2    0    0 -0.16050778372E+02 -0.62826864012E+01 -0.73197640160E+01  0.72461586034E+02  0.70000020504E+02 0.  0.
        -12    1    1    2    0    0  0.16050778372E+02  0.62826864012E+01  0.73197640160E+01  0.18726413966E+02  0.00000000000E+00 0.  1.
         11    1    3    3    0    0 -0.27830315777E+02  0.41245481192E+01  0.21206681618E+02  0.35231544373E+02  0.51100000000E-03 0. -1.
        -11    1    3    3    0    0  0.55337799428E+01 -0.60343053859E+01 -0.51967751641E+00  0.82040006660E+01  0.51100000000E-03 0.  1.
        -12    1    3    3    0    0  0.62457574617E+01 -0.43729291345E+01 -0.28006768117E+02  0.29026040995E+02  0.00000000000E+00 0.  1.
</event>
<event>
 7    1  0.2656097E-013  0.7246158E+02  0.7816164E-02  0.1226708E+00
        -11   -1    0    0    0    0  0.00000000000E+00  0.00000000000E+00  0.45593999997E+02  0.45594000000E+02  0.51100000000E-03 0. -1.
         11   -1    0    0    0    0 -0.00000000000E+00 -0.00000000000E+00 -0.45593999997E+02  0.45594000000E+02  0.51100000000E-03 0.  1.
    9900012    2    1    2    0    0  0.49548989027E+01 -0.19171744492E+01  0.17956952545E+02  0.72461582144E+02  0.70000015436E+02 0.  0.
        -12    1    1    2    0    0 -0.49548989027E+01  0.19171744492E+01 -0.17956952545E+02  0.18726417856E+02  0.00000000000E+00 0.  1.
         11    1    3    3    0    0  0.11337509627E+01  0.23705813415E+01 -0.84640506987E+00  0.27606971846E+01  0.51100000000E-03 0. -1.
        -11    1    3    3    0    0  0.18186439924E+02  0.10123183995E+02 -0.18084510380E+02  0.27573084108E+02  0.51100000000E-03 0.  1.
         12    1    3    3    0    0 -0.14365291984E+02 -0.14410939786E+02  0.36887867995E+02  0.42127800851E+02  0.00000000000E+00 0. -1.
</event>
<event>
 7    1  0.2656097E-013  0.7246161E+02  0.7816164E-02  0.1226708E+00
        -11   -1    0    0    0    0  0.00000000000E+00  0.00000000000E+00  0.45593999997E+02  0.45594000000E+02  0.51100000000E-03 0. -1.
         11   -1    0    0    0    0 -0.00000000000E+00 -0.00000000000E+00 -0.45593999997E+02  0.45594000000E+02  0.51100000000E-03 0.  1.
    9900012    2    1    2    0    0  0.34588922261E+01  0.47648506129E+01  0.17776671609E+02  0.72461607120E+02  0.70000047972E+02 0.  0.
        -12    1    1    2    0    0 -0.34588922261E+01 -0.47648506129E+01 -0.17776671609E+02  0.18726392880E+02  0.00000000000E+00 0.  1.
         11    1    3    3    0    0  0.89105077857E+01 -0.91484683409E+01  0.23955917814E+02  0.27147331739E+02  0.51100000000E-03 0. -1.
        -11    1    3    3    0    0  0.61384937520E+01 -0.84990949698E+01  0.10681854442E+02  0.14967222035E+02  0.51100000000E-03 0.  1.
        -12    1    3    3    0    0 -0.11590109312E+02  0.22412413924E+02 -0.16861100648E+02  0.30347053346E+02  0.00000000000E+00 0.  1.
</event>
<event>
 7    1  0.2931712E-013  0.7246164E+02  0.7816164E-02  0.1226708E+00
        -11   -1    0    0    0    0  0.00000000000E+00  0.00000000000E+00  0.45593999997E+02  0.45594000000E+02  0.51100000000E-03 0. -1.
         11   -1    0    0    0    0 -0.00000000000E+00 -0.00000000000E+00 -0.45593999997E+02  0.45594000000E+02  0.51100000000E-03 0.  1.
    9900012    2    1    2    0    0  0.79403494934E+01  0.10270110373E+02  0.13496376797E+02  0.72461641470E+02  0.70000092719E+02 0.  0.
        -12    1    1    2    0    0 -0.79403494934E+01 -0.10270110373E+02 -0.13496376797E+02  0.18726358530E+02  0.00000000000E+00 0.  1.
         11    1    3    3    0    0 -0.44913245471E+00  0.10549130441E+02  0.34698987533E+02  0.36269899491E+02  0.51100000000E-03 0. -1.
        -11    1    3    3    0    0 -0.80027455666E+01  0.76706642329E+01 -0.72688506499E+01  0.13255912508E+02  0.51100000000E-03 0.  1.
        -12    1    3    3    0    0  0.16392227515E+02 -0.79496843010E+01 -0.13933760086E+02  0.22935829471E+02  0.00000000000E+00 0.  1.
</event>
<event>
 7    1  0.2656097E-013  0.7246152E+02  0.7816164E-02  0.1226708E+00
        -11   -1    0    0    0    0  0.00000000000E+00  0.00000000000E+00  0.45593999997E+02  0.45594000000E+02  0.51100000000E-03 0.  1.
         11   -1    0    0    0    0 -0.00000000000E+00 -0.00000000000E+00 -0.45593999997E+02  0.45594000000E+02  0.51100000000E-03 0. -1.
    9900012    2    1    2    0    0  0.16616735270E+02 -0.64219801106E+00 -0.86112058645E+01  0.72461516728E+02  0.69999930219E+02 0.  0.
        -12    1    1    2    0    0 -0.16616735270E+02  0.64219801106E+00  0.86112058645E+01  0.18726483272E+02  0.00000000000E+00 0.  1.
         11    1    3    3    0    0  0.27739658583E+02  0.13051109274E+02  0.83997302414E+01  0.31786405585E+02  0.51100000000E-03 0. -1.
        -11    1    3    3    0    0  0.32517283822E+01 -0.15351960654E+02  0.30038514486E+01  0.15977470300E+02  0.51100000000E-03 0.  1.
        -12    1    3    3    0    0 -0.14374651696E+02  0.16586533685E+01 -0.20014787554E+02  0.24697640843E+02  0.00000000000E+00 0.  1.
</event>
<event>
 7    1  0.2656097E-013  0.7246164E+02  0.7816164E-02  0.1226708E+00
        -11   -1    0    0    0    0  0.00000000000E+00  0.00000000000E+00  0.45593999997E+02  0.45594000000E+02  0.51100000000E-03 0.  1.
         11   -1    0    0    0    0 -0.00000000000E+00 -0.00000000000E+00 -0.45593999997E+02  0.45594000000E+02  0.51100000000E-03 0. -1.
    9900012    2    1    2    0    0  0.67848666316E+01  0.14643104727E+01 -0.17392470627E+02  0.72461637436E+02  0.70000087465E+02 0.  0.
        -12    1    1    2    0    0 -0.67848666316E+01 -0.14643104727E+01  0.17392470627E+02  0.18726362564E+02  0.00000000000E+00 0.  1.
         11    1    3    3    0    0  0.10483041152E+02  0.10389998684E+02 -0.22789665262E+01  0.14934520854E+02  0.51100000000E-03 0. -1.
        -11    1    3    3    0    0  0.57733160285E+01 -0.17155761516E+02  0.15886575895E+02  0.24083908011E+02  0.51100000000E-03 0.  1.
         12    1    3    3    0    0 -0.94714905489E+01  0.82300733053E+01 -0.31000079995E+02  0.33443208571E+02  0.00000000000E+00 0. -1.
</event>
<event>
 7    1  0.2656097E-013  0.7246159E+02  0.7816164E-02  0.1226708E+00
        -11   -1    0    0    0    0  0.00000000000E+00  0.00000000000E+00  0.45593999997E+02  0.45594000000E+02  0.51100000000E-03 0. -1.
         11   -1    0    0    0    0 -0.00000000000E+00 -0.00000000000E+00 -0.45593999997E+02  0.45594000000E+02  0.51100000000E-03 0.  1.
    9900012    2    1    2    0    0  0.67902837241E+01  0.91551002863E+01  0.14857817660E+02  0.72461586571E+02  0.70000021203E+02 0.  0.
        -12    1    1    2    0    0 -0.67902837241E+01 -0.91551002863E+01 -0.14857817660E+02  0.18726413429E+02  0.00000000000E+00 0.  1.
         11    1    3    3    0    0 -0.22573930393E+01 -0.83459823836E+01  0.18891027852E+02  0.20775518738E+02  0.51100000000E-03 0. -1.
        -11    1    3    3    0    0 -0.63640721690E+01  0.23804501866E+02  0.13005622014E+02  0.27862195317E+02  0.51100000000E-03 0.  1.
         12    1    3    3    0    0  0.15411748932E+02 -0.63034191959E+01 -0.17038832206E+02  0.23823872516E+02  0.00000000000E+00 0. -1.
</event>
<event>
 7    1  0.2656097E-013  0.7246159E+02  0.7816164E-02  0.1226708E+00
        -11   -1    0    0    0    0  0.00000000000E+00  0.00000000000E+00  0.45593999997E+02  0.45594000000E+02  0.51100000000E-03 0. -1.
         11   -1    0    0    0    0 -0.00000000000E+00 -0.00000000000E+00 -0.45593999997E+02  0.45594000000E+02  0.51100000000E-03 0.  1.
    9900012    2    1    2    0    0 -0.31953712934E+00 -0.12793958244E+02  0.13670810103E+02  0.72461587626E+02  0.70000022578E+02 0.  0.
        -12    1    1    2    0    0  0.31953712934E+00  0.12793958244E+02 -0.13670810103E+02  0.18726412374E+02  0.00000000000E+00 0.  1.
         11    1    3    3    0    0 -0.12647801229E+02 -0.91234461643E+01 -0.91169272924E+01  0.18064398948E+02  0.51100000000E-03 0. -1.
        -11    1    3    3    0    0  0.10037555373E+02 -0.10297412071E+02 -0.12111228885E+02  0.18800826540E+02  0.51100000000E-03 0.  1.
         12    1    3    3    0    0  0.22907087263E+01  0.66268999912E+01  0.34898966281E+02  0.35596362138E+02  0.00000000000E+00 0. -1.
</event>
<event>
 7    1  0.2656097E-013  0.7246152E+02  0.7816164E-02  0.1226708E+00
        -11   -1    0    0    0    0  0.00000000000E+00  0.00000000000E+00  0.45593999997E+02  0.45594000000E+02  0.51100000000E-03 0.  1.
         11   -1    0    0    0    0 -0.00000000000E+00 -0.00000000000E+00 -0.45593999997E+02  0.45594000000E+02  0.51100000000E-03 0. -1.
    9900012    2    1    2    0    0 -0.14464115163E+02  0.95172499047E+01 -0.71338770212E+01  0.72461524770E+02  0.69999940696E+02 0.  0.
        -12    1    1    2    0    0  0.14464115163E+02 -0.95172499047E+01  0.71338770212E+01  0.18726475230E+02  0.00000000000E+00 0.  1.
         11    1    3    3    0    0 -0.17298970594E+02  0.23780946092E+02  0.35421374232E+01  0.29619833194E+02  0.51100000000E-03 0. -1.
        -11    1    3    3    0    0 -0.10319308867E+02  0.13333143618E+00  0.10034744239E+02  0.14394513016E+02  0.51100000000E-03 0.  1.
        -12    1    3    3    0    0  0.13154164298E+02 -0.14397027623E+02 -0.20710758684E+02  0.28447178560E+02  0.00000000000E+00 0.  1.
</event>
<event>
 7    1  0.2656097E-013  0.7246160E+02  0.7816164E-02  0.1226708E+00
        -11   -1    0    0    0    0  0.00000000000E+00  0.00000000000E+00  0.45593999997E+02  0.45594000000E+02  0.51100000000E-03 0. -1.
         11   -1    0    0    0    0 -0.00000000000E+00 -0.00000000000E+00 -0.45593999997E+02  0.45594000000E+02  0.51100000000E-03 0.  1.
    9900012    2    1    2    0    0  0.16462060275E+02  0.89186574677E+01  0.36922933204E+00  0.72461595919E+02  0.70000033380E+02 0.  0.
        -12    1    1    2    0    0 -0.16462060275E+02 -0.89186574677E+01 -0.36922933204E+00  0.18726404081E+02  0.00000000000E+00 0.  1.
         11    1    3    3    0    0 -0.12168743104E+02  0.16437881282E+02  0.13884005330E+01  0.20499022076E+02  0.51100000000E-03 0. -1.
        -11    1    3    3    0    0  0.22680699752E+02  0.15901040013E+02  0.97145779043E+00  0.27716438178E+02  0.51100000000E-03 0.  1.
        -12    1    3    3    0    0  0.59501036269E+01 -0.23420263827E+02 -0.19906289914E+01  0.24246135665E+02  0.00000000000E+00 0.  1.
</event>
<event>
 7    1  0.2656097E-013  0.7246157E+02  0.7816164E-02  0.1226708E+00
        -11   -1    0    0    0    0  0.00000000000E+00  0.00000000000E+00  0.45593999997E+02  0.45594000000E+02  0.51100000000E-03 0.  1.
         11   -1    0    0    0    0 -0.00000000000E+00 -0.00000000000E+00 -0.45593999997E+02  0.45594000000E+02  0.51100000000E-03 0. -1.
    9900012    2    1    2    0    0 -0.13460721726E+02  0.86281055263E+01 -0.97490571511E+01  0.72461565483E+02  0.69999993733E+02 0.  0.
        -12    1    1    2    0    0  0.13460721726E+02 -0.86281055263E+01  0.97490571511E+01  0.18726434517E+02  0.00000000000E+00 0.  1.
         11    1    3    3    0    0 -0.66167779932E+01 -0.57308788240E+01 -0.70570165693E+01  0.11243940867E+02  0.51100000000E-03 0. -1.
        -11    1    3    3    0    0 -0.54537104714E+01 -0.22424828023E+02  0.49965385674E+01  0.23613158783E+02  0.51100000000E-03 0.  1.
         12    1    3    3    0    0 -0.13902332618E+01  0.36783812374E+02 -0.76885791491E+01  0.37604465833E+02  0.00000000000E+00 0. -1.
</event>
<event>
 7    1  0.2656097E-013  0.7246154E+02  0.7816164E-02  0.1226708E+00
        -11   -1    0    0    0    0  0.00000000000E+00  0.00000000000E+00  0.45593999997E+02  0.45594000000E+02  0.51100000000E-03 0.  1.
         11   -1    0    0    0    0 -0.00000000000E+00 -0.00000000000E+00 -0.45593999997E+02  0.45594000000E+02  0.51100000000E-03 0. -1.
    9900012    2    1    2    0    0 -0.13939967116E+02 -0.89281840185E+01 -0.87547287663E+01  0.72461536670E+02  0.69999956199E+02 0.  0.
        -12    1    1    2    0    0  0.13939967116E+02  0.89281840185E+01  0.87547287663E+01  0.18726463330E+02  0.00000000000E+00 0.  1.
         11    1    3    3    0    0 -0.17632330404E+02  0.85502407828E+01 -0.14360812569E+02  0.24294827244E+02  0.51100000000E-03 0. -1.
        -11    1    3    3    0    0  0.20211802917E+02  0.11721129792E+01 -0.53635230417E+01  0.20944168775E+02  0.51100000000E-03 0.  1.
         12    1    3    3    0    0 -0.16519439629E+02 -0.18650537781E+02  0.10969606845E+02  0.27222540651E+02  0.00000000000E+00 0. -1.
</event>
<event>
 7    1  0.2656097E-013  0.7246152E+02  0.7816164E-02  0.1226708E+00
        -11   -1    0    0    0    0  0.00000000000E+00  0.00000000000E+00  0.45593999997E+02  0.45594000000E+02  0.51100000000E-03 0. -1.
         11   -1    0    0    0    0 -0.00000000000E+00 -0.00000000000E+00 -0.45593999997E+02  0.45594000000E+02  0.51100000000E-03 0.  1.
    9900012    2    1    2    0    0 -0.10478514882E+01 -0.76935774839E+01  0.17040885856E+02  0.72461523610E+02  0.69999939185E+02 0.  0.
        -12    1    1    2    0    0  0.10478514882E+01  0.76935774839E+01 -0.17040885856E+02  0.18726476390E+02  0.00000000000E+00 0.  1.
         11    1    3    3    0    0 -0.39863040847E+01  0.20197113351E+02  0.82192080824E+01  0.22166853402E+02  0.51100000000E-03 0. -1.
        -11    1    3    3    0    0  0.18375400630E+01  0.10288041871E+02 -0.19035276444E+01  0.10622795149E+02  0.51100000000E-03 0.  1.
         12    1    3    3    0    0  0.11009125335E+01 -0.38178732706E+02  0.10725205418E+02  0.39671875059E+02  0.00000000000E+00 0. -1.
</event>
<event>
 7    1  0.2656097E-013  0.7246154E+02  0.7816164E-02  0.1226708E+00
        -11   -1    0    0    0    0  0.00000000000E+00  0.00000000000E+00  0.45593999997E+02  0.45594000000E+02  0.51100000000E-03 0.  1.
         11   -1    0    0    0    0 -0.00000000000E+00 -0.00000000000E+00 -0.45593999997E+02  0.45594000000E+02  0.51100000000E-03 0. -1.
    9900012    2    1    2    0    0  0.87237757829E+01 -0.85304430727E+01 -0.14205899086E+02  0.72461540330E+02  0.69999960966E+02 0.  0.
        -12    1    1    2    0    0 -0.87237757829E+01  0.85304430727E+01  0.14205899086E+02  0.18726459670E+02  0.00000000000E+00 0.  1.
         11    1    3    3    0    0  0.12683977113E+02  0.47319487080E+01 -0.85222320273E+01  0.15996970118E+02  0.51100000000E-03 0. -1.
        -11    1    3    3    0    0 -0.50509304148E+01  0.19292789669E+02  0.75242356278E+01  0.21315200053E+02  0.51100000000E-03 0.  1.
         12    1    3    3    0    0  0.10907290847E+01 -0.32555181450E+02 -0.13207902687E+02  0.35149370158E+02  0.00000000000E+00 0. -1.
</event>
<event>
 7    1  0.2656097E-013  0.7246158E+02  0.7816164E-02  0.1226708E+00
        -11   -1    0    0    0    0  0.00000000000E+00  0.00000000000E+00  0.45593999997E+02  0.45594000000E+02  0.51100000000E-03 0.  1.
         11   -1    0    0    0    0 -0.00000000000E+00 -0.00000000000E+00 -0.45593999997E+02  0.45594000000E+02  0.51100000000E-03 0. -1.
    9900012    2    1    2    0    0  0.62010071110E+01 -0.60141446856E+01 -0.16614941621E+02  0.72461582549E+02  0.70000015963E+02 0.  0.
        -12    1    1    2    0    0 -0.62010071110E+01  0.60141446856E+01  0.16614941621E+02  0.18726417451E+02  0.00000000000E+00 0.  1.
         11    1    3    3    0    0 -0.14530457813E+02 -0.70194186148E+01  0.15140509058E+02  0.22127843472E+02  0.51100000000E-03 0. -1.
        -11    1    3    3    0    0  0.78849273852E+01 -0.43089024920E+01  0.55231398368E+01  0.10547217381E+02  0.51100000000E-03 0.  1.
         12    1    3    3    0    0  0.12846537539E+02  0.53141764212E+01 -0.37278590516E+02  0.39786521695E+02  0.00000000000E+00 0. -1.
</event>
<event>
 7    1  0.2656097E-013  0.7246178E+02  0.7816164E-02  0.1226707E+00
        -11   -1    0    0    0    0  0.00000000000E+00  0.00000000000E+00  0.45593999997E+02  0.45594000000E+02  0.51100000000E-03 0.  1.
         11   -1    0    0    0    0 -0.00000000000E+00 -0.00000000000E+00 -0.45593999997E+02  0.45594000000E+02  0.51100000000E-03 0. -1.
    9900012    2    1    2    0    0  0.13247403715E+02 -0.42227806275E+00 -0.13228723283E+02  0.72461784588E+02  0.70000279157E+02 0.  0.
        -12    1    1    2    0    0 -0.13247403715E+02  0.42227806275E+00  0.13228723283E+02  0.18726215412E+02  0.00000000000E+00 0.  1.
         11    1    3    3    0    0  0.12733211080E+02  0.88571055433E+01 -0.13824044478E+02  0.20777083265E+02  0.51100000000E-03 0. -1.
        -11    1    3    3    0    0  0.17884598076E+02  0.10591421466E+02 -0.10219670006E+02  0.23162010109E+02  0.51100000000E-03 0.  1.
         12    1    3    3    0    0 -0.17370405440E+02 -0.19870805072E+02  0.10814991201E+02  0.28522691214E+02  0.00000000000E+00 0. -1.
</event>
<event>
 7    1  0.2656097E-013  0.7246153E+02  0.7816164E-02  0.1226708E+00
        -11   -1    0    0    0    0  0.00000000000E+00  0.00000000000E+00  0.45593999997E+02  0.45594000000E+02  0.51100000000E-03 0. -1.
         11   -1    0    0    0    0 -0.00000000000E+00 -0.00000000000E+00 -0.45593999997E+02  0.45594000000E+02  0.51100000000E-03 0.  1.
    9900012    2    1    2    0    0 -0.14642827705E+02 -0.61060142331E+01  0.99491101649E+01  0.72461531937E+02  0.69999950033E+02 0.  0.
        -12    1    1    2    0    0  0.14642827705E+02  0.61060142331E+01 -0.99491101649E+01  0.18726468063E+02  0.00000000000E+00 0.  1.
         11    1    3    3    0    0  0.48545111079E+01  0.11632827589E+02  0.73540502113E+00  0.12626550464E+02  0.51100000000E-03 0. -1.
        -11    1    3    3    0    0  0.82749143928E+01 -0.27265254609E+02 -0.16199502992E+01  0.28539315975E+02  0.51100000000E-03 0.  1.
         12    1    3    3    0    0 -0.27772253206E+02  0.95264127862E+01  0.10833655443E+02  0.31295665498E+02  0.00000000000E+00 0. -1.
</event>
<event>
 7    1  0.2656097E-013  0.7246154E+02  0.7816164E-02  0.1226708E+00
        -11   -1    0    0    0    0  0.00000000000E+00  0.00000000000E+00  0.45593999997E+02  0.45594000000E+02  0.51100000000E-03 0.  1.
         11   -1    0    0    0    0 -0.00000000000E+00 -0.00000000000E+00 -0.45593999997E+02  0.45594000000E+02  0.51100000000E-03 0. -1.
    9900012    2    1    2    0    0 -0.28609035003E+01  0.53450772469E+01 -0.17717945324E+02  0.72461542617E+02  0.69999963945E+02 0.  0.
        -12    1    1    2    0    0  0.28609035003E+01 -0.53450772469E+01  0.17717945324E+02  0.18726457383E+02  0.00000000000E+00 0.  1.
         11    1    3    3    0    0 -0.18410788221E+02 -0.23708109922E+02 -0.68018511182E+01  0.30778186722E+02  0.51100000000E-03 0. -1.
        -11    1    3    3    0    0  0.51099858720E+01 -0.30901889624E+01 -0.39974941517E+01  0.71861800137E+01  0.51100000000E-03 0.  1.
        -12    1    3    3    0    0  0.10439898849E+02  0.32143376131E+02 -0.69186000542E+01  0.34497175881E+02  0.00000000000E+00 0.  1.
</event>
<event>
 7    1  0.2656097E-013  0.7246170E+02  0.7816164E-02  0.1226708E+00
        -11   -1    0    0    0    0  0.00000000000E+00  0.00000000000E+00  0.45593999997E+02  0.45594000000E+02  0.51100000000E-03 0.  1.
         11   -1    0    0    0    0 -0.00000000000E+00 -0.00000000000E+00 -0.45593999997E+02  0.45594000000E+02  0.51100000000E-03 0. -1.
    9900012    2    1    2    0    0 -0.62732747630E+01  0.86113343129E+01 -0.15400170626E+02  0.72461700040E+02  0.70000169017E+02 0.  0.
        -12    1    1    2    0    0  0.62732747630E+01 -0.86113343129E+01  0.15400170626E+02  0.18726299960E+02  0.00000000000E+00 0.  1.
         11    1    3    3    0    0  0.29521413606E+01 -0.32502326268E+01  0.52898322293E+01  0.68746982491E+01  0.51100000000E-03 0. -1.
        -11    1    3    3    0    0 -0.10008690213E+02  0.11867737942E+02  0.19760143035E+02  0.25129272505E+02  0.51100000000E-03 0.  1.
         12    1    3    3    0    0  0.78327408930E+00 -0.61710020236E-02 -0.40450145890E+02  0.40457729285E+02  0.00000000000E+00 0. -1.
</event>
<event>
 7    1  0.2656097E-013  0.7246145E+02  0.7816164E-02  0.1226708E+00
        -11   -1    0    0    0    0  0.00000000000E+00  0.00000000000E+00  0.45593999997E+02  0.45594000000E+02  0.51100000000E-03 0.  1.
         11   -1    0    0    0    0 -0.00000000000E+00 -0.00000000000E+00 -0.45593999997E+02  0.45594000000E+02  0.51100000000E-03 0. -1.
    9900012    2    1    2    0    0 -0.14952784280E+02 -0.11240706981E+02  0.86275874950E+00  0.72461451898E+02  0.69999845766E+02 0.  0.
        -12    1    1    2    0    0  0.14952784280E+02  0.11240706981E+02 -0.86275874950E+00  0.18726548102E+02  0.00000000000E+00 0.  1.
         11    1    3    3    0    0  0.20120395342E+00 -0.55722906543E+01 -0.74347817528E+01  0.92933786181E+01  0.51100000000E-03 0. -1.
        -11    1    3    3    0    0 -0.13814887549E+02 -0.32202332941E+02  0.10305609848E+02  0.36524607588E+02  0.51100000000E-03 0.  1.
         12    1    3    3    0    0 -0.13391006846E+01  0.26533916615E+02 -0.20080693461E+01  0.26643465691E+02  0.00000000000E+00 0. -1.
</event>
<event>
 7    1  0.2656097E-013  0.7246155E+02  0.7816164E-02  0.1226708E+00
        -11   -1    0    0    0    0  0.00000000000E+00  0.00000000000E+00  0.45593999997E+02  0.45594000000E+02  0.51100000000E-03 0.  1.
         11   -1    0    0    0    0 -0.00000000000E+00 -0.00000000000E+00 -0.45593999997E+02  0.45594000000E+02  0.51100000000E-03 0. -1.
    9900012    2    1    2    0    0  0.12099411791E+01  0.18323961885E+02  0.36671889535E+01  0.72461553149E+02  0.69999977665E+02 0.  0.
        -12    1    1    2    0    0 -0.12099411791E+01 -0.18323961885E+02 -0.36671889535E+01  0.18726446851E+02  0.00000000000E+00 0.  1.
         11    1    3    3    0    0 -0.62210934744E+01 -0.11976616904E+02 -0.22247290258E+01  0.13678113027E+02  0.51100000000E-03 0. -1.
        -11    1    3    3    0    0 -0.15916172391E+02 -0.45124806773E+01  0.24708998206E+01  0.16726995296E+02  0.51100000000E-03 0.  1.
        -12    1    3    3    0    0  0.23347207044E+02  0.34813059467E+02  0.34210181588E+01  0.42056444826E+02  0.00000000000E+00 0.  1.
</event>
<event>
 7    1  0.2656097E-013  0.7246157E+02  0.7816164E-02  0.1226708E+00
        -11   -1    0    0    0    0  0.00000000000E+00  0.00000000000E+00  0.45593999997E+02  0.45594000000E+02  0.51100000000E-03 0.  1.
         11   -1    0    0    0    0 -0.00000000000E+00 -0.00000000000E+00 -0.45593999997E+02  0.45594000000E+02  0.51100000000E-03 0. -1.
    9900012    2    1    2    0    0  0.61388121730E+01 -0.17659178860E+02  0.10711939644E+01  0.72461572967E+02  0.70000003482E+02 0.  0.
        -12    1    1    2    0    0 -0.61388121730E+01  0.17659178860E+02 -0.10711939644E+01  0.18726427033E+02  0.00000000000E+00 0.  1.
         11    1    3    3    0    0 -0.13990675479E+02 -0.18705758276E+02  0.17924138389E+02  0.29443490457E+02  0.51100000000E-03 0. -1.
        -11    1    3    3    0    0 -0.58181336898E+01 -0.93417915283E+01 -0.14375296651E+01  0.11098929696E+02  0.51100000000E-03 0.  1.
        -12    1    3    3    0    0  0.25947621342E+02  0.10388370945E+02 -0.15415414760E+02  0.31919152815E+02  0.00000000000E+00 0.  1.
</event>
<event>
 7    1  0.2656097E-013  0.7246161E+02  0.7816164E-02  0.1226708E+00
        -11   -1    0    0    0    0  0.00000000000E+00  0.00000000000E+00  0.45593999997E+02  0.45594000000E+02  0.51100000000E-03 0. -1.
         11   -1    0    0    0    0 -0.00000000000E+00 -0.00000000000E+00 -0.45593999997E+02  0.45594000000E+02  0.51100000000E-03 0.  1.
    9900012    2    1    2    0    0  0.12991744639E+02 -0.34108023214E+01  0.13048324312E+02  0.72461607700E+02  0.70000048727E+02 0.  0.
        -12    1    1    2    0    0 -0.12991744639E+02  0.34108023214E+01 -0.13048324312E+02  0.18726392300E+02  0.00000000000E+00 0.  1.
         11    1    3    3    0    0  0.17600887192E+01  0.17468121858E+02  0.27924847276E+02  0.32985304140E+02  0.51100000000E-03 0. -1.
        -11    1    3    3    0    0  0.75569731220E+00 -0.36784507311E+00  0.73921057588E+01  0.74397322691E+01  0.51100000000E-03 0.  1.
        -12    1    3    3    0    0  0.10475958608E+02 -0.20511079107E+02 -0.22268628723E+02  0.32036571291E+02  0.00000000000E+00 0.  1.
</event>
<event>
 7    1  0.2656097E-013  0.7246163E+02  0.7816164E-02  0.1226708E+00
        -11   -1    0    0    0    0  0.00000000000E+00  0.00000000000E+00  0.45593999997E+02  0.45594000000E+02  0.51100000000E-03 0. -1.
         11   -1    0    0    0    0 -0.00000000000E+00 -0.00000000000E+00 -0.45593999997E+02  0.45594000000E+02  0.51100000000E-03 0.  1.
    9900012    2    1    2    0    0  0.18021468546E+02  0.46601091005E+01  0.20461959409E+01  0.72461631873E+02  0.70000080218E+02 0.  0.
        -12    1    1    2    0    0 -0.18021468546E+02 -0.46601091005E+01 -0.20461959409E+01  0.18726368127E+02  0.00000000000E+00 0.  1.
         11    1    3    3    0    0  0.33652068766E+01  0.10215860271E+02  0.30599678482E+02  0.32434992552E+02  0.51100000000E-03 0. -1.
        -11    1    3    3    0    0  0.98254665003E+01  0.91695842966E+00  0.49072355654E+00  0.98803549825E+01  0.51100000000E-03 0.  1.
        -12    1    3    3    0    0  0.48307951695E+01 -0.64727095999E+01 -0.29044206098E+02  0.30146284338E+02  0.00000000000E+00 0.  1.
</event>
<event>
 7    1  0.2656097E-013  0.7246163E+02  0.7816164E-02  0.1226708E+00
        -11   -1    0    0    0    0  0.00000000000E+00  0.00000000000E+00  0.45593999997E+02  0.45594000000E+02  0.51100000000E-03 0.  1.
         11   -1    0    0    0    0 -0.00000000000E+00 -0.00000000000E+00 -0.45593999997E+02  0.45594000000E+02  0.51100000000E-03 0. -1.
    9900012    2    1    2    0    0  0.17872139187E+02  0.49023813575E+00 -0.55698547295E+01  0.72461628909E+02  0.70000076356E+02 0.  0.
        -12    1    1    2    0    0 -0.17872139187E+02 -0.49023813575E+00  0.55698547295E+01  0.18726371091E+02  0.00000000000E+00 0.  1.
         11    1    3    3    0    0 -0.13381734505E+02  0.14151486104E+02  0.54640843845E+01  0.20228484761E+02  0.51100000000E-03 0. -1.
        -11    1    3    3    0    0  0.18226028419E+02  0.11501553624E+02  0.70313461034E+00  0.21563122368E+02  0.51100000000E-03 0.  1.
         12    1    3    3    0    0  0.13027845273E+02 -0.25162801591E+02 -0.11737073724E+02  0.30670021780E+02  0.00000000000E+00 0. -1.
</event>
<event>
 7    1  0.2656097E-013  0.7246160E+02  0.7816164E-02  0.1226708E+00
        -11   -1    0    0    0    0  0.00000000000E+00  0.00000000000E+00  0.45593999997E+02  0.45594000000E+02  0.51100000000E-03 0. -1.
         11   -1    0    0    0    0 -0.00000000000E+00 -0.00000000000E+00 -0.45593999997E+02  0.45594000000E+02  0.51100000000E-03 0.  1.
    9900012    2    1    2    0    0  0.83880186435E+01  0.14394884259E+02  0.85502305031E+01  0.72461601755E+02  0.70000040983E+02 0.  0.
        -12    1    1    2    0    0 -0.83880186435E+01 -0.14394884259E+02 -0.85502305031E+01  0.18726398245E+02  0.00000000000E+00 0.  1.
         11    1    3    3    0    0  0.13271937731E+02  0.17257294401E+02  0.86694742786E+01  0.23433273901E+02  0.51100000000E-03 0. -1.
        -11    1    3    3    0    0 -0.61523811748E+01 -0.23974875842E+02  0.85262214245E+01  0.26179054945E+02  0.51100000000E-03 0.  1.
         12    1    3    3    0    0  0.12684620876E+01  0.21112465699E+02 -0.86454652000E+01  0.22849272909E+02  0.00000000000E+00 0. -1.
</event>
<event>
 7    1  0.2656097E-013  0.7246160E+02  0.7816164E-02  0.1226708E+00
        -11   -1    0    0    0    0  0.00000000000E+00  0.00000000000E+00  0.45593999997E+02  0.45594000000E+02  0.51100000000E-03 0.  1.
         11   -1    0    0    0    0 -0.00000000000E+00 -0.00000000000E+00 -0.45593999997E+02  0.45594000000E+02  0.51100000000E-03 0. -1.
    9900012    2    1    2    0    0 -0.16571365487E+01 -0.10952953704E+02 -0.15098499503E+02  0.72461601959E+02  0.70000041249E+02 0.  0.
        -12    1    1    2    0    0  0.16571365487E+01  0.10952953704E+02  0.15098499503E+02  0.18726398041E+02  0.00000000000E+00 0.  1.
         11    1    3    3    0    0 -0.14068086357E+00 -0.32925915018E+02 -0.23709952744E+02  0.40574592176E+02  0.51100000000E-03 0. -1.
        -11    1    3    3    0    0  0.70251572633E+01  0.43845710618E+01 -0.33862718901E+01  0.89467388217E+01  0.51100000000E-03 0.  1.
        -12    1    3    3    0    0 -0.85416129484E+01  0.17588390252E+02  0.11997725131E+02  0.22940270961E+02  0.00000000000E+00 0.  1.
</event>
<event>
 7    1  0.2656097E-013  0.7246154E+02  0.7816164E-02  0.1226708E+00
        -11   -1    0    0    0    0  0.00000000000E+00  0.00000000000E+00  0.45593999997E+02  0.45594000000E+02  0.51100000000E-03 0.  1.
         11   -1    0    0    0    0 -0.00000000000E+00 -0.00000000000E+00 -0.45593999997E+02  0.45594000000E+02  0.51100000000E-03 0. -1.
    9900012    2    1    2    0    0  0.29578279315E+01  0.13205073967E+02 -0.12944396463E+02  0.72461544801E+02  0.69999966790E+02 0.  0.
        -12    1    1    2    0    0 -0.29578279315E+01 -0.13205073967E+02  0.12944396463E+02  0.18726455199E+02  0.00000000000E+00 0.  1.
         11    1    3    3    0    0 -0.21654040484E+02 -0.33204503535E+01 -0.11967334897E+01  0.21939804720E+02  0.51100000000E-03 0. -1.
        -11    1    3    3    0    0  0.29708051530E+01 -0.31557305592E+01  0.12054056012E+02  0.12809550547E+02  0.51100000000E-03 0.  1.
         12    1    3    3    0    0  0.21641063263E+02  0.19681254879E+02 -0.23801718985E+02  0.37712189534E+02  0.00000000000E+00 0. -1.
</event>
<event>
 7    1  0.2656097E-013  0.7246158E+02  0.7816164E-02  0.1226708E+00
        -11   -1    0    0    0    0  0.00000000000E+00  0.00000000000E+00  0.45593999997E+02  0.45594000000E+02  0.51100000000E-03 0.  1.
         11   -1    0    0    0    0 -0.00000000000E+00 -0.00000000000E+00 -0.45593999997E+02  0.45594000000E+02  0.51100000000E-03 0. -1.
    9900012    2    1    2    0    0 -0.49306080916E+01  0.12349945826E+02  0.13185096389E+02  0.72461579497E+02  0.70000011989E+02 0.  0.
        -12    1    1    2    0    0  0.49306080916E+01 -0.12349945826E+02 -0.13185096389E+02  0.18726420503E+02  0.00000000000E+00 0.  1.
         11    1    3    3    0    0  0.26165415734E+01 -0.23170682701E+01 -0.11836858104E+02  0.12342054335E+02  0.51100000000E-03 0. -1.
        -11    1    3    3    0    0 -0.23988996048E+00 -0.18113086638E+02 -0.20460509117E+00  0.18115830598E+02  0.51100000000E-03 0.  1.
         12    1    3    3    0    0 -0.73072597045E+01  0.32780100734E+02  0.25226559585E+02  0.42003694564E+02  0.00000000000E+00 0. -1.
</event>
<event>
 7    1  0.2656097E-013  0.7246160E+02  0.7816164E-02  0.1226708E+00
        -11   -1    0    0    0    0  0.00000000000E+00  0.00000000000E+00  0.45593999997E+02  0.45594000000E+02  0.51100000000E-03 0. -1.
         11   -1    0    0    0    0 -0.00000000000E+00 -0.00000000000E+00 -0.45593999997E+02  0.45594000000E+02  0.51100000000E-03 0.  1.
    9900012    2    1    2    0    0 -0.13940657999E+02  0.12089088868E+02  0.31921675780E+01  0.72461602884E+02  0.70000042454E+02 0.  0.
        -12    1    1    2    0    0  0.13940657999E+02 -0.12089088868E+02 -0.31921675780E+01  0.18726397116E+02  0.00000000000E+00 0.  1.
         11    1    3    3    0    0 -0.13196926003E+02  0.19055391209E+01  0.51292152994E+01  0.14286314609E+02  0.51100000000E-03 0. -1.
        -11    1    3    3    0    0 -0.16291499370E+02 -0.18379011113E+02 -0.63224699553E+01  0.25360887757E+02  0.51100000000E-03 0.  1.
         12    1    3    3    0    0  0.15547767373E+02  0.28562560860E+02  0.43854222339E+01  0.32814400518E+02  0.00000000000E+00 0. -1.
</event>
<event>
 7    1  0.2656097E-013  0.7246195E+02  0.7816164E-02  0.1226707E+00
        -11   -1    0    0    0    0  0.00000000000E+00  0.00000000000E+00  0.45593999997E+02  0.45594000000E+02  0.51100000000E-03 0.  1.
         11   -1    0    0    0    0 -0.00000000000E+00 -0.00000000000E+00 -0.45593999997E+02  0.45594000000E+02  0.51100000000E-03 0. -1.
    9900012    2    1    2    0    0  0.82159152638E+01 -0.13732471218E+02 -0.97253802287E+01  0.72461947294E+02  0.70000491110E+02 0.  0.
        -12    1    1    2    0    0 -0.82159152638E+01  0.13732471218E+02  0.97253802287E+01  0.18726052706E+02  0.00000000000E+00 0.  1.
         11    1    3    3    0    0  0.51178888510E+01 -0.10948954782E+02 -0.17066731685E+02  0.20912812527E+02  0.51100000000E-03 0. -1.
        -11    1    3    3    0    0  0.16012447743E+02 -0.18175537273E+02  0.16662112001E+02  0.29400248545E+02  0.51100000000E-03 0.  1.
        -12    1    3    3    0    0 -0.12914421330E+02  0.15392020837E+02 -0.93207605451E+01  0.22148886222E+02  0.00000000000E+00 0.  1.
</event>
<event>
 7    1  0.2656097E-013  0.7246160E+02  0.7816164E-02  0.1226708E+00
        -11   -1    0    0    0    0  0.00000000000E+00  0.00000000000E+00  0.45593999997E+02  0.45594000000E+02  0.51100000000E-03 0.  1.
         11   -1    0    0    0    0 -0.00000000000E+00 -0.00000000000E+00 -0.45593999997E+02  0.45594000000E+02  0.51100000000E-03 0. -1.
    9900012    2    1    2    0    0 -0.59699682613E+01  0.78248602037E+01 -0.15931393058E+02  0.72461595032E+02  0.70000032226E+02 0.  0.
        -12    1    1    2    0    0  0.59699682613E+01 -0.78248602037E+01  0.15931393058E+02  0.18726404968E+02  0.00000000000E+00 0.  1.
         11    1    3    3    0    0  0.15066531172E+02 -0.31185741122E+01 -0.13279347281E+02  0.20324048084E+02  0.51100000000E-03 0. -1.
        -11    1    3    3    0    0  0.65764126870E+01  0.21469798750E+02  0.13809935967E+00  0.22454855463E+02  0.51100000000E-03 0.  1.
        -12    1    3    3    0    0 -0.27612912120E+02 -0.10526364434E+02 -0.27901451369E+01  0.29682691485E+02  0.00000000000E+00 0.  1.
</event>
<event>
 7    1  0.2656097E-013  0.7246168E+02  0.7816164E-02  0.1226708E+00
        -11   -1    0    0    0    0  0.00000000000E+00  0.00000000000E+00  0.45593999997E+02  0.45594000000E+02  0.51100000000E-03 0.  1.
         11   -1    0    0    0    0 -0.00000000000E+00 -0.00000000000E+00 -0.45593999997E+02  0.45594000000E+02  0.51100000000E-03 0. -1.
    9900012    2    1    2    0    0  0.76468314767E+01 -0.16020229027E+02  0.59626474153E+01  0.72461683386E+02  0.70000147323E+02 0.  0.
        -12    1    1    2    0    0 -0.76468314767E+01  0.16020229027E+02 -0.59626474153E+01  0.18726316614E+02  0.00000000000E+00 0.  1.
         11    1    3    3    0    0  0.27400423470E+01  0.20559038485E+01 -0.10029196230E+01  0.35693725960E+01  0.51100000000E-03 0. -1.
        -11    1    3    3    0    0  0.56559270718E+01  0.13241836769E+02 -0.21955863010E+02  0.26256345382E+02  0.51100000000E-03 0.  1.
         12    1    3    3    0    0 -0.74913794220E+00 -0.31317969644E+02  0.28921430048E+02  0.42635965409E+02  0.00000000000E+00 0. -1.
</event>
<event>
 7    1  0.2688201E-013  0.7246165E+02  0.7816164E-02  0.1226708E+00
        -11   -1    0    0    0    0  0.00000000000E+00  0.00000000000E+00  0.45593999997E+02  0.45594000000E+02  0.51100000000E-03 0. -1.
         11   -1    0    0    0    0 -0.00000000000E+00 -0.00000000000E+00 -0.45593999997E+02  0.45594000000E+02  0.51100000000E-03 0.  1.
    9900012    2    1    2    0    0  0.49645223329E+01 -0.59266713746E+01  0.17055918243E+02  0.72461647908E+02  0.70000101106E+02 0.  0.
        -12    1    1    2    0    0 -0.49645223329E+01  0.59266713746E+01 -0.17055918243E+02  0.18726352092E+02  0.00000000000E+00 0.  1.
         11    1    3    3    0    0 -0.89873818994E+01 -0.64651307344E+01  0.22803821386E+02  0.25349264661E+02  0.51100000000E-03 0. -1.
        -11    1    3    3    0    0 -0.15110853564E+02 -0.60805241225E+00 -0.93880931222E+01  0.17800109997E+02  0.51100000000E-03 0.  1.
         12    1    3    3    0    0  0.29062757796E+02  0.11465117721E+01  0.36401899792E+01  0.29312273250E+02  0.00000000000E+00 0. -1.
</event>
<event>
 7    1  0.2656097E-013  0.7246153E+02  0.7816164E-02  0.1226708E+00
        -11   -1    0    0    0    0  0.00000000000E+00  0.00000000000E+00  0.45593999997E+02  0.45594000000E+02  0.51100000000E-03 0. -1.
         11   -1    0    0    0    0 -0.00000000000E+00 -0.00000000000E+00 -0.45593999997E+02  0.45594000000E+02  0.51100000000E-03 0.  1.
    9900012    2    1    2    0    0 -0.70537605429E+01 -0.85257939157E+01  0.15107474857E+02  0.72461534871E+02  0.69999953854E+02 0.  0.
        -12    1    1    2    0    0  0.70537605429E+01  0.85257939157E+01 -0.15107474857E+02  0.18726465129E+02  0.00000000000E+00 0.  1.
         11    1    3    3    0    0  0.48372827629E+00  0.16644962064E+02  0.15651856985E+02  0.22853213833E+02  0.51100000000E-03 0. -1.
        -11    1    3    3    0    0  0.51106296867E+00 -0.87963576219E+01  0.20166186422E+02  0.22007093580E+02  0.51100000000E-03 0.  1.
        -12    1    3    3    0    0 -0.80485517879E+01 -0.16374398358E+02 -0.20710568550E+02  0.27601227457E+02  0.00000000000E+00 0.  1.
</event>
<event>
 7    1  0.2656097E-013  0.7246156E+02  0.7816164E-02  0.1226708E+00
        -11   -1    0    0    0    0  0.00000000000E+00  0.00000000000E+00  0.45593999997E+02  0.45594000000E+02  0.51100000000E-03 0.  1.
         11   -1    0    0    0    0 -0.00000000000E+00 -0.00000000000E+00 -0.45593999997E+02  0.45594000000E+02  0.51100000000E-03 0. -1.
    9900012    2    1    2    0    0  0.79942523126E+01 -0.12811914984E+02 -0.11073677211E+02  0.72461559800E+02  0.69999986329E+02 0.  0.
        -12    1    1    2    0    0 -0.79942523126E+01  0.12811914984E+02  0.11073677211E+02  0.18726440200E+02  0.00000000000E+00 0.  1.
         11    1    3    3    0    0  0.13240195774E+02 -0.94572948899E+01 -0.59843585566E+00  0.16281932825E+02  0.51100000000E-03 0. -1.
        -11    1    3    3    0    0  0.63641335077E+01 -0.22377053135E+02  0.10546800686E+02  0.25543486592E+02  0.51100000000E-03 0.  1.
        -12    1    3    3    0    0 -0.11610076969E+02  0.19022433041E+02 -0.21022042041E+02  0.30636140383E+02  0.00000000000E+00 0.  1.
</event>
<event>
 7    1  0.2656097E-013  0.7246158E+02  0.7816164E-02  0.1226708E+00
        -11   -1    0    0    0    0  0.00000000000E+00  0.00000000000E+00  0.45593999997E+02  0.45594000000E+02  0.51100000000E-03 0.  1.
         11   -1    0    0    0    0 -0.00000000000E+00 -0.00000000000E+00 -0.45593999997E+02  0.45594000000E+02  0.51100000000E-03 0. -1.
    9900012    2    1    2    0    0  0.55230478714E+01 -0.17702900054E+02  0.26042087774E+01  0.72461584660E+02  0.70000018714E+02 0.  0.
        -12    1    1    2    0    0 -0.55230478714E+01  0.17702900054E+02 -0.26042087774E+01  0.18726415340E+02  0.00000000000E+00 0.  1.
         11    1    3    3    0    0  0.19793725245E+02 -0.94189393272E+01 -0.12143014074E+02  0.25059145400E+02  0.51100000000E-03 0. -1.
        -11    1    3    3    0    0  0.14113074225E+02  0.65830319104E+00  0.98987229447E+01  0.17250998330E+02  0.51100000000E-03 0.  1.
         12    1    3    3    0    0 -0.28383751599E+02 -0.89422639181E+01  0.48484999068E+01  0.30151440930E+02  0.00000000000E+00 0. -1.
</event>
<event>
 7    1  0.2656097E-013  0.7246156E+02  0.7816164E-02  0.1226708E+00
        -11   -1    0    0    0    0  0.00000000000E+00  0.00000000000E+00  0.45593999997E+02  0.45594000000E+02  0.51100000000E-03 0.  1.
         11   -1    0    0    0    0 -0.00000000000E+00 -0.00000000000E+00 -0.45593999997E+02  0.45594000000E+02  0.51100000000E-03 0. -1.
    9900012    2    1    2    0    0  0.37481182379E+01  0.37622698052E+01 -0.17957630397E+02  0.72461560031E+02  0.69999986631E+02 0.  0.
        -12    1    1    2    0    0 -0.37481182379E+01 -0.37622698052E+01  0.17957630397E+02  0.18726439969E+02  0.00000000000E+00 0.  1.
         11    1    3    3    0    0  0.79381698436E+01 -0.67879345765E+01  0.76659946397E+01  0.12956005185E+02  0.51100000000E-03 0. -1.
        -11    1    3    3    0    0 -0.88559945364E+01  0.41774179909E+01  0.15114352851E+02  0.18008973393E+02  0.51100000000E-03 0.  1.
         12    1    3    3    0    0  0.46659429306E+01  0.63727863909E+01 -0.40737977889E+02  0.41496581453E+02  0.00000000000E+00 0. -1.
</event>
<event>
 7    1  0.2656097E-013  0.7246161E+02  0.7816164E-02  0.1226708E+00
        -11   -1    0    0    0    0  0.00000000000E+00  0.00000000000E+00  0.45593999997E+02  0.45594000000E+02  0.51100000000E-03 0.  1.
         11   -1    0    0    0    0 -0.00000000000E+00 -0.00000000000E+00 -0.45593999997E+02  0.45594000000E+02  0.51100000000E-03 0. -1.
    9900012    2    1    2    0    0 -0.81264184519E+01 -0.12677342089E-01 -0.16871247174E+02  0.72461606359E+02  0.70000046981E+02 0.  0.
        -12    1    1    2    0    0  0.81264184519E+01  0.12677342089E-01  0.16871247174E+02  0.18726393641E+02  0.00000000000E+00 0.  1.
         11    1    3    3    0    0  0.22825036897E+02  0.72020400857E+01 -0.69478147610E+01  0.24922355847E+02  0.51100000000E-03 0. -1.
        -11    1    3    3    0    0 -0.11483579493E+01  0.10168640028E+02 -0.79896334446E+01  0.12982842864E+02  0.51100000000E-03 0.  1.
         12    1    3    3    0    0 -0.29803097400E+02 -0.17383357456E+02 -0.19337989688E+01  0.34556407648E+02  0.00000000000E+00 0. -1.
</event>
<event>
 7    1  0.2656097E-013  0.7246159E+02  0.7816164E-02  0.1226708E+00
        -11   -1    0    0    0    0  0.00000000000E+00  0.00000000000E+00  0.45593999997E+02  0.45594000000E+02  0.51100000000E-03 0.  1.
         11   -1    0    0    0    0 -0.00000000000E+00 -0.00000000000E+00 -0.45593999997E+02  0.45594000000E+02  0.51100000000E-03 0. -1.
    9900012    2    1    2    0    0 -0.12678600428E+02 -0.51220781760E+01 -0.12794367314E+02  0.72461590077E+02  0.70000025770E+02 0.  0.
        -12    1    1    2    0    0  0.12678600428E+02  0.51220781760E+01  0.12794367314E+02  0.18726409923E+02  0.00000000000E+00 0.  1.
         11    1    3    3    0    0 -0.18896799077E+02  0.15454556745E+02 -0.18154672344E+02  0.30422433626E+02  0.51100000000E-03 0. -1.
        -11    1    3    3    0    0  0.10224790548E+02  0.64781203377E+01  0.80817390598E+01  0.14554273989E+02  0.51100000000E-03 0.  1.
         12    1    3    3    0    0 -0.40065918986E+01 -0.27054755258E+02 -0.27214340297E+01  0.27484882461E+02  0.00000000000E+00 0. -1.
</event>
<event>
 7    1  0.2656097E-013  0.7246130E+02  0.7816164E-02  0.1226709E+00
        -11   -1    0    0    0    0  0.00000000000E+00  0.00000000000E+00  0.45593999997E+02  0.45594000000E+02  0.51100000000E-03 0.  1.
         11   -1    0    0    0    0 -0.00000000000E+00 -0.00000000000E+00 -0.45593999997E+02  0.45594000000E+02  0.51100000000E-03 0. -1.
    9900012    2    1    2    0    0 -0.94318837264E+00  0.15648191491E+02 -0.10243719059E+02  0.72461300306E+02  0.69999648290E+02 0.  0.
        -12    1    1    2    0    0  0.94318837264E+00 -0.15648191491E+02  0.10243719059E+02  0.18726699694E+02  0.00000000000E+00 0.  1.
         11    1    3    3    0    0 -0.14256624779E+02  0.32877622944E+02  0.33364020213E+01  0.35990568476E+02  0.51100000000E-03 0. -1.
        -11    1    3    3    0    0  0.14095532265E+01  0.32639969549E+01 -0.12225737880E+02  0.12732210467E+02  0.51100000000E-03 0.  1.
        -12    1    3    3    0    0  0.11903883179E+02 -0.20493428408E+02 -0.13543832006E+01  0.23738521363E+02  0.00000000000E+00 0.  1.
</event>
<event>
 7    1  0.2656097E-013  0.7246159E+02  0.7816164E-02  0.1226708E+00
        -11   -1    0    0    0    0  0.00000000000E+00  0.00000000000E+00  0.45593999997E+02  0.45594000000E+02  0.51100000000E-03 0.  1.
         11   -1    0    0    0    0 -0.00000000000E+00 -0.00000000000E+00 -0.45593999997E+02  0.45594000000E+02  0.51100000000E-03 0. -1.
    9900012    2    1    2    0    0 -0.69269168161E+01 -0.47525942217E+01 -0.16736456674E+02  0.72461593233E+02  0.70000029881E+02 0.  0.
        -12    1    1    2    0    0  0.69269168161E+01  0.47525942217E+01  0.16736456674E+02  0.18726406767E+02  0.00000000000E+00 0.  1.
         11    1    3    3    0    0 -0.27235583400E+02 -0.14157156703E+02 -0.16266412951E+01  0.30738380751E+02  0.51100000000E-03 0. -1.
        -11    1    3    3    0    0 -0.20724755961E+00 -0.45386530770E+01 -0.16268090183E+02  0.16890621119E+02  0.51100000000E-03 0.  1.
        -12    1    3    3    0    0  0.20515914144E+02  0.13943215558E+02  0.11582748041E+01  0.24832591362E+02  0.00000000000E+00 0.  1.
</event>
<event>
 7    1  0.2656097E-013  0.7246161E+02  0.7816164E-02  0.1226708E+00
        -11   -1    0    0    0    0  0.00000000000E+00  0.00000000000E+00  0.45593999997E+02  0.45594000000E+02  0.51100000000E-03 0. -1.
         11   -1    0    0    0    0 -0.00000000000E+00 -0.00000000000E+00 -0.45593999997E+02  0.45594000000E+02  0.51100000000E-03 0.  1.
    9900012    2    1    2    0    0 -0.19973468645E+01 -0.43367464060E+01  0.18107486051E+02  0.72461606462E+02  0.70000047114E+02 0.  0.
        -12    1    1    2    0    0  0.19973468645E+01  0.43367464060E+01 -0.18107486051E+02  0.18726393538E+02  0.00000000000E+00 0.  1.
         11    1    3    3    0    0  0.28219339332E+02 -0.27777306663E+01  0.14219068513E+02  0.31721109843E+02  0.51100000000E-03 0. -1.
        -11    1    3    3    0    0 -0.47082422042E+00  0.49077310337E+00 -0.84461545780E+01  0.84734916712E+01  0.51100000000E-03 0.  1.
        -12    1    3    3    0    0 -0.29745861976E+02 -0.20497888431E+01  0.12334572115E+02  0.32267004948E+02  0.00000000000E+00 0.  1.
</event>
<event>
 7    1  0.2656097E-013  0.7246159E+02  0.7816164E-02  0.1226708E+00
        -11   -1    0    0    0    0  0.00000000000E+00  0.00000000000E+00  0.45593999997E+02  0.45594000000E+02  0.51100000000E-03 0. -1.
         11   -1    0    0    0    0 -0.00000000000E+00 -0.00000000000E+00 -0.45593999997E+02  0.45594000000E+02  0.51100000000E-03 0.  1.
    9900012    2    1    2    0    0 -0.15474650746E+02 -0.22877836478E+00  0.10543307360E+02  0.72461588562E+02  0.70000023797E+02 0.  0.
        -12    1    1    2    0    0  0.15474650746E+02  0.22877836478E+00 -0.10543307360E+02  0.18726411438E+02  0.00000000000E+00 0.  1.
         11    1    3    3    0    0  0.27889776020E+01 -0.13364082916E+01 -0.91721211270E+01  0.96794725794E+01  0.51100000000E-03 0. -1.
        -11    1    3    3    0    0 -0.12990649922E+02  0.65268890359E+01 -0.18667908261E+02  0.23661108701E+02  0.51100000000E-03 0.  1.
         12    1    3    3    0    0 -0.52729784263E+01 -0.54192591090E+01  0.38383336748E+02  0.39121007281E+02  0.00000000000E+00 0. -1.
</event>
<event>
 7    1  0.2656097E-013  0.7246161E+02  0.7816164E-02  0.1226708E+00
        -11   -1    0    0    0    0  0.00000000000E+00  0.00000000000E+00  0.45593999997E+02  0.45594000000E+02  0.51100000000E-03 0.  1.
         11   -1    0    0    0    0 -0.00000000000E+00 -0.00000000000E+00 -0.45593999997E+02  0.45594000000E+02  0.51100000000E-03 0. -1.
    9900012    2    1    2    0    0 -0.77225576729E+01  0.45551255874E+01 -0.16440517234E+02  0.72461610251E+02  0.70000052051E+02 0.  0.
        -12    1    1    2    0    0  0.77225576729E+01 -0.45551255874E+01  0.16440517234E+02  0.18726389749E+02  0.00000000000E+00 0.  1.
         11    1    3    3    0    0 -0.41178499380E+01  0.33071349647E+01 -0.15166106084E+02  0.16059408576E+02  0.51100000000E-03 0. -1.
        -11    1    3    3    0    0 -0.46747774211E+01  0.27934952266E+02 -0.67998819646E+01  0.29128225093E+02  0.51100000000E-03 0.  1.
        -12    1    3    3    0    0  0.10700696862E+01 -0.26686961643E+02  0.55254708151E+01  0.27273976582E+02  0.00000000000E+00 0.  1.
</event>
<event>
 7    1  0.2656097E-013  0.7246160E+02  0.7816164E-02  0.1226708E+00
        -11   -1    0    0    0    0  0.00000000000E+00  0.00000000000E+00  0.45593999997E+02  0.45594000000E+02  0.51100000000E-03 0.  1.
         11   -1    0    0    0    0 -0.00000000000E+00 -0.00000000000E+00 -0.45593999997E+02  0.45594000000E+02  0.51100000000E-03 0. -1.
    9900012    2    1    2    0    0  0.40109971732E+01 -0.18056082248E+02  0.29270934394E+01  0.72461599373E+02  0.70000037880E+02 0.  0.
        -12    1    1    2    0    0 -0.40109971732E+01  0.18056082248E+02 -0.29270934394E+01  0.18726400627E+02  0.00000000000E+00 0.  1.
         11    1    3    3    0    0 -0.39292477653E+01 -0.16540044527E+01  0.10196329396E+02  0.11051690013E+02  0.51100000000E-03 0. -1.
        -11    1    3    3    0    0  0.19972448148E+02  0.86036112341E+01  0.14502204460E+02  0.26138759454E+02  0.51100000000E-03 0.  1.
         12    1    3    3    0    0 -0.12032203210E+02 -0.25005689029E+02 -0.21771440417E+02  0.35271149906E+02  0.00000000000E+00 0. -1.
</event>
<event>
 7    1  0.2656097E-013  0.7246162E+02  0.7816164E-02  0.1226708E+00
        -11   -1    0    0    0    0  0.00000000000E+00  0.00000000000E+00  0.45593999997E+02  0.45594000000E+02  0.51100000000E-03 0.  1.
         11   -1    0    0    0    0 -0.00000000000E+00 -0.00000000000E+00 -0.45593999997E+02  0.45594000000E+02  0.51100000000E-03 0. -1.
    9900012    2    1    2    0    0 -0.10862148467E+02 -0.58041468759E+01 -0.14106842441E+02  0.72461617703E+02  0.70000061759E+02 0.  0.
        -12    1    1    2    0    0  0.10862148467E+02  0.58041468759E+01  0.14106842441E+02  0.18726382297E+02  0.00000000000E+00 0.  1.
         11    1    3    3    0    0 -0.32119173004E+01  0.43895662760E+01 -0.17508830485E+02  0.18334226191E+02  0.51100000000E-03 0. -1.
        -11    1    3    3    0    0 -0.29972944517E+02 -0.81269011000E+01  0.57624407337E+01  0.31585275810E+02  0.51100000000E-03 0.  1.
         12    1    3    3    0    0  0.22322713351E+02 -0.20668120520E+01 -0.23604526900E+01  0.22542115702E+02  0.00000000000E+00 0. -1.
</event>
<event>
 7    1  0.2656097E-013  0.7246159E+02  0.7816164E-02  0.1226708E+00
        -11   -1    0    0    0    0  0.00000000000E+00  0.00000000000E+00  0.45593999997E+02  0.45594000000E+02  0.51100000000E-03 0. -1.
         11   -1    0    0    0    0 -0.00000000000E+00 -0.00000000000E+00 -0.45593999997E+02  0.45594000000E+02  0.51100000000E-03 0.  1.
    9900012    2    1    2    0    0  0.16387237071E+02 -0.25492142225E+01  0.86970441496E+01  0.72461585263E+02  0.70000019499E+02 0.  0.
        -12    1    1    2    0    0 -0.16387237071E+02  0.25492142225E+01 -0.86970441496E+01  0.18726414737E+02  0.00000000000E+00 0.  1.
         11    1    3    3    0    0 -0.66046987857E+01  0.21270239866E+02  0.15194623142E+01  0.22323841874E+02  0.51100000000E-03 0. -1.
        -11    1    3    3    0    0 -0.54151742793E+01 -0.19542288021E+02 -0.89287652273E+00  0.20298333979E+02  0.51100000000E-03 0.  1.
         12    1    3    3    0    0  0.28407110136E+02 -0.42771660679E+01  0.80704583581E+01  0.29839409410E+02  0.00000000000E+00 0. -1.
</event>
<event>
 7    1  0.2656097E-013  0.7246089E+02  0.7816164E-02  0.1226710E+00
        -11   -1    0    0    0    0  0.00000000000E+00  0.00000000000E+00  0.45593999997E+02  0.45594000000E+02  0.51100000000E-03 0. -1.
         11   -1    0    0    0    0 -0.00000000000E+00 -0.00000000000E+00 -0.45593999997E+02  0.45594000000E+02  0.51100000000E-03 0.  1.
    9900012    2    1    2    0    0  0.21677784775E+01 -0.15230314944E+02  0.10679078427E+02  0.72460894701E+02  0.69999119909E+02 0.  0.
        -12    1    1    2    0    0 -0.21677784775E+01  0.15230314944E+02 -0.10679078427E+02  0.18727105299E+02  0.00000000000E+00 0.  1.
         11    1    3    3    0    0  0.10476629453E+02  0.55336911315E+01  0.72075308250E+01  0.13868309309E+02  0.51100000000E-03 0. -1.
        -11    1    3    3    0    0  0.18844108727E+02  0.19273296136E+01 -0.91322100443E+01  0.21028844327E+02  0.51100000000E-03 0.  1.
         12    1    3    3    0    0 -0.27152959703E+02 -0.22691335689E+02  0.12603757646E+02  0.37563741065E+02  0.00000000000E+00 0. -1.
</event>
<event>
 7    1  0.2656097E-013  0.7246154E+02  0.7816164E-02  0.1226708E+00
        -11   -1    0    0    0    0  0.00000000000E+00  0.00000000000E+00  0.45593999997E+02  0.45594000000E+02  0.51100000000E-03 0. -1.
         11   -1    0    0    0    0 -0.00000000000E+00 -0.00000000000E+00 -0.45593999997E+02  0.45594000000E+02  0.51100000000E-03 0.  1.
    9900012    2    1    2    0    0  0.63966210415E+01 -0.17488458185E+02 -0.19792080559E+01  0.72461542915E+02  0.69999964333E+02 0.  0.
        -12    1    1    2    0    0 -0.63966210415E+01  0.17488458185E+02  0.19792080559E+01  0.18726457085E+02  0.00000000000E+00 0.  1.
         11    1    3    3    0    0  0.96329916957E+01  0.55437084283E+01  0.66370597568E+01  0.12945184225E+02  0.51100000000E-03 0. -1.
        -11    1    3    3    0    0  0.95947949779E+01  0.76323036224E+01  0.14529575033E+02  0.19011067833E+02  0.51100000000E-03 0.  1.
         12    1    3    3    0    0 -0.12831165632E+02 -0.30664470236E+02 -0.23145842846E+02  0.40505290856E+02  0.00000000000E+00 0. -1.
</event>
<event>
 7    1  0.2656097E-013  0.7246177E+02  0.7816164E-02  0.1226707E+00
        -11   -1    0    0    0    0  0.00000000000E+00  0.00000000000E+00  0.45593999997E+02  0.45594000000E+02  0.51100000000E-03 0.  1.
         11   -1    0    0    0    0 -0.00000000000E+00 -0.00000000000E+00 -0.45593999997E+02  0.45594000000E+02  0.51100000000E-03 0. -1.
    9900012    2    1    2    0    0  0.14758681561E+02  0.10030651479E+01 -0.11482459913E+02  0.72461769553E+02  0.70000259571E+02 0.  0.
        -12    1    1    2    0    0 -0.14758681561E+02 -0.10030651479E+01  0.11482459913E+02  0.18726230447E+02  0.00000000000E+00 0.  1.
         11    1    3    3    0    0 -0.19010754470E+01 -0.11688826638E+02 -0.16126297626E+02  0.20007504378E+02  0.51100000000E-03 0. -1.
        -11    1    3    3    0    0  0.11379845655E+02 -0.13868960730E+02 -0.11132375479E+02  0.21113473019E+02  0.51100000000E-03 0.  1.
         12    1    3    3    0    0  0.52799113532E+01  0.26560852516E+02  0.15776213193E+02  0.31340792156E+02  0.00000000000E+00 0. -1.
</event>
<event>
 7    1  0.2656097E-013  0.7246153E+02  0.7816164E-02  0.1226708E+00
        -11   -1    0    0    0    0  0.00000000000E+00  0.00000000000E+00  0.45593999997E+02  0.45594000000E+02  0.51100000000E-03 0.  1.
         11   -1    0    0    0    0 -0.00000000000E+00 -0.00000000000E+00 -0.45593999997E+02  0.45594000000E+02  0.51100000000E-03 0. -1.
    9900012    2    1    2    0    0 -0.11414393811E+02 -0.37434876891E+01 -0.14365881334E+02  0.72461531228E+02  0.69999949109E+02 0.  0.
        -12    1    1    2    0    0  0.11414393811E+02  0.37434876891E+01  0.14365881334E+02  0.18726468772E+02  0.00000000000E+00 0.  1.
         11    1    3    3    0    0 -0.10424863346E+02 -0.29221582341E+02  0.10905735494E+02  0.32886375860E+02  0.51100000000E-03 0. -1.
        -11    1    3    3    0    0 -0.19676239454E+01 -0.20611214182E+01 -0.17428312532E+01  0.33402434836E+01  0.51100000000E-03 0.  1.
        -12    1    3    3    0    0  0.97809347994E+00  0.27539216070E+02 -0.23528785575E+02  0.36234911884E+02  0.00000000000E+00 0.  1.
</event>
<event>
 7    1  0.2656097E-013  0.7246150E+02  0.7816164E-02  0.1226708E+00
        -11   -1    0    0    0    0  0.00000000000E+00  0.00000000000E+00  0.45593999997E+02  0.45594000000E+02  0.51100000000E-03 0.  1.
         11   -1    0    0    0    0 -0.00000000000E+00 -0.00000000000E+00 -0.45593999997E+02  0.45594000000E+02  0.51100000000E-03 0. -1.
    9900012    2    1    2    0    0 -0.63560763665E+01 -0.15573883901E+02  0.82301981627E+01  0.72461501973E+02  0.69999910999E+02 0.  0.
        -12    1    1    2    0    0  0.63560763665E+01  0.15573883901E+02 -0.82301981627E+01  0.18726498027E+02  0.00000000000E+00 0.  1.
         11    1    3    3    0    0  0.31696497668E+01 -0.18584081801E+02 -0.62959626524E+01  0.19875963423E+02  0.51100000000E-03 0. -1.
        -11    1    3    3    0    0  0.90516660362E+01 -0.18648805507E+02  0.37108837260E+00  0.20732783501E+02  0.51100000000E-03 0.  1.
         12    1    3    3    0    0 -0.18577392170E+02  0.21659003406E+02  0.14155072442E+02  0.31852755049E+02  0.00000000000E+00 0. -1.
</event>
<event>
 7    1  0.2656097E-013  0.7246143E+02  0.7816164E-02  0.1226708E+00
        -11   -1    0    0    0    0  0.00000000000E+00  0.00000000000E+00  0.45593999997E+02  0.45594000000E+02  0.51100000000E-03 0.  1.
         11   -1    0    0    0    0 -0.00000000000E+00 -0.00000000000E+00 -0.45593999997E+02  0.45594000000E+02  0.51100000000E-03 0. -1.
    9900012    2    1    2    0    0  0.45787437798E+01 -0.47884895301E+01 -0.17515414018E+02  0.72461434517E+02  0.69999823124E+02 0.  0.
        -12    1    1    2    0    0 -0.45787437798E+01  0.47884895301E+01  0.17515414018E+02  0.18726565483E+02  0.00000000000E+00 0.  1.
         11    1    3    3    0    0  0.14301292206E+01 -0.38855437127E+01  0.77719751969E+01  0.88060387379E+01  0.51100000000E-03 0. -1.
        -11    1    3    3    0    0  0.11654878126E+02  0.12363142820E+02  0.13556700262E+02  0.21736319991E+02  0.51100000000E-03 0.  1.
         12    1    3    3    0    0 -0.85062635669E+01 -0.13266088637E+02 -0.38844089477E+02  0.41919075787E+02  0.00000000000E+00 0. -1.
</event>
<event>
 7    1  0.2656097E-013  0.7246156E+02  0.7816164E-02  0.1226708E+00
        -11   -1    0    0    0    0  0.00000000000E+00  0.00000000000E+00  0.45593999997E+02  0.45594000000E+02  0.51100000000E-03 0.  1.
         11   -1    0    0    0    0 -0.00000000000E+00 -0.00000000000E+00 -0.45593999997E+02  0.45594000000E+02  0.51100000000E-03 0. -1.
    9900012    2    1    2    0    0 -0.10437853189E+01 -0.14599084078E+01 -0.18640246738E+02  0.72461558299E+02  0.69999984373E+02 0.  0.
        -12    1    1    2    0    0  0.10437853189E+01  0.14599084078E+01  0.18640246738E+02  0.18726441701E+02  0.00000000000E+00 0.  1.
         11    1    3    3    0    0  0.25511226734E+02 -0.12273906375E+02 -0.24071653021E+02  0.37160677424E+02  0.51100000000E-03 0. -1.
        -11    1    3    3    0    0  0.27054832687E+01  0.38745939976E+01 -0.87722035571E-01  0.47265012197E+01  0.51100000000E-03 0.  1.
        -12    1    3    3    0    0 -0.29260495321E+02  0.69394039698E+01  0.55191283184E+01  0.30574379655E+02  0.00000000000E+00 0.  1.
</event>
<event>
 7    1  0.2656097E-013  0.7246159E+02  0.7816164E-02  0.1226708E+00
        -11   -1    0    0    0    0  0.00000000000E+00  0.00000000000E+00  0.45593999997E+02  0.45594000000E+02  0.51100000000E-03 0. -1.
         11   -1    0    0    0    0 -0.00000000000E+00 -0.00000000000E+00 -0.45593999997E+02  0.45594000000E+02  0.51100000000E-03 0.  1.
    9900012    2    1    2    0    0 -0.66680572112E+01 -0.15105298310E+02  0.88343287118E+01  0.72461591167E+02  0.70000027191E+02 0.  0.
        -12    1    1    2    0    0  0.66680572112E+01  0.15105298310E+02 -0.88343287118E+01  0.18726408833E+02  0.00000000000E+00 0.  1.
         11    1    3    3    0    0  0.18464679895E+02 -0.20249017448E+02  0.17880776602E+02  0.32721388775E+02  0.51100000000E-03 0. -1.
        -11    1    3    3    0    0 -0.20557775840E+02 -0.21407340316E+01  0.67586549142E+01  0.21745903204E+02  0.51100000000E-03 0.  1.
        -12    1    3    3    0    0 -0.45749612663E+01  0.72844531703E+01 -0.15805102805E+02  0.17994299187E+02  0.00000000000E+00 0.  1.
</event>
<event>
 7    1  0.2656097E-013  0.7246152E+02  0.7816164E-02  0.1226708E+00
        -11   -1    0    0    0    0  0.00000000000E+00  0.00000000000E+00  0.45593999997E+02  0.45594000000E+02  0.51100000000E-03 0. -1.
         11   -1    0    0    0    0 -0.00000000000E+00 -0.00000000000E+00 -0.45593999997E+02  0.45594000000E+02  0.51100000000E-03 0.  1.
    9900012    2    1    2    0    0  0.18288052714E+02  0.38244192355E+01  0.12657379795E+01  0.72461517490E+02  0.69999931212E+02 0.  0.
        -12    1    1    2    0    0 -0.18288052714E+02 -0.38244192355E+01 -0.12657379795E+01  0.18726482510E+02  0.00000000000E+00 0.  1.
         11    1    3    3    0    0  0.33064476801E+02 -0.11040834317E+02  0.15231750338E+02  0.38041633339E+02  0.51100000000E-03 0. -1.
        -11    1    3    3    0    0 -0.48563285699E+01 -0.93724983978E+00  0.55403405373E+01  0.74268255648E+01  0.51100000000E-03 0.  1.
        -12    1    3    3    0    0 -0.99200955166E+01  0.15802503392E+02 -0.19506352896E+02  0.26993058585E+02  0.00000000000E+00 0.  1.
</event>
<event>
 7    1  0.2656097E-013  0.7246155E+02  0.7816164E-02  0.1226708E+00
        -11   -1    0    0    0    0  0.00000000000E+00  0.00000000000E+00  0.45593999997E+02  0.45594000000E+02  0.51100000000E-03 0.  1.
         11   -1    0    0    0    0 -0.00000000000E+00 -0.00000000000E+00 -0.45593999997E+02  0.45594000000E+02  0.51100000000E-03 0. -1.
    9900012    2    1    2    0    0  0.18316980102E+02  0.38825905566E+01  0.30614912652E+00  0.72461548206E+02  0.69999971226E+02 0.  0.
        -12    1    1    2    0    0 -0.18316980102E+02 -0.38825905566E+01 -0.30614912652E+00  0.18726451794E+02  0.00000000000E+00 0.  1.
         11    1    3    3    0    0  0.15913319042E+02 -0.20629310015E+02  0.47857938252E+01  0.26489733434E+02  0.51100000000E-03 0. -1.
        -11    1    3    3    0    0  0.40113100378E+01 -0.95530813176E+01  0.35209870322E+01  0.10943003282E+02  0.51100000000E-03 0.  1.
        -12    1    3    3    0    0 -0.16076489770E+01  0.34064981889E+02 -0.80006317309E+01  0.35028811490E+02  0.00000000000E+00 0.  1.
</event>
<event>
 7    1  0.2656097E-013  0.7246155E+02  0.7816164E-02  0.1226708E+00
        -11   -1    0    0    0    0  0.00000000000E+00  0.00000000000E+00  0.45593999997E+02  0.45594000000E+02  0.51100000000E-03 0.  1.
         11   -1    0    0    0    0 -0.00000000000E+00 -0.00000000000E+00 -0.45593999997E+02  0.45594000000E+02  0.51100000000E-03 0. -1.
    9900012    2    1    2    0    0 -0.11755143450E+02 -0.73335489453E+01 -0.12598244285E+02  0.72461545538E+02  0.69999967750E+02 0.  0.
        -12    1    1    2    0    0  0.11755143450E+02  0.73335489453E+01  0.12598244285E+02  0.18726454462E+02  0.00000000000E+00 0.  1.
         11    1    3    3    0    0 -0.21016552496E+02  0.22108783469E+01  0.10298455935E+02  0.23508331646E+02  0.51100000000E-03 0. -1.
        -11    1    3    3    0    0 -0.97784109886E+01  0.60255805456E+01  0.43183372286E+01  0.12270818190E+02  0.51100000000E-03 0.  1.
         12    1    3    3    0    0  0.19039820035E+02 -0.15570007838E+02 -0.27215037449E+02  0.36682395701E+02  0.00000000000E+00 0. -1.
</event>
<event>
 7    1  0.2656097E-013  0.7246157E+02  0.7816164E-02  0.1226708E+00
        -11   -1    0    0    0    0  0.00000000000E+00  0.00000000000E+00  0.45593999997E+02  0.45594000000E+02  0.51100000000E-03 0. -1.
         11   -1    0    0    0    0 -0.00000000000E+00 -0.00000000000E+00 -0.45593999997E+02  0.45594000000E+02  0.51100000000E-03 0.  1.
    9900012    2    1    2    0    0 -0.71728544505E+01  0.17184912298E+02 -0.19768614925E+01  0.72461573939E+02  0.70000004748E+02 0.  0.
        -12    1    1    2    0    0  0.71728544505E+01 -0.17184912298E+02  0.19768614925E+01  0.18726426061E+02  0.00000000000E+00 0.  1.
         11    1    3    3    0    0  0.73213980132E+01  0.11104225040E+02  0.61828765591E+01  0.14667468950E+02  0.51100000000E-03 0. -1.
        -11    1    3    3    0    0 -0.28465411396E+01  0.15121515377E+02 -0.28667499107E+02  0.32535957479E+02  0.51100000000E-03 0.  1.
         12    1    3    3    0    0 -0.11647711324E+02 -0.90408281193E+01  0.20507761055E+02  0.25258147511E+02  0.00000000000E+00 0. -1.
</event>
<event>
 7    1  0.2656097E-013  0.7246160E+02  0.7816164E-02  0.1226708E+00
        -11   -1    0    0    0    0  0.00000000000E+00  0.00000000000E+00  0.45593999997E+02  0.45594000000E+02  0.51100000000E-03 0.  1.
         11   -1    0    0    0    0 -0.00000000000E+00 -0.00000000000E+00 -0.45593999997E+02  0.45594000000E+02  0.51100000000E-03 0. -1.
    9900012    2    1    2    0    0  0.13372836969E+02  0.12713303846E+02 -0.31964177500E+01  0.72461602863E+02  0.70000042427E+02 0.  0.
        -12    1    1    2    0    0 -0.13372836969E+02 -0.12713303846E+02  0.31964177500E+01  0.18726397137E+02  0.00000000000E+00 0.  1.
         11    1    3    3    0    0  0.17946116140E+02 -0.99615857343E+01 -0.25759198163E+02  0.32936796522E+02  0.51100000000E-03 0. -1.
        -11    1    3    3    0    0  0.69205781971E+01  0.87164491014E+01  0.69741192418E+00  0.11151559136E+02  0.51100000000E-03 0.  1.
        -12    1    3    3    0    0 -0.11493857368E+02  0.13958440479E+02  0.21865368489E+02  0.28373247205E+02  0.00000000000E+00 0.  1.
</event>
<event>
 7    1  0.2656097E-013  0.7246151E+02  0.7816164E-02  0.1226708E+00
        -11   -1    0    0    0    0  0.00000000000E+00  0.00000000000E+00  0.45593999997E+02  0.45594000000E+02  0.51100000000E-03 0.  1.
         11   -1    0    0    0    0 -0.00000000000E+00 -0.00000000000E+00 -0.45593999997E+02  0.45594000000E+02  0.51100000000E-03 0. -1.
    9900012    2    1    2    0    0 -0.83654102479E+01 -0.15832992789E+02 -0.54788519816E+01  0.72461506246E+02  0.69999916565E+02 0.  0.
        -12    1    1    2    0    0  0.83654102479E+01  0.15832992789E+02  0.54788519816E+01  0.18726493754E+02  0.00000000000E+00 0.  1.
         11    1    3    3    0    0 -0.11364838770E+02  0.97698288961E+00  0.68384143211E+00  0.11427234801E+02  0.51100000000E-03 0. -1.
        -11    1    3    3    0    0 -0.56506940347E+01  0.16844543570E+02  0.12373355560E+02  0.21651072011E+02  0.51100000000E-03 0.  1.
         12    1    3    3    0    0  0.86501225567E+01 -0.33654519249E+02 -0.18536048974E+02  0.39383199434E+02  0.00000000000E+00 0. -1.
</event>
<event>
 7    1  0.2656097E-013  0.7246167E+02  0.7816164E-02  0.1226708E+00
        -11   -1    0    0    0    0  0.00000000000E+00  0.00000000000E+00  0.45593999997E+02  0.45594000000E+02  0.51100000000E-03 0. -1.
         11   -1    0    0    0    0 -0.00000000000E+00 -0.00000000000E+00 -0.45593999997E+02  0.45594000000E+02  0.51100000000E-03 0.  1.
    9900012    2    1    2    0    0  0.16199141576E+02 -0.62642399546E+01  0.70016110612E+01  0.72461669675E+02  0.70000129461E+02 0.  0.
        -12    1    1    2    0    0 -0.16199141576E+02  0.62642399546E+01 -0.70016110612E+01  0.18726330325E+02  0.00000000000E+00 0.  1.
         11    1    3    3    0    0  0.24709689095E+01  0.28803476379E+02 -0.38672751303E+01  0.29166792009E+02  0.51100000000E-03 0. -1.
        -11    1    3    3    0    0 -0.20756144677E+00 -0.73942759059E+00 -0.34803458066E+01  0.35640766140E+01  0.51100000000E-03 0.  1.
        -12    1    3    3    0    0  0.13935734113E+02 -0.34328288743E+02  0.14349231998E+02  0.39730801052E+02  0.00000000000E+00 0.  1.
</event>
<event>
 7    1  0.2656097E-013  0.7246157E+02  0.7816164E-02  0.1226708E+00
        -11   -1    0    0    0    0  0.00000000000E+00  0.00000000000E+00  0.45593999997E+02  0.45594000000E+02  0.51100000000E-03 0.  1.
         11   -1    0    0    0    0 -0.00000000000E+00 -0.00000000000E+00 -0.45593999997E+02  0.45594000000E+02  0.51100000000E-03 0. -1.
    9900012    2    1    2    0    0 -0.39964470763E+01 -0.43292985381E+01 -0.17775396958E+02  0.72461570760E+02  0.70000000607E+02 0.  0.
        -12    1    1    2    0    0  0.39964470763E+01  0.43292985381E+01  0.17775396958E+02  0.18726429240E+02  0.00000000000E+00 0.  1.
         11    1    3    3    0    0  0.24817735287E+02 -0.14813276972E+02 -0.39641023765E+00  0.28905195048E+02  0.51100000000E-03 0. -1.
        -11    1    3    3    0    0  0.40811071365E+01  0.32856493508E+01  0.78224648938E+00  0.52974368281E+01  0.51100000000E-03 0.  1.
         12    1    3    3    0    0 -0.32895289500E+02  0.71983290828E+01 -0.18161233210E+02  0.38258938884E+02  0.00000000000E+00 0. -1.
</event>
<event>
 7    1  0.2656097E-013  0.7246158E+02  0.7816164E-02  0.1226708E+00
        -11   -1    0    0    0    0  0.00000000000E+00  0.00000000000E+00  0.45593999997E+02  0.45594000000E+02  0.51100000000E-03 0.  1.
         11   -1    0    0    0    0 -0.00000000000E+00 -0.00000000000E+00 -0.45593999997E+02  0.45594000000E+02  0.51100000000E-03 0. -1.
    9900012    2    1    2    0    0 -0.28010744465E+01  0.14360642394E+02 -0.11687807167E+02  0.72461577374E+02  0.70000009222E+02 0.  0.
        -12    1    1    2    0    0  0.28010744465E+01 -0.14360642394E+02  0.11687807167E+02  0.18726422626E+02  0.00000000000E+00 0.  1.
         11    1    3    3    0    0  0.10765898747E+02  0.14465507622E+00 -0.17477551078E+02  0.20527793181E+02  0.51100000000E-03 0. -1.
        -11    1    3    3    0    0 -0.47467787586E+01 -0.10169238523E+02 -0.14974747506E+02  0.18713321027E+02  0.51100000000E-03 0.  1.
        -12    1    3    3    0    0 -0.88201944351E+01  0.24385225840E+02  0.20764491418E+02  0.33220463166E+02  0.00000000000E+00 0.  1.
</event>
<event>
 7    1  0.2656097E-013  0.7246161E+02  0.7816164E-02  0.1226708E+00
        -11   -1    0    0    0    0  0.00000000000E+00  0.00000000000E+00  0.45593999997E+02  0.45594000000E+02  0.51100000000E-03 0. -1.
         11   -1    0    0    0    0 -0.00000000000E+00 -0.00000000000E+00 -0.45593999997E+02  0.45594000000E+02  0.51100000000E-03 0.  1.
    9900012    2    1    2    0    0 -0.51199010829E+01 -0.53848038395E+01  0.17189184748E+02  0.72461612955E+02  0.70000055573E+02 0.  0.
        -12    1    1    2    0    0  0.51199010829E+01  0.53848038395E+01 -0.17189184748E+02  0.18726387045E+02  0.00000000000E+00 0.  1.
         11    1    3    3    0    0 -0.16680814120E+02  0.43223327358E+01  0.32524683239E+02  0.36807433217E+02  0.51100000000E-03 0. -1.
        -11    1    3    3    0    0 -0.15593708671E+01 -0.23785976095E+01  0.76670117830E+01  0.81775567275E+01  0.51100000000E-03 0.  1.
        -12    1    3    3    0    0  0.13120283904E+02 -0.73285389657E+01 -0.23002510274E+02  0.27476623010E+02  0.00000000000E+00 0.  1.
</event>
<event>
 7    1  0.2656097E-013  0.7246160E+02  0.7816164E-02  0.1226708E+00
        -11   -1    0    0    0    0  0.00000000000E+00  0.00000000000E+00  0.45593999997E+02  0.45594000000E+02  0.51100000000E-03 0. -1.
         11   -1    0    0    0    0 -0.00000000000E+00 -0.00000000000E+00 -0.45593999997E+02  0.45594000000E+02  0.51100000000E-03 0.  1.
    9900012    2    1    2    0    0 -0.12220352585E+02 -0.25010193258E+01  0.13967314669E+02  0.72461601680E+02  0.70000040886E+02 0.  0.
        -12    1    1    2    0    0  0.12220352585E+02  0.25010193258E+01 -0.13967314669E+02  0.18726398320E+02  0.00000000000E+00 0.  1.
         11    1    3    3    0    0  0.37166719938E+01  0.35394685290E+01  0.28137489397E+02  0.28601744667E+02  0.51100000000E-03 0. -1.
        -11    1    3    3    0    0 -0.21286355119E+01  0.32619016037E+01  0.12125881363E+02  0.12736093997E+02  0.51100000000E-03 0.  1.
        -12    1    3    3    0    0 -0.13808389067E+02 -0.93023894586E+01 -0.26296056091E+02  0.31123763015E+02  0.00000000000E+00 0.  1.
</event>
<event>
 7    1  0.2656097E-013  0.7246166E+02  0.7816164E-02  0.1226708E+00
        -11   -1    0    0    0    0  0.00000000000E+00  0.00000000000E+00  0.45593999997E+02  0.45594000000E+02  0.51100000000E-03 0. -1.
         11   -1    0    0    0    0 -0.00000000000E+00 -0.00000000000E+00 -0.45593999997E+02  0.45594000000E+02  0.51100000000E-03 0.  1.
    9900012    2    1    2    0    0  0.11424384292E+02  0.14780390413E+02  0.13036303475E+01  0.72461656275E+02  0.70000112006E+02 0.  0.
        -12    1    1    2    0    0 -0.11424384292E+02 -0.14780390413E+02 -0.13036303475E+01  0.18726343725E+02  0.00000000000E+00 0.  1.
         11    1    3    3    0    0 -0.21562068289E+02 -0.23779520733E+01 -0.92489119848E+00  0.21712504898E+02  0.51100000000E-03 0. -1.
        -11    1    3    3    0    0 -0.39360603886E+00  0.15837558789E+02 -0.49157383205E+01  0.16587576002E+02  0.51100000000E-03 0.  1.
         12    1    3    3    0    0  0.33380058620E+02  0.13207836968E+01  0.71442598665E+01  0.34161575375E+02  0.00000000000E+00 0. -1.
</event>
<event>
 7    1  0.2656097E-013  0.7246208E+02  0.7816164E-02  0.1226707E+00
        -11   -1    0    0    0    0  0.00000000000E+00  0.00000000000E+00  0.45593999997E+02  0.45594000000E+02  0.51100000000E-03 0.  1.
         11   -1    0    0    0    0 -0.00000000000E+00 -0.00000000000E+00 -0.45593999997E+02  0.45594000000E+02  0.51100000000E-03 0. -1.
    9900012    2    1    2    0    0  0.41193321498E+01 -0.13527473514E+02 -0.12275944782E+02  0.72462075261E+02  0.70000657810E+02 0.  0.
        -12    1    1    2    0    0 -0.41193321498E+01  0.13527473514E+02  0.12275944782E+02  0.18725924739E+02  0.00000000000E+00 0.  1.
         11    1    3    3    0    0 -0.23147799804E+02  0.60567978891E+01 -0.10723859324E+02  0.26220346975E+02  0.51100000000E-03 0. -1.
        -11    1    3    3    0    0  0.15518932258E+02  0.59988006512E+01  0.49308675362E+01  0.17353279881E+02  0.51100000000E-03 0.  1.
        -12    1    3    3    0    0  0.11748199695E+02 -0.25583072054E+02 -0.64829529946E+01  0.28888448406E+02  0.00000000000E+00 0.  1.
</event>
<event>
 7    1  0.2656097E-013  0.7246157E+02  0.7816164E-02  0.1226708E+00
        -11   -1    0    0    0    0  0.00000000000E+00  0.00000000000E+00  0.45593999997E+02  0.45594000000E+02  0.51100000000E-03 0.  1.
         11   -1    0    0    0    0 -0.00000000000E+00 -0.00000000000E+00 -0.45593999997E+02  0.45594000000E+02  0.51100000000E-03 0. -1.
    9900012    2    1    2    0    0  0.12963913947E+02  0.80662826028E+01  0.10842108823E+02  0.72461566715E+02  0.69999995337E+02 0.  0.
        -12    1    1    2    0    0 -0.12963913947E+02 -0.80662826028E+01 -0.10842108823E+02  0.18726433285E+02  0.00000000000E+00 0.  1.
         11    1    3    3    0    0  0.51221186946E+01  0.95610212262E+01  0.15793105641E+02  0.19159107830E+02  0.51100000000E-03 0. -1.
        -11    1    3    3    0    0  0.11987006290E+02 -0.42298974304E+01  0.22264454746E+02  0.25637595392E+02  0.51100000000E-03 0.  1.
         12    1    3    3    0    0 -0.41452110379E+01  0.27351588070E+01 -0.27215451564E+02  0.27664863493E+02  0.00000000000E+00 0. -1.
</event>
<event>
 7    1  0.2656097E-013  0.7246152E+02  0.7816164E-02  0.1226708E+00
        -11   -1    0    0    0    0  0.00000000000E+00  0.00000000000E+00  0.45593999997E+02  0.45594000000E+02  0.51100000000E-03 0. -1.
         11   -1    0    0    0    0 -0.00000000000E+00 -0.00000000000E+00 -0.45593999997E+02  0.45594000000E+02  0.51100000000E-03 0.  1.
    9900012    2    1    2    0    0 -0.32470856271E+01  0.78671101904E+01  0.16680707759E+02  0.72461521442E+02  0.69999936361E+02 0.  0.
        -12    1    1    2    0    0  0.32470856271E+01 -0.78671101904E+01 -0.16680707759E+02  0.18726478558E+02  0.00000000000E+00 0.  1.
         11    1    3    3    0    0  0.11909249780E+02  0.14675084225E+02  0.22639880557E+02  0.29491566917E+02  0.51100000000E-03 0. -1.
        -11    1    3    3    0    0  0.12806735433E+02  0.21112925050E+01 -0.38716071839E+01  0.13544717455E+02  0.51100000000E-03 0.  1.
         12    1    3    3    0    0 -0.27963070840E+02 -0.89192665395E+01 -0.20875656141E+01  0.29425237070E+02  0.00000000000E+00 0. -1.
</event>
<event>
 7    1  0.2656097E-013  0.7246152E+02  0.7816164E-02  0.1226708E+00
        -11   -1    0    0    0    0  0.00000000000E+00  0.00000000000E+00  0.45593999997E+02  0.45594000000E+02  0.51100000000E-03 0.  1.
         11   -1    0    0    0    0 -0.00000000000E+00 -0.00000000000E+00 -0.45593999997E+02  0.45594000000E+02  0.51100000000E-03 0. -1.
    9900012    2    1    2    0    0  0.41808098149E+01  0.70214824094E+00 -0.18240312588E+02  0.72461516449E+02  0.69999929857E+02 0.  0.
        -12    1    1    2    0    0 -0.41808098149E+01 -0.70214824094E+00  0.18240312588E+02  0.18726483551E+02  0.00000000000E+00 0.  1.
         11    1    3    3    0    0  0.23496993547E+01 -0.15903275444E+01  0.82774780650E+01  0.87502498326E+01  0.51100000000E-03 0. -1.
        -11    1    3    3    0    0 -0.50947527461E+01  0.20399635984E+02  0.92940638093E+01  0.22988720629E+02  0.51100000000E-03 0.  1.
         12    1    3    3    0    0  0.69258632063E+01 -0.18107160199E+02 -0.35811854463E+02  0.40722545987E+02  0.00000000000E+00 0. -1.
</event>
<event>
 7    1  0.2656097E-013  0.7246154E+02  0.7816164E-02  0.1226708E+00
        -11   -1    0    0    0    0  0.00000000000E+00  0.00000000000E+00  0.45593999997E+02  0.45594000000E+02  0.51100000000E-03 0.  1.
         11   -1    0    0    0    0 -0.00000000000E+00 -0.00000000000E+00 -0.45593999997E+02  0.45594000000E+02  0.51100000000E-03 0. -1.
    9900012    2    1    2    0    0 -0.11151753901E+01  0.10777084810E+02 -0.15273868871E+02  0.72461541620E+02  0.69999962647E+02 0.  0.
        -12    1    1    2    0    0  0.11151753901E+01 -0.10777084810E+02  0.15273868871E+02  0.18726458380E+02  0.00000000000E+00 0.  1.
         11    1    3    3    0    0  0.27642424436E+02  0.45716593749E+01  0.75626272849E+01  0.29020631107E+02  0.51100000000E-03 0. -1.
        -11    1    3    3    0    0 -0.64504456353E+01  0.12025370999E+02 -0.10990336515E+02  0.17521566526E+02  0.51100000000E-03 0.  1.
        -12    1    3    3    0    0 -0.22307154191E+02 -0.58199455643E+01 -0.11846159641E+02  0.25919343987E+02  0.00000000000E+00 0.  1.
</event>
<event>
 7    1  0.2656097E-013  0.7246164E+02  0.7816164E-02  0.1226708E+00
        -11   -1    0    0    0    0  0.00000000000E+00  0.00000000000E+00  0.45593999997E+02  0.45594000000E+02  0.51100000000E-03 0.  1.
         11   -1    0    0    0    0 -0.00000000000E+00 -0.00000000000E+00 -0.45593999997E+02  0.45594000000E+02  0.51100000000E-03 0. -1.
    9900012    2    1    2    0    0 -0.18360562889E+01 -0.13122627212E+02 -0.13232621372E+02  0.72461635804E+02  0.70000085338E+02 0.  0.
        -12    1    1    2    0    0  0.18360562889E+01  0.13122627212E+02  0.13232621372E+02  0.18726364196E+02  0.00000000000E+00 0.  1.
         11    1    3    3    0    0 -0.67039178801E+01  0.58185413464E+01 -0.99919371370E+01  0.13365505840E+02  0.51100000000E-03 0. -1.
        -11    1    3    3    0    0 -0.23459141644E+02 -0.76360410183E+01  0.89591948244E+01  0.26247049763E+02  0.51100000000E-03 0.  1.
         12    1    3    3    0    0  0.28327003235E+02 -0.11305127540E+02 -0.12199879060E+02  0.32849080201E+02  0.00000000000E+00 0. -1.
</event>
<event>
 7    1  0.2656097E-013  0.7246186E+02  0.7816164E-02  0.1226707E+00
        -11   -1    0    0    0    0  0.00000000000E+00  0.00000000000E+00  0.45593999997E+02  0.45594000000E+02  0.51100000000E-03 0. -1.
         11   -1    0    0    0    0 -0.00000000000E+00 -0.00000000000E+00 -0.45593999997E+02  0.45594000000E+02  0.51100000000E-03 0.  1.
    9900012    2    1    2    0    0  0.39388233322E+01 -0.18287271703E+02 -0.85427996612E+00  0.72461857049E+02  0.70000373550E+02 0.  0.
        -12    1    1    2    0    0 -0.39388233322E+01  0.18287271703E+02  0.85427996612E+00  0.18726142951E+02  0.00000000000E+00 0.  1.
         11    1    3    3    0    0 -0.12472152006E+02  0.28544750740E+01  0.15087894617E+02  0.19782496502E+02  0.51100000000E-03 0. -1.
        -11    1    3    3    0    0  0.10526795630E+02  0.10890002112E+01  0.12321321468E+02  0.16242361610E+02  0.51100000000E-03 0.  1.
        -12    1    3    3    0    0  0.58841797081E+01 -0.22230746988E+02 -0.28263496051E+02  0.36436998937E+02  0.00000000000E+00 0.  1.
</event>
<event>
 7    1  0.2656097E-013  0.7246222E+02  0.7816164E-02  0.1226706E+00
        -11   -1    0    0    0    0  0.00000000000E+00  0.00000000000E+00  0.45593999997E+02  0.45594000000E+02  0.51100000000E-03 0.  1.
         11   -1    0    0    0    0 -0.00000000000E+00 -0.00000000000E+00 -0.45593999997E+02  0.45594000000E+02  0.51100000000E-03 0. -1.
    9900012    2    1    2    0    0  0.16913385659E+02 -0.79587644862E+01 -0.11182026389E+01  0.72462217674E+02  0.70000843327E+02 0.  0.
        -12    1    1    2    0    0 -0.16913385659E+02  0.79587644862E+01  0.11182026389E+01  0.18725782326E+02  0.00000000000E+00 0.  1.
         11    1    3    3    0    0  0.32453990348E+01 -0.54816782872E+01 -0.79952094330E+01  0.10222758232E+02  0.51100000000E-03 0. -1.
        -11    1    3    3    0    0  0.13475873183E+02  0.28137623409E+02  0.46562259803E+01  0.31543706976E+02  0.51100000000E-03 0.  1.
         12    1    3    3    0    0  0.19211344109E+00 -0.30614709608E+02  0.22207808137E+01  0.30695752465E+02  0.00000000000E+00 0. -1.
</event>
<event>
 7    1  0.2656097E-013  0.7246156E+02  0.7816164E-02  0.1226708E+00
        -11   -1    0    0    0    0  0.00000000000E+00  0.00000000000E+00  0.45593999997E+02  0.45594000000E+02  0.51100000000E-03 0. -1.
         11   -1    0    0    0    0 -0.00000000000E+00 -0.00000000000E+00 -0.45593999997E+02  0.45594000000E+02  0.51100000000E-03 0.  1.
    9900012    2    1    2    0    0 -0.15298770486E+02 -0.95374898865E+01  0.50659200361E+01  0.72461557798E+02  0.69999983722E+02 0.  0.
        -12    1    1    2    0    0  0.15298770486E+02  0.95374898865E+01 -0.50659200361E+01  0.18726442202E+02  0.00000000000E+00 0.  1.
         11    1    3    3    0    0 -0.14220712574E+01 -0.26657047410E+02  0.66708993935E+01  0.27515838389E+02  0.51100000000E-03 0. -1.
        -11    1    3    3    0    0  0.45646039052E-01  0.12711756092E+02  0.17042083703E+02  0.21260842968E+02  0.51100000000E-03 0.  1.
        -12    1    3    3    0    0 -0.13922345268E+02  0.44078014313E+01 -0.18647063061E+02  0.23684876441E+02  0.00000000000E+00 0.  1.
</event>
<event>
 7    1  0.2656097E-013  0.7246164E+02  0.7816164E-02  0.1226708E+00
        -11   -1    0    0    0    0  0.00000000000E+00  0.00000000000E+00  0.45593999997E+02  0.45594000000E+02  0.51100000000E-03 0.  1.
         11   -1    0    0    0    0 -0.00000000000E+00 -0.00000000000E+00 -0.45593999997E+02  0.45594000000E+02  0.51100000000E-03 0. -1.
    9900012    2    1    2    0    0 -0.16236947065E+02 -0.90795685832E+01  0.21446190300E+01  0.72461644070E+02  0.70000096106E+02 0.  0.
        -12    1    1    2    0    0  0.16236947065E+02  0.90795685832E+01 -0.21446190300E+01  0.18726355930E+02  0.00000000000E+00 0.  1.
         11    1    3    3    0    0 -0.94080322431E+01 -0.23513207249E+02 -0.61658619444E+01  0.26065299530E+02  0.51100000000E-03 0. -1.
        -11    1    3    3    0    0 -0.23765337418E+02  0.13234721077E+02  0.10738315330E+02  0.29244837509E+02  0.51100000000E-03 0.  1.
        -12    1    3    3    0    0  0.16936422596E+02  0.11989175892E+01 -0.24278343561E+01  0.17151507030E+02  0.00000000000E+00 0.  1.
</event>
<event>
 7    1  0.2656097E-013  0.7246156E+02  0.7816164E-02  0.1226708E+00
        -11   -1    0    0    0    0  0.00000000000E+00  0.00000000000E+00  0.45593999997E+02  0.45594000000E+02  0.51100000000E-03 0.  1.
         11   -1    0    0    0    0 -0.00000000000E+00 -0.00000000000E+00 -0.45593999997E+02  0.45594000000E+02  0.51100000000E-03 0. -1.
    9900012    2    1    2    0    0  0.56954439568E+01 -0.84477685049E+01 -0.15712307110E+02  0.72461562290E+02  0.69999989573E+02 0.  0.
        -12    1    1    2    0    0 -0.56954439568E+01  0.84477685049E+01  0.15712307110E+02  0.18726437710E+02  0.00000000000E+00 0.  1.
         11    1    3    3    0    0  0.19076878891E+01 -0.53447434505E-01 -0.74380704376E+00  0.20482624075E+01  0.51100000000E-03 0. -1.
        -11    1    3    3    0    0  0.48129779030E+01  0.22372949027E+02 -0.28698563004E+02  0.36705873144E+02  0.51100000000E-03 0.  1.
        -12    1    3    3    0    0 -0.10252218353E+01 -0.30767270098E+02  0.13730062938E+02  0.33707426739E+02  0.00000000000E+00 0.  1.
</event>
<event>
 7    1  0.2656097E-013  0.7246156E+02  0.7816164E-02  0.1226708E+00
        -11   -1    0    0    0    0  0.00000000000E+00  0.00000000000E+00  0.45593999997E+02  0.45594000000E+02  0.51100000000E-03 0. -1.
         11   -1    0    0    0    0 -0.00000000000E+00 -0.00000000000E+00 -0.45593999997E+02  0.45594000000E+02  0.51100000000E-03 0.  1.
    9900012    2    1    2    0    0  0.16733871199E+02  0.82898820717E+01  0.13910838833E+01  0.72461556012E+02  0.69999981394E+02 0.  0.
        -12    1    1    2    0    0 -0.16733871199E+02 -0.82898820717E+01 -0.13910838833E+01  0.18726443988E+02  0.00000000000E+00 0.  1.
         11    1    3    3    0    0 -0.65794585561E+01  0.19186432888E+01 -0.26666874824E+01  0.73540253841E+01  0.51100000000E-03 0. -1.
        -11    1    3    3    0    0 -0.11527643347E+02  0.79226159274E+01 -0.18782307086E+02  0.23418570921E+02  0.51100000000E-03 0.  1.
         12    1    3    3    0    0  0.34840973102E+02 -0.15513771445E+01  0.22840078451E+02  0.41688959707E+02  0.00000000000E+00 0. -1.
</event>
<event>
 7    1  0.2656097E-013  0.7246161E+02  0.7816164E-02  0.1226708E+00
        -11   -1    0    0    0    0  0.00000000000E+00  0.00000000000E+00  0.45593999997E+02  0.45594000000E+02  0.51100000000E-03 0. -1.
         11   -1    0    0    0    0 -0.00000000000E+00 -0.00000000000E+00 -0.45593999997E+02  0.45594000000E+02  0.51100000000E-03 0.  1.
    9900012    2    1    2    0    0  0.14871984930E+02 -0.81875850984E+01  0.79035011639E+01  0.72461606430E+02  0.70000047073E+02 0.  0.
        -12    1    1    2    0    0 -0.14871984930E+02  0.81875850984E+01 -0.79035011639E+01  0.18726393570E+02  0.00000000000E+00 0.  1.
         11    1    3    3    0    0  0.29809805415E+02  0.88360153198E+01 -0.86016845894E+01  0.32259706193E+02  0.51100000000E-03 0. -1.
        -11    1    3    3    0    0  0.31479908589E+01 -0.18256817816E+02  0.80664370782E+01  0.20206153781E+02  0.51100000000E-03 0.  1.
        -12    1    3    3    0    0 -0.18085811344E+02  0.12332173979E+01  0.84387486751E+01  0.19995746456E+02  0.00000000000E+00 0.  1.
</event>
<event>
 7    1  0.2656097E-013  0.7246157E+02  0.7816164E-02  0.1226708E+00
        -11   -1    0    0    0    0  0.00000000000E+00  0.00000000000E+00  0.45593999997E+02  0.45594000000E+02  0.51100000000E-03 0.  1.
         11   -1    0    0    0    0 -0.00000000000E+00 -0.00000000000E+00 -0.45593999997E+02  0.45594000000E+02  0.51100000000E-03 0. -1.
    9900012    2    1    2    0    0 -0.12067260810E+02 -0.14142793801E+02  0.22454314990E+01  0.72461565140E+02  0.69999993285E+02 0.  0.
        -12    1    1    2    0    0  0.12067260810E+02  0.14142793801E+02 -0.22454314990E+01  0.18726434860E+02  0.00000000000E+00 0.  1.
         11    1    3    3    0    0  0.33528450253E+01 -0.26292912405E+02 -0.64082933383E+01  0.27269489109E+02  0.51100000000E-03 0. -1.
        -11    1    3    3    0    0  0.12793216858E+02  0.48542317226E+01 -0.26458242106E+01  0.13936654878E+02  0.51100000000E-03 0.  1.
         12    1    3    3    0    0 -0.28213322693E+02  0.72958868807E+01  0.11299549048E+02  0.31255421153E+02  0.00000000000E+00 0. -1.
</event>
<event>
 7    1  0.2656097E-013  0.7246153E+02  0.7816164E-02  0.1226708E+00
        -11   -1    0    0    0    0  0.00000000000E+00  0.00000000000E+00  0.45593999997E+02  0.45594000000E+02  0.51100000000E-03 0.  1.
         11   -1    0    0    0    0 -0.00000000000E+00 -0.00000000000E+00 -0.45593999997E+02  0.45594000000E+02  0.51100000000E-03 0. -1.
    9900012    2    1    2    0    0  0.39911926878E+01  0.93476396271E+01 -0.15728086175E+02  0.72461529953E+02  0.69999947448E+02 0.  0.
        -12    1    1    2    0    0 -0.39911926878E+01 -0.93476396271E+01  0.15728086175E+02  0.18726470047E+02  0.00000000000E+00 0.  1.
         11    1    3    3    0    0  0.60596643699E+01 -0.27190715432E+01  0.16103995366E+01  0.68341985090E+01  0.51100000000E-03 0. -1.
        -11    1    3    3    0    0  0.20896968853E+02 -0.53686408911E+01  0.11835596740E+02  0.24608676574E+02  0.51100000000E-03 0.  1.
         12    1    3    3    0    0 -0.22965440535E+02  0.17435352061E+02 -0.29174082452E+02  0.41018654871E+02  0.00000000000E+00 0. -1.
</event>
<event>
 7    1  0.2656097E-013  0.7246152E+02  0.7816164E-02  0.1226708E+00
        -11   -1    0    0    0    0  0.00000000000E+00  0.00000000000E+00  0.45593999997E+02  0.45594000000E+02  0.51100000000E-03 0. -1.
         11   -1    0    0    0    0 -0.00000000000E+00 -0.00000000000E+00 -0.45593999997E+02  0.45594000000E+02  0.51100000000E-03 0.  1.
    9900012    2    1    2    0    0 -0.34281425594E+01 -0.17799827963E+02  0.47005309158E+01  0.72461520677E+02  0.69999935365E+02 0.  0.
        -12    1    1    2    0    0  0.34281425594E+01  0.17799827963E+02 -0.47005309158E+01  0.18726479323E+02  0.00000000000E+00 0.  1.
         11    1    3    3    0    0 -0.74140487712E+01 -0.19062501557E+02  0.25369975581E+02  0.32588076747E+02  0.51100000000E-03 0. -1.
        -11    1    3    3    0    0 -0.11389894038E+02 -0.92243563725E+01 -0.48237772635E+01  0.15430076605E+02  0.51100000000E-03 0.  1.
        -12    1    3    3    0    0  0.15375800250E+02  0.10487029967E+02 -0.15845667402E+02  0.24443367326E+02  0.00000000000E+00 0.  1.
</event>
<event>
 7    1  0.2656097E-013  0.7246226E+02  0.7816164E-02  0.1226706E+00
        -11   -1    0    0    0    0  0.00000000000E+00  0.00000000000E+00  0.45593999997E+02  0.45594000000E+02  0.51100000000E-03 0. -1.
         11   -1    0    0    0    0 -0.00000000000E+00 -0.00000000000E+00 -0.45593999997E+02  0.45594000000E+02  0.51100000000E-03 0.  1.
    9900012    2    1    2    0    0 -0.34051661276E+01  0.22925043801E+01  0.18270269615E+02  0.72462256103E+02  0.70000893388E+02 0.  0.
        -12    1    1    2    0    0  0.34051661276E+01 -0.22925043801E+01 -0.18270269615E+02  0.18725743897E+02  0.00000000000E+00 0.  1.
         11    1    3    3    0    0 -0.24006444179E+02  0.63113010968E+01  0.95787570771E+01  0.26606286307E+02  0.51100000000E-03 0. -1.
        -11    1    3    3    0    0 -0.99960109946E+00  0.13860389795E+02  0.10996555813E+02  0.17721000187E+02  0.51100000000E-03 0.  1.
        -12    1    3    3    0    0  0.21600879151E+02 -0.17879186512E+02 -0.23050432760E+01  0.28134969609E+02  0.00000000000E+00 0.  1.
</event>
<event>
 7    1  0.2656097E-013  0.7246156E+02  0.7816164E-02  0.1226708E+00
        -11   -1    0    0    0    0  0.00000000000E+00  0.00000000000E+00  0.45593999997E+02  0.45594000000E+02  0.51100000000E-03 0.  1.
         11   -1    0    0    0    0 -0.00000000000E+00 -0.00000000000E+00 -0.45593999997E+02  0.45594000000E+02  0.51100000000E-03 0. -1.
    9900012    2    1    2    0    0  0.84361903643E+01  0.11694806057E+02 -0.11947463231E+02  0.72461556819E+02  0.69999982445E+02 0.  0.
        -12    1    1    2    0    0 -0.84361903643E+01 -0.11694806057E+02  0.11947463231E+02  0.18726443181E+02  0.00000000000E+00 0.  1.
         11    1    3    3    0    0 -0.22976992229E+01  0.12204295593E+02 -0.32470962432E+01  0.12836194409E+02  0.51100000000E-03 0. -1.
        -11    1    3    3    0    0 -0.95011960022E+01 -0.10481006638E+02 -0.27063406696E+02  0.30537717791E+02  0.51100000000E-03 0.  1.
        -12    1    3    3    0    0  0.20235085589E+02  0.99715171019E+01  0.18363039708E+02  0.29087644619E+02  0.00000000000E+00 0.  1.
</event>
<event>
 7    1  0.2656097E-013  0.7246165E+02  0.7816164E-02  0.1226708E+00
        -11   -1    0    0    0    0  0.00000000000E+00  0.00000000000E+00  0.45593999997E+02  0.45594000000E+02  0.51100000000E-03 0. -1.
         11   -1    0    0    0    0 -0.00000000000E+00 -0.00000000000E+00 -0.45593999997E+02  0.45594000000E+02  0.51100000000E-03 0.  1.
    9900012    2    1    2    0    0  0.50180592528E+01 -0.13316427041E+02  0.12172422880E+02  0.72461654212E+02  0.70000109318E+02 0.  0.
        -12    1    1    2    0    0 -0.50180592528E+01  0.13316427041E+02 -0.12172422880E+02  0.18726345788E+02  0.00000000000E+00 0.  1.
         11    1    3    3    0    0 -0.24636619516E+01 -0.50601800360E+01  0.24071480036E+02  0.24720663494E+02  0.51100000000E-03 0. -1.
        -11    1    3    3    0    0 -0.12717370457E+02  0.12096441225E+02 -0.40822604485E+01  0.18019995901E+02  0.51100000000E-03 0.  1.
        -12    1    3    3    0    0  0.20199091662E+02 -0.20352688230E+02 -0.78167967075E+01  0.29720994817E+02  0.00000000000E+00 0.  1.
</event>
<event>
 7    1  0.2656097E-013  0.7246155E+02  0.7816164E-02  0.1226708E+00
        -11   -1    0    0    0    0  0.00000000000E+00  0.00000000000E+00  0.45593999997E+02  0.45594000000E+02  0.51100000000E-03 0.  1.
         11   -1    0    0    0    0 -0.00000000000E+00 -0.00000000000E+00 -0.45593999997E+02  0.45594000000E+02  0.51100000000E-03 0. -1.
    9900012    2    1    2    0    0  0.17287096416E+02  0.15287983623E+00 -0.71981208178E+01  0.72461547639E+02  0.69999970487E+02 0.  0.
        -12    1    1    2    0    0 -0.17287096416E+02 -0.15287983623E+00  0.71981208178E+01  0.18726452361E+02  0.00000000000E+00 0.  1.
         11    1    3    3    0    0  0.78440799616E+01  0.31210389693E+01 -0.41917299957E+01  0.94255543768E+01  0.51100000000E-03 0. -1.
        -11    1    3    3    0    0 -0.12241702125E+02 -0.23682811469E+02 -0.15170951478E+02  0.30673972664E+02  0.51100000000E-03 0.  1.
         12    1    3    3    0    0  0.21684718579E+02  0.20714652335E+02  0.12164560656E+02  0.32362020598E+02  0.00000000000E+00 0. -1.
</event>
<event>
 7    1  0.2656097E-013  0.7246158E+02  0.7816164E-02  0.1226708E+00
        -11   -1    0    0    0    0  0.00000000000E+00  0.00000000000E+00  0.45593999997E+02  0.45594000000E+02  0.51100000000E-03 0. -1.
         11   -1    0    0    0    0 -0.00000000000E+00 -0.00000000000E+00 -0.45593999997E+02  0.45594000000E+02  0.51100000000E-03 0.  1.
    9900012    2    1    2    0    0 -0.11593621002E+02 -0.67775356978E+01  0.13051115693E+02  0.72461583928E+02  0.70000017760E+02 0.  0.
        -12    1    1    2    0    0  0.11593621002E+02  0.67775356978E+01 -0.13051115693E+02  0.18726416072E+02  0.00000000000E+00 0.  1.
         11    1    3    3    0    0 -0.11129083863E+02  0.15762101031E+02  0.16811381332E+02  0.25591461058E+02  0.51100000000E-03 0. -1.
        -11    1    3    3    0    0 -0.15693837323E+02  0.18480365601E+01  0.53912350517E+01  0.16696621955E+02  0.51100000000E-03 0.  1.
        -12    1    3    3    0    0  0.15229300184E+02 -0.24387673289E+02 -0.91515006902E+01  0.30173500915E+02  0.00000000000E+00 0.  1.
</event>
<event>
 7    1  0.2656097E-013  0.7246147E+02  0.7816164E-02  0.1226708E+00
        -11   -1    0    0    0    0  0.00000000000E+00  0.00000000000E+00  0.45593999997E+02  0.45594000000E+02  0.51100000000E-03 0.  1.
         11   -1    0    0    0    0 -0.00000000000E+00 -0.00000000000E+00 -0.45593999997E+02  0.45594000000E+02  0.51100000000E-03 0. -1.
    9900012    2    1    2    0    0  0.26063053471E-01 -0.17979453392E+02  0.52365463886E+01  0.72461472248E+02  0.69999872276E+02 0.  0.
        -12    1    1    2    0    0 -0.26063053471E-01  0.17979453392E+02 -0.52365463886E+01  0.18726527752E+02  0.00000000000E+00 0.  1.
         11    1    3    3    0    0  0.92808257290E+00  0.95989422721E+01  0.27663977599E+02  0.29296700956E+02  0.51100000000E-03 0. -1.
        -11    1    3    3    0    0  0.11304319267E+01  0.45318795206E+01 -0.22265472688E+01  0.51742942835E+01  0.51100000000E-03 0.  1.
         12    1    3    3    0    0 -0.20324514462E+01 -0.32110275185E+02 -0.20200883942E+02  0.37990477009E+02  0.00000000000E+00 0. -1.
</event>
<event>
 7    1  0.2656097E-013  0.7246173E+02  0.7816164E-02  0.1226708E+00
        -11   -1    0    0    0    0  0.00000000000E+00  0.00000000000E+00  0.45593999997E+02  0.45594000000E+02  0.51100000000E-03 0. -1.
         11   -1    0    0    0    0 -0.00000000000E+00 -0.00000000000E+00 -0.45593999997E+02  0.45594000000E+02  0.51100000000E-03 0.  1.
    9900012    2    1    2    0    0 -0.18145516457E+02  0.80776950268E+00 -0.45564323186E+01  0.72461726090E+02  0.70000202953E+02 0.  0.
        -12    1    1    2    0    0  0.18145516457E+02 -0.80776950268E+00  0.45564323186E+01  0.18726273910E+02  0.00000000000E+00 0.  1.
         11    1    3    3    0    0 -0.60792659776E+01  0.63906748190E+01 -0.21311898864E+01  0.90741484482E+01  0.51100000000E-03 0. -1.
        -11    1    3    3    0    0  0.39771160585E+00 -0.29496303199E+02 -0.15605253631E+02  0.33372354099E+02  0.51100000000E-03 0.  1.
         12    1    3    3    0    0 -0.12463962085E+02  0.23913397883E+02  0.13180011199E+02  0.30015223544E+02  0.00000000000E+00 0. -1.
</event>
<event>
 7    1  0.2656097E-013  0.7246157E+02  0.7816164E-02  0.1226708E+00
        -11   -1    0    0    0    0  0.00000000000E+00  0.00000000000E+00  0.45593999997E+02  0.45594000000E+02  0.51100000000E-03 0. -1.
         11   -1    0    0    0    0 -0.00000000000E+00 -0.00000000000E+00 -0.45593999997E+02  0.45594000000E+02  0.51100000000E-03 0.  1.
    9900012    2    1    2    0    0 -0.16595945926E+02 -0.68573006032E+01 -0.53133094153E+01  0.72461568154E+02  0.69999997211E+02 0.  0.
        -12    1    1    2    0    0  0.16595945926E+02  0.68573006032E+01  0.53133094153E+01  0.18726431846E+02  0.00000000000E+00 0.  1.
         11    1    3    3    0    0  0.58824037528E+01  0.13483466067E+02 -0.15582959016E+02  0.21429772352E+02  0.51100000000E-03 0. -1.
        -11    1    3    3    0    0  0.11846208482E+01  0.72660740182E+01 -0.75451828482E+01  0.10541771325E+02  0.51100000000E-03 0.  1.
         12    1    3    3    0    0 -0.23662970527E+02 -0.27606840688E+02  0.17814832449E+02  0.40490024477E+02  0.00000000000E+00 0. -1.
</event>
<event>
 7    1  0.2656097E-013  0.7246136E+02  0.7816164E-02  0.1226709E+00
        -11   -1    0    0    0    0  0.00000000000E+00  0.00000000000E+00  0.45593999997E+02  0.45594000000E+02  0.51100000000E-03 0.  1.
         11   -1    0    0    0    0 -0.00000000000E+00 -0.00000000000E+00 -0.45593999997E+02  0.45594000000E+02  0.51100000000E-03 0. -1.
    9900012    2    1    2    0    0  0.66324675893E+01 -0.12338127961E+02 -0.12428518706E+02  0.72461358413E+02  0.69999723985E+02 0.  0.
        -12    1    1    2    0    0 -0.66324675893E+01  0.12338127961E+02  0.12428518706E+02  0.18726641587E+02  0.00000000000E+00 0.  1.
         11    1    3    3    0    0 -0.76273365492E+00  0.39084801809E+01  0.98477072661E+00  0.41021645015E+01  0.51100000000E-03 0. -1.
        -11    1    3    3    0    0 -0.23453181636E+02 -0.11755233174E+02  0.11313350617E+02  0.28569724155E+02  0.51100000000E-03 0.  1.
         12    1    3    3    0    0  0.30848382881E+02 -0.44913749672E+01 -0.24726640049E+02  0.39789469757E+02  0.00000000000E+00 0. -1.
</event>
<event>
 7    1  0.2656097E-013  0.7246156E+02  0.7816164E-02  0.1226708E+00
        -11   -1    0    0    0    0  0.00000000000E+00  0.00000000000E+00  0.45593999997E+02  0.45594000000E+02  0.51100000000E-03 0.  1.
         11   -1    0    0    0    0 -0.00000000000E+00 -0.00000000000E+00 -0.45593999997E+02  0.45594000000E+02  0.51100000000E-03 0. -1.
    9900012    2    1    2    0    0 -0.13415911915E+02 -0.90465996703E+01  0.94261227807E+01  0.72461562838E+02  0.69999990287E+02 0.  0.
        -12    1    1    2    0    0  0.13415911915E+02  0.90465996703E+01 -0.94261227807E+01  0.18726437162E+02  0.00000000000E+00 0.  1.
         11    1    3    3    0    0  0.87038239983E+01  0.51500736809E+01 -0.20192129099E+01  0.10312954579E+02  0.51100000000E-03 0. -1.
        -11    1    3    3    0    0  0.83904951134E+01  0.88374869121E+01 -0.12163089068E+02  0.17217500373E+02  0.51100000000E-03 0.  1.
         12    1    3    3    0    0 -0.30510231026E+02 -0.23034160263E+02  0.23608424758E+02  0.44931107886E+02  0.00000000000E+00 0. -1.
</event>
<event>
 7    1  0.2656097E-013  0.7246164E+02  0.7816164E-02  0.1226708E+00
        -11   -1    0    0    0    0  0.00000000000E+00  0.00000000000E+00  0.45593999997E+02  0.45594000000E+02  0.51100000000E-03 0.  1.
         11   -1    0    0    0    0 -0.00000000000E+00 -0.00000000000E+00 -0.45593999997E+02  0.45594000000E+02  0.51100000000E-03 0. -1.
    9900012    2    1    2    0    0 -0.30023457381E+01 -0.10386359377E+02 -0.15290066024E+02  0.72461637298E+02  0.70000087285E+02 0.  0.
        -12    1    1    2    0    0  0.30023457381E+01  0.10386359377E+02  0.15290066024E+02  0.18726362702E+02  0.00000000000E+00 0.  1.
         11    1    3    3    0    0 -0.46789528796E+01 -0.54839518671E+01  0.53524790534E+01  0.89786057052E+01  0.51100000000E-03 0. -1.
        -11    1    3    3    0    0 -0.56445579883E+01  0.19444402354E+02  0.10880350135E+02  0.22985383119E+02  0.51100000000E-03 0.  1.
         12    1    3    3    0    0  0.73211651299E+01 -0.24346809864E+02 -0.31522895212E+02  0.40497648474E+02  0.00000000000E+00 0. -1.
</event>
<event>
 7    1  0.2656097E-013  0.7246155E+02  0.7816164E-02  0.1226708E+00
        -11   -1    0    0    0    0  0.00000000000E+00  0.00000000000E+00  0.45593999997E+02  0.45594000000E+02  0.51100000000E-03 0. -1.
         11   -1    0    0    0    0 -0.00000000000E+00 -0.00000000000E+00 -0.45593999997E+02  0.45594000000E+02  0.51100000000E-03 0.  1.
    9900012    2    1    2    0    0 -0.13881780855E+02  0.17752308384E+01  0.12442855060E+02  0.72461550089E+02  0.69999973679E+02 0.  0.
        -12    1    1    2    0    0  0.13881780855E+02 -0.17752308384E+01 -0.12442855060E+02  0.18726449911E+02  0.00000000000E+00 0.  1.
         11    1    3    3    0    0 -0.32090441872E+02 -0.46391880385E+00 -0.32425967512E+00  0.32095433083E+02  0.51100000000E-03 0. -1.
        -11    1    3    3    0    0 -0.99839780513E+01  0.14588424587E+01  0.34536764991E+01  0.10664704434E+02  0.51100000000E-03 0.  1.
         12    1    3    3    0    0  0.28192639069E+02  0.78030718359E+00  0.93134382359E+01  0.29701412571E+02  0.00000000000E+00 0. -1.
</event>
<event>
 7    1  0.2656097E-013  0.7246160E+02  0.7816164E-02  0.1226708E+00
        -11   -1    0    0    0    0  0.00000000000E+00  0.00000000000E+00  0.45593999997E+02  0.45594000000E+02  0.51100000000E-03 0.  1.
         11   -1    0    0    0    0 -0.00000000000E+00 -0.00000000000E+00 -0.45593999997E+02  0.45594000000E+02  0.51100000000E-03 0. -1.
    9900012    2    1    2    0    0 -0.18371588346E+01 -0.93933697776E+01 -0.16095575948E+02  0.72461598491E+02  0.70000036731E+02 0.  0.
        -12    1    1    2    0    0  0.18371588346E+01  0.93933697776E+01  0.16095575948E+02  0.18726401509E+02  0.00000000000E+00 0.  1.
         11    1    3    3    0    0 -0.94921161589E+01 -0.15862242497E+02 -0.28043211584E+02  0.33587687066E+02  0.51100000000E-03 0. -1.
        -11    1    3    3    0    0  0.97465975345E+01  0.16288735321E+02 -0.45881566391E+01  0.19528703067E+02  0.51100000000E-03 0.  1.
        -12    1    3    3    0    0 -0.20916402102E+01 -0.98198626018E+01  0.16535792275E+02  0.19345208359E+02  0.00000000000E+00 0.  1.
</event>
<event>
 7    1  0.2656097E-013  0.7246164E+02  0.7816164E-02  0.1226708E+00
        -11   -1    0    0    0    0  0.00000000000E+00  0.00000000000E+00  0.45593999997E+02  0.45594000000E+02  0.51100000000E-03 0.  1.
         11   -1    0    0    0    0 -0.00000000000E+00 -0.00000000000E+00 -0.45593999997E+02  0.45594000000E+02  0.51100000000E-03 0. -1.
    9900012    2    1    2    0    0  0.91370771011E+01 -0.77438769924E+01 -0.14395235577E+02  0.72461638471E+02  0.70000088812E+02 0.  0.
        -12    1    1    2    0    0 -0.91370771011E+01  0.77438769924E+01  0.14395235577E+02  0.18726361529E+02  0.00000000000E+00 0.  1.
         11    1    3    3    0    0  0.22644874990E+01 -0.19062489593E+02 -0.14099318215E+02  0.23818001333E+02  0.51100000000E-03 0. -1.
        -11    1    3    3    0    0  0.17821677095E+02  0.17047300731E+02  0.15087902187E+02  0.28911371973E+02  0.51100000000E-03 0.  1.
         12    1    3    3    0    0 -0.10949087493E+02 -0.57286881295E+01 -0.15383819549E+02  0.19732265165E+02  0.00000000000E+00 0. -1.
</event>
<event>
 7    1  0.2656097E-013  0.7246153E+02  0.7816164E-02  0.1226708E+00
        -11   -1    0    0    0    0  0.00000000000E+00  0.00000000000E+00  0.45593999997E+02  0.45594000000E+02  0.51100000000E-03 0. -1.
         11   -1    0    0    0    0 -0.00000000000E+00 -0.00000000000E+00 -0.45593999997E+02  0.45594000000E+02  0.51100000000E-03 0.  1.
    9900012    2    1    2    0    0 -0.71455326823E+01  0.17300326543E+02  0.56632755318E+00  0.72461530426E+02  0.69999948065E+02 0.  0.
        -12    1    1    2    0    0  0.71455326823E+01 -0.17300326543E+02 -0.56632755318E+00  0.18726469574E+02  0.00000000000E+00 0.  1.
         11    1    3    3    0    0 -0.10024598408E+02  0.49078680825E+00  0.12739643978E+02  0.16218260508E+02  0.51100000000E-03 0. -1.
        -11    1    3    3    0    0 -0.13521189505E+02 -0.14305208404E+02 -0.55638703009E+01  0.20455273308E+02  0.51100000000E-03 0.  1.
        -12    1    3    3    0    0  0.16400255231E+02  0.31114748138E+02 -0.66094461241E+01  0.35787996611E+02  0.00000000000E+00 0.  1.
</event>
<event>
 7    1  0.2656097E-013  0.7246148E+02  0.7816164E-02  0.1226708E+00
        -11   -1    0    0    0    0  0.00000000000E+00  0.00000000000E+00  0.45593999997E+02  0.45594000000E+02  0.51100000000E-03 0.  1.
         11   -1    0    0    0    0 -0.00000000000E+00 -0.00000000000E+00 -0.45593999997E+02  0.45594000000E+02  0.51100000000E-03 0. -1.
    9900012    2    1    2    0    0 -0.15773038426E+02  0.23791123355E+01 -0.98098651265E+01  0.72461484828E+02  0.69999888664E+02 0.  0.
        -12    1    1    2    0    0  0.15773038426E+02 -0.23791123355E+01  0.98098651265E+01  0.18726515172E+02  0.00000000000E+00 0.  1.
         11    1    3    3    0    0  0.34732061906E+01 -0.10104614253E+02 -0.24240176941E+01  0.10956379533E+02  0.51100000000E-03 0. -1.
        -11    1    3    3    0    0  0.16014937325E+02 -0.10279528453E+02 -0.35641069498E+01  0.19361037714E+02  0.51100000000E-03 0.  1.
         12    1    3    3    0    0 -0.35261181942E+02  0.22763255041E+02 -0.38217404826E+01  0.42144067581E+02  0.00000000000E+00 0. -1.
</event>
<event>
 7    1  0.2656097E-013  0.7246159E+02  0.7816164E-02  0.1226708E+00
        -11   -1    0    0    0    0  0.00000000000E+00  0.00000000000E+00  0.45593999997E+02  0.45594000000E+02  0.51100000000E-03 0. -1.
         11   -1    0    0    0    0 -0.00000000000E+00 -0.00000000000E+00 -0.45593999997E+02  0.45594000000E+02  0.51100000000E-03 0.  1.
    9900012    2    1    2    0    0 -0.18048212698E-01  0.38838159683E+01  0.18319227124E+02  0.72461589916E+02  0.70000025561E+02 0.  0.
        -12    1    1    2    0    0  0.18048212698E-01 -0.38838159683E+01 -0.18319227124E+02  0.18726410084E+02  0.00000000000E+00 0.  1.
         11    1    3    3    0    0 -0.72317784440E+01  0.85472270003E+01  0.29573704531E+01  0.11580144607E+02  0.51100000000E-03 0. -1.
        -11    1    3    3    0    0  0.74084257673E+01  0.22252681426E+02  0.23054128557E+02  0.32887071119E+02  0.51100000000E-03 0.  1.
         12    1    3    3    0    0 -0.19469553599E+00 -0.26916092458E+02 -0.76922718866E+01  0.27994374191E+02  0.00000000000E+00 0. -1.
</event>
<event>
 7    1  0.2656097E-013  0.7246146E+02  0.7816164E-02  0.1226708E+00
        -11   -1    0    0    0    0  0.00000000000E+00  0.00000000000E+00  0.45593999997E+02  0.45594000000E+02  0.51100000000E-03 0. -1.
         11   -1    0    0    0    0 -0.00000000000E+00 -0.00000000000E+00 -0.45593999997E+02  0.45594000000E+02  0.51100000000E-03 0.  1.
    9900012    2    1    2    0    0  0.71544005350E+01 -0.12408282076E+01  0.17261465302E+02  0.72461460383E+02  0.69999856820E+02 0.  0.
        -12    1    1    2    0    0 -0.71544005350E+01  0.12408282076E+01 -0.17261465302E+02  0.18726539617E+02  0.00000000000E+00 0.  1.
         11    1    3    3    0    0  0.71969547697E+01  0.33246893575E+00 -0.14466243472E+02  0.16161030104E+02  0.51100000000E-03 0. -1.
        -11    1    3    3    0    0  0.19113441532E+02  0.11858665340E+02  0.10980800583E+02  0.25030572757E+02  0.51100000000E-03 0.  1.
         12    1    3    3    0    0 -0.19155995766E+02 -0.13431962484E+02  0.20746908191E+02  0.31269857522E+02  0.00000000000E+00 0. -1.
</event>
<event>
 7    1  0.2656097E-013  0.7246156E+02  0.7816164E-02  0.1226708E+00
        -11   -1    0    0    0    0  0.00000000000E+00  0.00000000000E+00  0.45593999997E+02  0.45594000000E+02  0.51100000000E-03 0.  1.
         11   -1    0    0    0    0 -0.00000000000E+00 -0.00000000000E+00 -0.45593999997E+02  0.45594000000E+02  0.51100000000E-03 0. -1.
    9900012    2    1    2    0    0  0.16532886250E+00 -0.88514751301E+01 -0.16501623960E+02  0.72461560431E+02  0.69999987151E+02 0.  0.
        -12    1    1    2    0    0 -0.16532886250E+00  0.88514751301E+01  0.16501623960E+02  0.18726439569E+02  0.00000000000E+00 0.  1.
         11    1    3    3    0    0 -0.14936209969E+00  0.13693116739E+02  0.82543852236E+00  0.13718786538E+02  0.51100000000E-03 0. -1.
        -11    1    3    3    0    0  0.31136481439E+01  0.12891598656E+01  0.16737908854E+02  0.17073790762E+02  0.51100000000E-03 0.  1.
        -12    1    3    3    0    0 -0.27989571817E+01 -0.23833751735E+02 -0.34064971336E+02  0.41668983131E+02  0.00000000000E+00 0.  1.
</event>
<event>
 7    1  0.2656097E-013  0.7246137E+02  0.7816164E-02  0.1226709E+00
        -11   -1    0    0    0    0  0.00000000000E+00  0.00000000000E+00  0.45593999997E+02  0.45594000000E+02  0.51100000000E-03 0.  1.
         11   -1    0    0    0    0 -0.00000000000E+00 -0.00000000000E+00 -0.45593999997E+02  0.45594000000E+02  0.51100000000E-03 0. -1.
    9900012    2    1    2    0    0  0.11761428296E+01 -0.17556931945E+02 -0.64076170496E+01  0.72461368495E+02  0.69999737118E+02 0.  0.
        -12    1    1    2    0    0 -0.11761428296E+01  0.17556931945E+02  0.64076170496E+01  0.18726631505E+02  0.00000000000E+00 0.  1.
         11    1    3    3    0    0  0.46017604131E+01  0.42057872887E+01 -0.25802712180E+02  0.26545146481E+02  0.51100000000E-03 0. -1.
        -11    1    3    3    0    0  0.11649509301E+02  0.19951553104E+01  0.11957109005E+02  0.16812619298E+02  0.51100000000E-03 0.  1.
         12    1    3    3    0    0 -0.15075126884E+02 -0.23757874544E+02  0.74379861254E+01  0.29103602716E+02  0.00000000000E+00 0. -1.
</event>
<event>
 7    1  0.2656097E-013  0.7246162E+02  0.7816164E-02  0.1226708E+00
        -11   -1    0    0    0    0  0.00000000000E+00  0.00000000000E+00  0.45593999997E+02  0.45594000000E+02  0.51100000000E-03 0. -1.
         11   -1    0    0    0    0 -0.00000000000E+00 -0.00000000000E+00 -0.45593999997E+02  0.45594000000E+02  0.51100000000E-03 0.  1.
    9900012    2    1    2    0    0  0.15782193174E+01 -0.18467110010E+02  0.26744199903E+01  0.72461616189E+02  0.70000059787E+02 0.  0.
        -12    1    1    2    0    0 -0.15782193174E+01  0.18467110010E+02 -0.26744199903E+01  0.18726383811E+02  0.00000000000E+00 0.  1.
         11    1    3    3    0    0  0.16272899508E+02  0.31973127466E+01  0.13753071012E+02  0.21544768036E+02  0.51100000000E-03 0. -1.
        -11    1    3    3    0    0 -0.16789649422E+02  0.64538397177E+01  0.47198787704E+01  0.18596280023E+02  0.51100000000E-03 0.  1.
        -12    1    3    3    0    0  0.20949692309E+01 -0.28118262474E+02 -0.15798529792E+02  0.32320568130E+02  0.00000000000E+00 0.  1.
</event>
<event>
 7    1  0.2656097E-013  0.7246157E+02  0.7816164E-02  0.1226708E+00
        -11   -1    0    0    0    0  0.00000000000E+00  0.00000000000E+00  0.45593999997E+02  0.45594000000E+02  0.51100000000E-03 0. -1.
         11   -1    0    0    0    0 -0.00000000000E+00 -0.00000000000E+00 -0.45593999997E+02  0.45594000000E+02  0.51100000000E-03 0.  1.
    9900012    2    1    2    0    0  0.57987297388E+01 -0.88817986014E+01  0.15432682651E+02  0.72461566629E+02  0.69999995226E+02 0.  0.
        -12    1    1    2    0    0 -0.57987297388E+01  0.88817986014E+01 -0.15432682651E+02  0.18726433371E+02  0.00000000000E+00 0.  1.
         11    1    3    3    0    0 -0.75194079731E+01  0.74177191038E+01  0.16292485390E+02  0.19416723035E+02  0.51100000000E-03 0. -1.
        -11    1    3    3    0    0  0.15767422020E+02  0.11703838015E+02  0.11031371206E+02  0.22522934365E+02  0.51100000000E-03 0.  1.
        -12    1    3    3    0    0 -0.24492843085E+01 -0.28003355720E+02 -0.11891173945E+02  0.30521909230E+02  0.00000000000E+00 0.  1.
</event>
<event>
 7    1  0.2656097E-013  0.7246165E+02  0.7816164E-02  0.1226708E+00
        -11   -1    0    0    0    0  0.00000000000E+00  0.00000000000E+00  0.45593999997E+02  0.45594000000E+02  0.51100000000E-03 0. -1.
         11   -1    0    0    0    0 -0.00000000000E+00 -0.00000000000E+00 -0.45593999997E+02  0.45594000000E+02  0.51100000000E-03 0.  1.
    9900012    2    1    2    0    0  0.14363543422E+02 -0.44091862683E+01  0.11176934344E+02  0.72461650529E+02  0.70000104520E+02 0.  0.
        -12    1    1    2    0    0 -0.14363543422E+02  0.44091862683E+01 -0.11176934344E+02  0.18726349471E+02  0.00000000000E+00 0.  1.
         11    1    3    3    0    0 -0.46346501205E+01  0.80598030018E+01 -0.68684621597E+01  0.11559246466E+02  0.51100000000E-03 0. -1.
        -11    1    3    3    0    0 -0.18390284746E+02 -0.17736972957E+01  0.11761204958E+01  0.18513017983E+02  0.51100000000E-03 0.  1.
         12    1    3    3    0    0  0.37388478289E+02 -0.10695291974E+02  0.16869276007E+02  0.42389386080E+02  0.00000000000E+00 0. -1.
</event>
<event>
 7    1  0.2656097E-013  0.7246157E+02  0.7816164E-02  0.1226708E+00
        -11   -1    0    0    0    0  0.00000000000E+00  0.00000000000E+00  0.45593999997E+02  0.45594000000E+02  0.51100000000E-03 0. -1.
         11   -1    0    0    0    0 -0.00000000000E+00 -0.00000000000E+00 -0.45593999997E+02  0.45594000000E+02  0.51100000000E-03 0.  1.
    9900012    2    1    2    0    0  0.13524198709E+02 -0.12436857782E+02  0.36193681074E+01  0.72461569275E+02  0.69999998672E+02 0.  0.
        -12    1    1    2    0    0 -0.13524198709E+02  0.12436857782E+02 -0.36193681074E+01  0.18726430725E+02  0.00000000000E+00 0.  1.
         11    1    3    3    0    0  0.94156897034E+01  0.91146521197E+01 -0.11570301729E+01  0.13155638142E+02  0.51100000000E-03 0. -1.
        -11    1    3    3    0    0 -0.43152178230E+01  0.36298084506E+01 -0.21333635057E+02  0.22066277421E+02  0.51100000000E-03 0.  1.
         12    1    3    3    0    0  0.84237268286E+01 -0.25181318352E+02  0.26110033337E+02  0.37239653711E+02  0.00000000000E+00 0. -1.
</event>
<event>
 7    1  0.2656097E-013  0.7246155E+02  0.7816164E-02  0.1226708E+00
        -11   -1    0    0    0    0  0.00000000000E+00  0.00000000000E+00  0.45593999997E+02  0.45594000000E+02  0.51100000000E-03 0.  1.
         11   -1    0    0    0    0 -0.00000000000E+00 -0.00000000000E+00 -0.45593999997E+02  0.45594000000E+02  0.51100000000E-03 0. -1.
    9900012    2    1    2    0    0 -0.33798156187E+01 -0.17610708883E+02 -0.53962681960E+01  0.72461549952E+02  0.69999973500E+02 0.  0.
        -12    1    1    2    0    0  0.33798156187E+01  0.17610708883E+02  0.53962681960E+01  0.18726450048E+02  0.00000000000E+00 0.  1.
         11    1    3    3    0    0 -0.48311203216E+01 -0.84728052845E+01 -0.27633375365E+01  0.10137267263E+02  0.51100000000E-03 0. -1.
        -11    1    3    3    0    0 -0.16814003214E+02 -0.29998469054E+02 -0.36237094593E+01  0.34579620012E+02  0.51100000000E-03 0.  1.
         12    1    3    3    0    0  0.18265307916E+02  0.20860565456E+02  0.99077879970E+00  0.27744662677E+02  0.00000000000E+00 0. -1.
</event>
<event>
 7    1  0.2656097E-013  0.7246145E+02  0.7816164E-02  0.1226708E+00
        -11   -1    0    0    0    0  0.00000000000E+00  0.00000000000E+00  0.45593999997E+02  0.45594000000E+02  0.51100000000E-03 0. -1.
         11   -1    0    0    0    0 -0.00000000000E+00 -0.00000000000E+00 -0.45593999997E+02  0.45594000000E+02  0.51100000000E-03 0.  1.
    9900012    2    1    2    0    0  0.17737332440E+02 -0.59964460567E+01  0.33671256874E+00  0.72461449256E+02  0.69999842325E+02 0.  0.
        -12    1    1    2    0    0 -0.17737332440E+02  0.59964460567E+01 -0.33671256874E+00  0.18726550744E+02  0.00000000000E+00 0.  1.
         11    1    3    3    0    0  0.27152352025E+02 -0.32733803862E+01  0.16400793241E+02  0.31889673232E+02  0.51100000000E-03 0. -1.
        -11    1    3    3    0    0 -0.65517471670E+01 -0.16644577318E+02  0.15313576806E+01  0.17953061066E+02  0.51100000000E-03 0.  1.
         12    1    3    3    0    0 -0.28632724180E+01  0.13921511648E+02 -0.17595438353E+02  0.22618714958E+02  0.00000000000E+00 0. -1.
</event>
<event>
 7    1  0.2656097E-013  0.7246159E+02  0.7816164E-02  0.1226708E+00
        -11   -1    0    0    0    0  0.00000000000E+00  0.00000000000E+00  0.45593999997E+02  0.45594000000E+02  0.51100000000E-03 0.  1.
         11   -1    0    0    0    0 -0.00000000000E+00 -0.00000000000E+00 -0.45593999997E+02  0.45594000000E+02  0.51100000000E-03 0. -1.
    9900012    2    1    2    0    0 -0.17659816292E+02 -0.51161959356E+01 -0.35543949291E+01  0.72461593628E+02  0.70000030396E+02 0.  0.
        -12    1    1    2    0    0  0.17659816292E+02  0.51161959356E+01  0.35543949291E+01  0.18726406372E+02  0.00000000000E+00 0.  1.
         11    1    3    3    0    0 -0.21005772454E+02 -0.23636504388E+02 -0.21164323500E+02  0.38050695204E+02  0.51100000000E-03 0. -1.
        -11    1    3    3    0    0  0.18157377071E+01 -0.35645543381E+01  0.10377127829E+02  0.11121498698E+02  0.51100000000E-03 0.  1.
        -12    1    3    3    0    0  0.15302184551E+01  0.22084862790E+02  0.72328007414E+01  0.23289399725E+02  0.00000000000E+00 0.  1.
</event>
<event>
 7    1  0.2656097E-013  0.7246172E+02  0.7816164E-02  0.1226708E+00
        -11   -1    0    0    0    0  0.00000000000E+00  0.00000000000E+00  0.45593999997E+02  0.45594000000E+02  0.51100000000E-03 0. -1.
         11   -1    0    0    0    0 -0.00000000000E+00 -0.00000000000E+00 -0.45593999997E+02  0.45594000000E+02  0.51100000000E-03 0.  1.
    9900012    2    1    2    0    0 -0.19292907566E+01  0.18624285345E+02  0.29558848329E+00  0.72461720604E+02  0.70000195807E+02 0.  0.
        -12    1    1    2    0    0  0.19292907566E+01 -0.18624285345E+02 -0.29558848329E+00  0.18726279396E+02  0.00000000000E+00 0.  1.
         11    1    3    3    0    0  0.22053569366E+01 -0.10620920544E+02 -0.75145342279E+01  0.13196051581E+02  0.51100000000E-03 0. -1.
        -11    1    3    3    0    0  0.19509049358E+02 -0.18222098801E+01  0.43538800633E+01  0.20071864078E+02  0.51100000000E-03 0.  1.
         12    1    3    3    0    0 -0.23643697051E+02  0.31067415769E+02  0.34562426479E+01  0.39193804945E+02  0.00000000000E+00 0. -1.
</event>
<event>
 7    1  0.2656097E-013  0.7246161E+02  0.7816164E-02  0.1226708E+00
        -11   -1    0    0    0    0  0.00000000000E+00  0.00000000000E+00  0.45593999997E+02  0.45594000000E+02  0.51100000000E-03 0.  1.
         11   -1    0    0    0    0 -0.00000000000E+00 -0.00000000000E+00 -0.45593999997E+02  0.45594000000E+02  0.51100000000E-03 0. -1.
    9900012    2    1    2    0    0 -0.76830989174E+01 -0.15160051989E+02 -0.78625948729E+01  0.72461612643E+02  0.70000055167E+02 0.  0.
        -12    1    1    2    0    0  0.76830989174E+01  0.15160051989E+02  0.78625948729E+01  0.18726387357E+02  0.00000000000E+00 0.  1.
         11    1    3    3    0    0 -0.69560486352E+01 -0.12728235989E+02 -0.40204548193E+01  0.15051865706E+02  0.51100000000E-03 0. -1.
        -11    1    3    3    0    0  0.21417868278E+00 -0.11204224837E+02  0.24920586005E+02  0.27324277370E+02  0.51100000000E-03 0.  1.
        -12    1    3    3    0    0 -0.94122896497E+00  0.87724088361E+01 -0.28762726059E+02  0.30085469568E+02  0.00000000000E+00 0.  1.
</event>
<event>
 7    1  0.2656097E-013  0.7246150E+02  0.7816164E-02  0.1226708E+00
        -11   -1    0    0    0    0  0.00000000000E+00  0.00000000000E+00  0.45593999997E+02  0.45594000000E+02  0.51100000000E-03 0.  1.
         11   -1    0    0    0    0 -0.00000000000E+00 -0.00000000000E+00 -0.45593999997E+02  0.45594000000E+02  0.51100000000E-03 0. -1.
    9900012    2    1    2    0    0  0.14382000270E+02 -0.87673375024E+01 -0.81837360209E+01  0.72461503427E+02  0.69999912892E+02 0.  0.
        -12    1    1    2    0    0 -0.14382000270E+02  0.87673375024E+01  0.81837360209E+01  0.18726496573E+02  0.00000000000E+00 0.  1.
         11    1    3    3    0    0 -0.10276379668E+02 -0.87487093860E+00  0.23239165188E+01  0.10572131596E+02  0.51100000000E-03 0. -1.
        -11    1    3    3    0    0  0.13481088622E+02  0.15592502677E+02  0.14974615022E+02  0.25477538843E+02  0.51100000000E-03 0.  1.
         12    1    3    3    0    0  0.11177291317E+02 -0.23484969241E+02 -0.25482267561E+02  0.36411832988E+02  0.00000000000E+00 0. -1.
</event>
<event>
 7    1  0.2656097E-013  0.7246157E+02  0.7816164E-02  0.1226708E+00
        -11   -1    0    0    0    0  0.00000000000E+00  0.00000000000E+00  0.45593999997E+02  0.45594000000E+02  0.51100000000E-03 0.  1.
         11   -1    0    0    0    0 -0.00000000000E+00 -0.00000000000E+00 -0.45593999997E+02  0.45594000000E+02  0.51100000000E-03 0. -1.
    9900012    2    1    2    0    0  0.88697264377E+01 -0.14327375320E+02 -0.81690459753E+01  0.72461573679E+02  0.70000004409E+02 0.  0.
        -12    1    1    2    0    0 -0.88697264377E+01  0.14327375320E+02  0.81690459753E+01  0.18726426321E+02  0.00000000000E+00 0.  1.
         11    1    3    3    0    0 -0.43591163740E+01  0.18864899401E+02 -0.21745192406E+02  0.29115970154E+02  0.51100000000E-03 0. -1.
        -11    1    3    3    0    0  0.13245183139E+02 -0.17417138299E+02 -0.94894705560E+00  0.21901873977E+02  0.51100000000E-03 0.  1.
        -12    1    3    3    0    0 -0.16340327540E-01 -0.15775136422E+02  0.14525093486E+02  0.21443729548E+02  0.00000000000E+00 0.  1.
</event>
<event>
 7    1  0.2656097E-013  0.7246158E+02  0.7816164E-02  0.1226708E+00
        -11   -1    0    0    0    0  0.00000000000E+00  0.00000000000E+00  0.45593999997E+02  0.45594000000E+02  0.51100000000E-03 0.  1.
         11   -1    0    0    0    0 -0.00000000000E+00 -0.00000000000E+00 -0.45593999997E+02  0.45594000000E+02  0.51100000000E-03 0. -1.
    9900012    2    1    2    0    0 -0.11617949193E+02  0.10879107638E+02  0.98664662247E+01  0.72461577965E+02  0.70000009993E+02 0.  0.
        -12    1    1    2    0    0  0.11617949193E+02 -0.10879107638E+02 -0.98664662247E+01  0.18726422035E+02  0.00000000000E+00 0.  1.
         11    1    3    3    0    0 -0.10666002566E+02  0.16933783352E+02  0.11031841403E+02  0.22852092997E+02  0.51100000000E-03 0. -1.
        -11    1    3    3    0    0  0.18618186212E+02 -0.13313457036E+01 -0.16014004963E+02  0.24593854810E+02  0.51100000000E-03 0.  1.
         12    1    3    3    0    0 -0.19570132839E+02 -0.47233300099E+01  0.14848629785E+02  0.25015630158E+02  0.00000000000E+00 0. -1.
</event>
<event>
 7    1  0.2656097E-013  0.7246156E+02  0.7816164E-02  0.1226708E+00
        -11   -1    0    0    0    0  0.00000000000E+00  0.00000000000E+00  0.45593999997E+02  0.45594000000E+02  0.51100000000E-03 0. -1.
         11   -1    0    0    0    0 -0.00000000000E+00 -0.00000000000E+00 -0.45593999997E+02  0.45594000000E+02  0.51100000000E-03 0.  1.
    9900012    2    1    2    0    0 -0.66826898673E+01 -0.14055320108E+02 -0.10414851092E+02  0.72461561725E+02  0.69999988837E+02 0.  0.
        -12    1    1    2    0    0  0.66826898673E+01  0.14055320108E+02  0.10414851092E+02  0.18726438275E+02  0.00000000000E+00 0.  1.
         11    1    3    3    0    0 -0.40887099965E+00 -0.13027173244E+01 -0.12708476496E+01  0.18652886992E+01  0.51100000000E-03 0. -1.
        -11    1    3    3    0    0 -0.15345596048E+02 -0.25477134553E+02  0.21159495600E+02  0.36500629548E+02  0.51100000000E-03 0.  1.
         12    1    3    3    0    0  0.90717771809E+01  0.12724531769E+02 -0.30303499042E+02  0.34095643478E+02  0.00000000000E+00 0. -1.
</event>
<event>
 7    1  0.2656097E-013  0.7246157E+02  0.7816164E-02  0.1226708E+00
        -11   -1    0    0    0    0  0.00000000000E+00  0.00000000000E+00  0.45593999997E+02  0.45594000000E+02  0.51100000000E-03 0.  1.
         11   -1    0    0    0    0 -0.00000000000E+00 -0.00000000000E+00 -0.45593999997E+02  0.45594000000E+02  0.51100000000E-03 0. -1.
    9900012    2    1    2    0    0  0.11918337062E+02  0.14417158415E+02 -0.88204220600E+00  0.72461569119E+02  0.69999998469E+02 0.  0.
        -12    1    1    2    0    0 -0.11918337062E+02 -0.14417158415E+02  0.88204220600E+00  0.18726430881E+02  0.00000000000E+00 0.  1.
         11    1    3    3    0    0 -0.61492783824E+01 -0.49058199498E+01 -0.97673829387E+01  0.12541230551E+02  0.51100000000E-03 0. -1.
        -11    1    3    3    0    0  0.26293235583E+02 -0.58515443636E+01  0.17439209269E+02  0.32088951822E+02  0.51100000000E-03 0.  1.
         12    1    3    3    0    0 -0.82256201390E+01  0.25174522729E+02 -0.85538685359E+01  0.27831386746E+02  0.00000000000E+00 0. -1.
</event>
<event>
 7    1  0.2656097E-013  0.7246154E+02  0.7816164E-02  0.1226708E+00
        -11   -1    0    0    0    0  0.00000000000E+00  0.00000000000E+00  0.45593999997E+02  0.45594000000E+02  0.51100000000E-03 0. -1.
         11   -1    0    0    0    0 -0.00000000000E+00 -0.00000000000E+00 -0.45593999997E+02  0.45594000000E+02  0.51100000000E-03 0.  1.
    9900012    2    1    2    0    0 -0.16696100678E+02 -0.58492698668E+01  0.61405813208E+01  0.72461535443E+02  0.69999954600E+02 0.  0.
        -12    1    1    2    0    0  0.16696100678E+02  0.58492698668E+01 -0.61405813208E+01  0.18726464557E+02  0.00000000000E+00 0.  1.
         11    1    3    3    0    0  0.41113158304E+01  0.31995296103E+01  0.30637172239E+02  0.31076940497E+02  0.51100000000E-03 0. -1.
        -11    1    3    3    0    0 -0.17303967785E+02  0.33008165750E+01 -0.54948020892E+01  0.18453063199E+02  0.51100000000E-03 0.  1.
        -12    1    3    3    0    0 -0.35034487237E+01 -0.12349616052E+02 -0.19001788829E+02  0.22931531748E+02  0.00000000000E+00 0.  1.
</event>
<event>
 7    1  0.2656097E-013  0.7246148E+02  0.7816164E-02  0.1226708E+00
        -11   -1    0    0    0    0  0.00000000000E+00  0.00000000000E+00  0.45593999997E+02  0.45594000000E+02  0.51100000000E-03 0.  1.
         11   -1    0    0    0    0 -0.00000000000E+00 -0.00000000000E+00 -0.45593999997E+02  0.45594000000E+02  0.51100000000E-03 0. -1.
    9900012    2    1    2    0    0  0.96513869876E+01 -0.15091336885E+02 -0.54575513559E+01  0.72461479058E+02  0.69999881148E+02 0.  0.
        -12    1    1    2    0    0 -0.96513869876E+01  0.15091336885E+02  0.54575513559E+01  0.18726520942E+02  0.00000000000E+00 0.  1.
         11    1    3    3    0    0 -0.18512084782E+01 -0.29837383344E+02  0.15667436781E+02  0.33751518384E+02  0.51100000000E-03 0. -1.
        -11    1    3    3    0    0  0.15870028472E+02 -0.18216814154E+00 -0.58646456706E+01  0.16919960344E+02  0.51100000000E-03 0.  1.
        -12    1    3    3    0    0 -0.43674330064E+01  0.14928214600E+02 -0.15260342467E+02  0.21790000331E+02  0.00000000000E+00 0.  1.
</event>
<event>
 7    1  0.2656097E-013  0.7246156E+02  0.7816164E-02  0.1226708E+00
        -11   -1    0    0    0    0  0.00000000000E+00  0.00000000000E+00  0.45593999997E+02  0.45594000000E+02  0.51100000000E-03 0. -1.
         11   -1    0    0    0    0 -0.00000000000E+00 -0.00000000000E+00 -0.45593999997E+02  0.45594000000E+02  0.51100000000E-03 0.  1.
    9900012    2    1    2    0    0 -0.74573981724E+01 -0.76386848226E+01  0.15385619719E+02  0.72461559135E+02  0.69999985463E+02 0.  0.
        -12    1    1    2    0    0  0.74573981724E+01  0.76386848226E+01 -0.15385619719E+02  0.18726440865E+02  0.00000000000E+00 0.  1.
         11    1    3    3    0    0  0.51792483897E+01  0.12467215160E+02 -0.29232030576E+01  0.13813080182E+02  0.51100000000E-03 0. -1.
        -11    1    3    3    0    0 -0.16436611954E+02 -0.17066922153E+02 -0.12957188393E+02  0.27006124780E+02  0.51100000000E-03 0.  1.
         12    1    3    3    0    0  0.37999653923E+01 -0.30389778300E+01  0.31266011169E+02  0.31642354174E+02  0.00000000000E+00 0. -1.
</event>
<event>
 7    1  0.2656097E-013  0.7246158E+02  0.7816164E-02  0.1226708E+00
        -11   -1    0    0    0    0  0.00000000000E+00  0.00000000000E+00  0.45593999997E+02  0.45594000000E+02  0.51100000000E-03 0. -1.
         11   -1    0    0    0    0 -0.00000000000E+00 -0.00000000000E+00 -0.45593999997E+02  0.45594000000E+02  0.51100000000E-03 0.  1.
    9900012    2    1    2    0    0 -0.94648607685E+01 -0.95117846141E+01 -0.13062202543E+02  0.72461580930E+02  0.70000013855E+02 0.  0.
        -12    1    1    2    0    0  0.94648607685E+01  0.95117846141E+01  0.13062202543E+02  0.18726419070E+02  0.00000000000E+00 0.  1.
         11    1    3    3    0    0 -0.18529090315E+02  0.11278486578E+02 -0.11086214608E+02  0.24360533697E+02  0.51100000000E-03 0. -1.
        -11    1    3    3    0    0  0.71071761518E+01 -0.27284678896E+01 -0.20673606617E+02  0.22030762599E+02  0.51100000000E-03 0.  1.
        -12    1    3    3    0    0  0.19570533951E+01 -0.18061803302E+02  0.18697618682E+02  0.26070284634E+02  0.00000000000E+00 0.  1.
</event>
<event>
 7    1  0.2656097E-013  0.7246189E+02  0.7816164E-02  0.1226707E+00
        -11   -1    0    0    0    0  0.00000000000E+00  0.00000000000E+00  0.45593999997E+02  0.45594000000E+02  0.51100000000E-03 0. -1.
         11   -1    0    0    0    0 -0.00000000000E+00 -0.00000000000E+00 -0.45593999997E+02  0.45594000000E+02  0.51100000000E-03 0.  1.
    9900012    2    1    2    0    0 -0.84838807825E+01 -0.92196892521E+01  0.13917189200E+02  0.72461893671E+02  0.70000421256E+02 0.  0.
        -12    1    1    2    0    0  0.84838807825E+01  0.92196892521E+01 -0.13917189200E+02  0.18726106329E+02  0.00000000000E+00 0.  1.
         11    1    3    3    0    0  0.83553973338E+01 -0.17401965017E+02 -0.50155784665E+01  0.19944850931E+02  0.51100000000E-03 0. -1.
        -11    1    3    3    0    0 -0.15843420197E+02 -0.88301976019E+01 -0.86495675936E+01  0.20094809604E+02  0.51100000000E-03 0.  1.
         12    1    3    3    0    0 -0.99585791965E+00  0.17012473367E+02  0.27582335260E+02  0.32422233135E+02  0.00000000000E+00 0. -1.
</event>
<event>
 7    1  0.2656097E-013  0.7246159E+02  0.7816164E-02  0.1226708E+00
        -11   -1    0    0    0    0  0.00000000000E+00  0.00000000000E+00  0.45593999997E+02  0.45594000000E+02  0.51100000000E-03 0. -1.
         11   -1    0    0    0    0 -0.00000000000E+00 -0.00000000000E+00 -0.45593999997E+02  0.45594000000E+02  0.51100000000E-03 0.  1.
    9900012    2    1    2    0    0  0.16666402266E+02  0.14297061566E+01  0.84181485957E+01  0.72461594847E+02  0.70000031984E+02 0.  0.
        -12    1    1    2    0    0 -0.16666402266E+02 -0.14297061566E+01 -0.84181485957E+01  0.18726405153E+02  0.00000000000E+00 0.  1.
         11    1    3    3    0    0 -0.21060201575E+01 -0.52963428148E+01  0.39632661608E+01  0.69421932441E+01  0.51100000000E-03 0. -1.
        -11    1    3    3    0    0 -0.62011722510E+01  0.19697524107E+02  0.23693951881E+02  0.31430086689E+02  0.51100000000E-03 0.  1.
         12    1    3    3    0    0  0.24973594674E+02 -0.12971475136E+02 -0.19239069447E+02  0.34089314914E+02  0.00000000000E+00 0. -1.
</event>
<event>
 7    1  0.2656097E-013  0.7246160E+02  0.7816164E-02  0.1226708E+00
        -11   -1    0    0    0    0  0.00000000000E+00  0.00000000000E+00  0.45593999997E+02  0.45594000000E+02  0.51100000000E-03 0.  1.
         11   -1    0    0    0    0 -0.00000000000E+00 -0.00000000000E+00 -0.45593999997E+02  0.45594000000E+02  0.51100000000E-03 0. -1.
    9900012    2    1    2    0    0  0.36871984999E+01  0.18334997043E+02  0.95428469437E+00  0.72461595951E+02  0.70000033422E+02 0.  0.
        -12    1    1    2    0    0 -0.36871984999E+01 -0.18334997043E+02 -0.95428469437E+00  0.18726404049E+02  0.00000000000E+00 0.  1.
         11    1    3    3    0    0  0.29391726776E+01  0.96279898347E+01 -0.10001139710E+02  0.14190127555E+02  0.51100000000E-03 0. -1.
        -11    1    3    3    0    0 -0.21674769127E+02  0.11857892805E+02  0.21996890095E+02  0.33079728122E+02  0.51100000000E-03 0.  1.
         12    1    3    3    0    0  0.22422794949E+02 -0.31508855963E+01 -0.11041465691E+02  0.25191740273E+02  0.00000000000E+00 0. -1.
</event>
<event>
 7    1  0.2656097E-013  0.7246157E+02  0.7816164E-02  0.1226708E+00
        -11   -1    0    0    0    0  0.00000000000E+00  0.00000000000E+00  0.45593999997E+02  0.45594000000E+02  0.51100000000E-03 0. -1.
         11   -1    0    0    0    0 -0.00000000000E+00 -0.00000000000E+00 -0.45593999997E+02  0.45594000000E+02  0.51100000000E-03 0.  1.
    9900012    2    1    2    0    0  0.15816739891E+02 -0.14956313395E+01 -0.99132834839E+01  0.72461565120E+02  0.69999993260E+02 0.  0.
        -12    1    1    2    0    0 -0.15816739891E+02  0.14956313395E+01  0.99132834839E+01  0.18726434880E+02  0.00000000000E+00 0.  1.
         11    1    3    3    0    0  0.53620287953E+01 -0.29617697464E+02 -0.14089244335E+02  0.33233509626E+02  0.51100000000E-03 0. -1.
        -11    1    3    3    0    0  0.16795927693E+01 -0.23573407384E+01 -0.53741160080E+01  0.61040323030E+01  0.51100000000E-03 0.  1.
        -12    1    3    3    0    0  0.87751183260E+01  0.30479406863E+02  0.95500768595E+01  0.33124023191E+02  0.00000000000E+00 0.  1.
</event>
<event>
 7    1  0.2656097E-013  0.7246161E+02  0.7816164E-02  0.1226708E+00
        -11   -1    0    0    0    0  0.00000000000E+00  0.00000000000E+00  0.45593999997E+02  0.45594000000E+02  0.51100000000E-03 0.  1.
         11   -1    0    0    0    0 -0.00000000000E+00 -0.00000000000E+00 -0.45593999997E+02  0.45594000000E+02  0.51100000000E-03 0. -1.
    9900012    2    1    2    0    0  0.11270402892E+02  0.90242776445E+01 -0.11925531179E+02  0.72461605199E+02  0.70000045470E+02 0.  0.
        -12    1    1    2    0    0 -0.11270402892E+02 -0.90242776445E+01  0.11925531179E+02  0.18726394801E+02  0.00000000000E+00 0.  1.
         11    1    3    3    0    0 -0.55928898020E+00  0.42843455316E-01 -0.21743084707E+01  0.22454971191E+01  0.51100000000E-03 0. -1.
        -11    1    3    3    0    0 -0.14088878018E+01 -0.29052705260E+02 -0.65612925367E+01  0.29817699573E+02  0.51100000000E-03 0.  1.
         12    1    3    3    0    0  0.13238579674E+02  0.38034139450E+02 -0.31899301712E+01  0.40398408508E+02  0.00000000000E+00 0. -1.
</event>
<event>
 7    1  0.2656097E-013  0.7246154E+02  0.7816164E-02  0.1226708E+00
        -11   -1    0    0    0    0  0.00000000000E+00  0.00000000000E+00  0.45593999997E+02  0.45594000000E+02  0.51100000000E-03 0.  1.
         11   -1    0    0    0    0 -0.00000000000E+00 -0.00000000000E+00 -0.45593999997E+02  0.45594000000E+02  0.51100000000E-03 0. -1.
    9900012    2    1    2    0    0 -0.13602850562E+02 -0.67735061392E+01 -0.10943597551E+02  0.72461541280E+02  0.69999962204E+02 0.  0.
        -12    1    1    2    0    0  0.13602850562E+02  0.67735061392E+01  0.10943597551E+02  0.18726458720E+02  0.00000000000E+00 0.  1.
         11    1    3    3    0    0 -0.12988329689E+02  0.39757255601E+01 -0.11203716140E+02  0.17607565347E+02  0.51100000000E-03 0. -1.
        -11    1    3    3    0    0  0.23364706294E+01 -0.31594419624E+02 -0.72533052917E+01  0.32500413602E+02  0.51100000000E-03 0.  1.
         12    1    3    3    0    0 -0.29509915032E+01  0.20845187925E+02  0.75134238810E+01  0.22353562331E+02  0.00000000000E+00 0. -1.
</event>
<event>
 7    1  0.2656097E-013  0.7246151E+02  0.7816164E-02  0.1226708E+00
        -11   -1    0    0    0    0  0.00000000000E+00  0.00000000000E+00  0.45593999997E+02  0.45594000000E+02  0.51100000000E-03 0. -1.
         11   -1    0    0    0    0 -0.00000000000E+00 -0.00000000000E+00 -0.45593999997E+02  0.45594000000E+02  0.51100000000E-03 0.  1.
    9900012    2    1    2    0    0 -0.96981759230E+01  0.13162498910E+02 -0.91310166745E+01  0.72461509157E+02  0.69999920357E+02 0.  0.
        -12    1    1    2    0    0  0.96981759230E+01 -0.13162498910E+02  0.91310166745E+01  0.18726490843E+02  0.00000000000E+00 0.  1.
         11    1    3    3    0    0 -0.17617899277E+02 -0.52296325703E+01 -0.12404438849E+02  0.22172269509E+02  0.51100000000E-03 0. -1.
        -11    1    3    3    0    0  0.96619558387E+01  0.76350684375E+00 -0.19298826699E+02  0.21595857139E+02  0.51100000000E-03 0.  1.
         12    1    3    3    0    0 -0.17422324850E+01  0.17628624636E+02  0.22572248874E+02  0.28693382509E+02  0.00000000000E+00 0. -1.
</event>
<event>
 7    1  0.2656097E-013  0.7246157E+02  0.7816164E-02  0.1226708E+00
        -11   -1    0    0    0    0  0.00000000000E+00  0.00000000000E+00  0.45593999997E+02  0.45594000000E+02  0.51100000000E-03 0.  1.
         11   -1    0    0    0    0 -0.00000000000E+00 -0.00000000000E+00 -0.45593999997E+02  0.45594000000E+02  0.51100000000E-03 0. -1.
    9900012    2    1    2    0    0  0.14838683615E+02 -0.18502089212E+01 -0.11272510844E+02  0.72461566672E+02  0.69999995281E+02 0.  0.
        -12    1    1    2    0    0 -0.14838683615E+02  0.18502089212E+01  0.11272510844E+02  0.18726433328E+02  0.00000000000E+00 0.  1.
         11    1    3    3    0    0 -0.85021318750E+01  0.10138760539E+02 -0.23930599163E+02  0.27345096238E+02  0.51100000000E-03 0. -1.
        -11    1    3    3    0    0 -0.90315757909E+01 -0.87299005276E+00  0.24373700050E+01  0.93953310586E+01  0.51100000000E-03 0.  1.
        -12    1    3    3    0    0  0.32372391280E+02 -0.11115979408E+02  0.10220718314E+02  0.35721139375E+02  0.00000000000E+00 0.  1.
</event>
<event>
 7    1  0.2656097E-013  0.7246155E+02  0.7816164E-02  0.1226708E+00
        -11   -1    0    0    0    0  0.00000000000E+00  0.00000000000E+00  0.45593999997E+02  0.45594000000E+02  0.51100000000E-03 0.  1.
         11   -1    0    0    0    0 -0.00000000000E+00 -0.00000000000E+00 -0.45593999997E+02  0.45594000000E+02  0.51100000000E-03 0. -1.
    9900012    2    1    2    0    0 -0.70387662668E+01  0.54787170555E+01 -0.16465698534E+02  0.72461553478E+02  0.69999978093E+02 0.  0.
        -12    1    1    2    0    0  0.70387662668E+01 -0.54787170555E+01  0.16465698534E+02  0.18726446522E+02  0.00000000000E+00 0.  1.
         11    1    3    3    0    0 -0.73725864513E+01  0.14076509492E+02 -0.13663480064E+02  0.20956952025E+02  0.51100000000E-03 0. -1.
        -11    1    3    3    0    0  0.10155456918E+02  0.11808691922E+02 -0.18324042415E+02  0.24048888557E+02  0.51100000000E-03 0.  1.
        -12    1    3    3    0    0 -0.98216367334E+01 -0.20406484359E+02  0.15521823945E+02  0.27455712895E+02  0.00000000000E+00 0.  1.
</event>
<event>
 7    1  0.2656097E-013  0.7246157E+02  0.7816164E-02  0.1226708E+00
        -11   -1    0    0    0    0  0.00000000000E+00  0.00000000000E+00  0.45593999997E+02  0.45594000000E+02  0.51100000000E-03 0. -1.
         11   -1    0    0    0    0 -0.00000000000E+00 -0.00000000000E+00 -0.45593999997E+02  0.45594000000E+02  0.51100000000E-03 0.  1.
    9900012    2    1    2    0    0  0.59013629547E+00 -0.16151158170E+02  0.94589042721E+01  0.72461573723E+02  0.70000004467E+02 0.  0.
        -12    1    1    2    0    0 -0.59013629547E+00  0.16151158170E+02 -0.94589042721E+01  0.18726426277E+02  0.00000000000E+00 0.  1.
         11    1    3    3    0    0 -0.68754764754E+01 -0.17619889208E+02  0.35218172477E+02  0.39975646904E+02  0.51100000000E-03 0. -1.
        -11    1    3    3    0    0 -0.27543537919E+01  0.42826254554E+01 -0.52899206877E+00  0.51192947241E+01  0.51100000000E-03 0.  1.
        -12    1    3    3    0    0  0.10219966563E+02 -0.28138944167E+01 -0.25230276136E+02  0.27366632095E+02  0.00000000000E+00 0.  1.
</event>
<event>
 7    1  0.2656097E-013  0.7246163E+02  0.7816164E-02  0.1226708E+00
        -11   -1    0    0    0    0  0.00000000000E+00  0.00000000000E+00  0.45593999997E+02  0.45594000000E+02  0.51100000000E-03 0. -1.
         11   -1    0    0    0    0 -0.00000000000E+00 -0.00000000000E+00 -0.45593999997E+02  0.45594000000E+02  0.51100000000E-03 0.  1.
    9900012    2    1    2    0    0  0.15646540776E+02  0.14202522837E+01  0.10190473096E+02  0.72461625639E+02  0.70000072097E+02 0.  0.
        -12    1    1    2    0    0 -0.15646540776E+02 -0.14202522837E+01 -0.10190473096E+02  0.18726374361E+02  0.00000000000E+00 0.  1.
         11    1    3    3    0    0 -0.11615264352E+02  0.33085200684E+01  0.11700515347E+02  0.16815550263E+02  0.51100000000E-03 0. -1.
        -11    1    3    3    0    0  0.71474600092E+01  0.13231114704E+02 -0.19564298973E+02  0.24676109407E+02  0.51100000000E-03 0.  1.
        -12    1    3    3    0    0  0.20114345119E+02 -0.15119382488E+02  0.18054256722E+02  0.30969965970E+02  0.00000000000E+00 0.  1.
</event>
<event>
 7    1  0.2656097E-013  0.7246163E+02  0.7816164E-02  0.1226708E+00
        -11   -1    0    0    0    0  0.00000000000E+00  0.00000000000E+00  0.45593999997E+02  0.45594000000E+02  0.51100000000E-03 0. -1.
         11   -1    0    0    0    0 -0.00000000000E+00 -0.00000000000E+00 -0.45593999997E+02  0.45594000000E+02  0.51100000000E-03 0.  1.
    9900012    2    1    2    0    0 -0.10890852736E+02 -0.15004089201E+02  0.26350836249E+01  0.72461627372E+02  0.70000074354E+02 0.  0.
        -12    1    1    2    0    0  0.10890852736E+02  0.15004089201E+02 -0.26350836249E+01  0.18726372628E+02  0.00000000000E+00 0.  1.
         11    1    3    3    0    0 -0.73749556868E+01 -0.66082202960E+01  0.19917412558E+02  0.22243243247E+02  0.51100000000E-03 0. -1.
        -11    1    3    3    0    0 -0.23912263861E+02  0.24187024876E+01 -0.79112988258E+01  0.25302868100E+02  0.51100000000E-03 0.  1.
        -12    1    3    3    0    0  0.20396366812E+02 -0.10814571393E+02 -0.93710301076E+01  0.24915516025E+02  0.00000000000E+00 0.  1.
</event>
<event>
 7    1  0.2656097E-013  0.7246156E+02  0.7816164E-02  0.1226708E+00
        -11   -1    0    0    0    0  0.00000000000E+00  0.00000000000E+00  0.45593999997E+02  0.45594000000E+02  0.51100000000E-03 0.  1.
         11   -1    0    0    0    0 -0.00000000000E+00 -0.00000000000E+00 -0.45593999997E+02  0.45594000000E+02  0.51100000000E-03 0. -1.
    9900012    2    1    2    0    0 -0.13277720216E+02  0.23491984811E+01  0.12994730621E+02  0.72461558492E+02  0.69999984625E+02 0.  0.
        -12    1    1    2    0    0  0.13277720216E+02 -0.23491984811E+01 -0.12994730621E+02  0.18726441508E+02  0.00000000000E+00 0.  1.
         11    1    3    3    0    0  0.77730899752E+01 -0.17703109537E+02  0.46343325801E+01  0.19882103857E+02  0.51100000000E-03 0. -1.
        -11    1    3    3    0    0 -0.12783827533E+02 -0.11982987128E+02  0.85442332715E+01  0.19494156801E+02  0.51100000000E-03 0.  1.
         12    1    3    3    0    0 -0.82669826584E+01  0.32035295146E+02 -0.18383523051E+00  0.33085297834E+02  0.00000000000E+00 0. -1.
</event>
<event>
 7    1  0.2656097E-013  0.7246150E+02  0.7816164E-02  0.1226708E+00
        -11   -1    0    0    0    0  0.00000000000E+00  0.00000000000E+00  0.45593999997E+02  0.45594000000E+02  0.51100000000E-03 0.  1.
         11   -1    0    0    0    0 -0.00000000000E+00 -0.00000000000E+00 -0.45593999997E+02  0.45594000000E+02  0.51100000000E-03 0. -1.
    9900012    2    1    2    0    0 -0.50532906486E+01  0.75137909732E+00 -0.18016140398E+02  0.72461504551E+02  0.69999914358E+02 0.  0.
        -12    1    1    2    0    0  0.50532906486E+01 -0.75137909732E+00  0.18016140398E+02  0.18726495449E+02  0.00000000000E+00 0.  1.
         11    1    3    3    0    0 -0.15510616793E+02 -0.18875881787E+01 -0.10879780552E+02  0.19039743894E+02  0.51100000000E-03 0. -1.
        -11    1    3    3    0    0 -0.15177659719E+02 -0.74095767708E+01 -0.17200103813E+02  0.24106155934E+02  0.51100000000E-03 0.  1.
        -12    1    3    3    0    0  0.25634985863E+02  0.10048544047E+02  0.10063743967E+02  0.29315604723E+02  0.00000000000E+00 0.  1.
</event>
<event>
 7    1  0.2656097E-013  0.7246156E+02  0.7816164E-02  0.1226708E+00
        -11   -1    0    0    0    0  0.00000000000E+00  0.00000000000E+00  0.45593999997E+02  0.45594000000E+02  0.51100000000E-03 0. -1.
         11   -1    0    0    0    0 -0.00000000000E+00 -0.00000000000E+00 -0.45593999997E+02  0.45594000000E+02  0.51100000000E-03 0.  1.
    9900012    2    1    2    0    0  0.23885508816E+01 -0.17665518385E+02 -0.57361819089E+01  0.72461561524E+02  0.69999988575E+02 0.  0.
        -12    1    1    2    0    0 -0.23885508816E+01  0.17665518385E+02  0.57361819089E+01  0.18726438476E+02  0.00000000000E+00 0.  1.
         11    1    3    3    0    0 -0.23075248307E+02 -0.48084462471E+01 -0.10555098914E+02  0.25826311256E+02  0.51100000000E-03 0. -1.
        -11    1    3    3    0    0 -0.42694931048E+01 -0.11661714903E+02 -0.74119550833E+01  0.14462407969E+02  0.51100000000E-03 0.  1.
         12    1    3    3    0    0  0.29733292294E+02 -0.11953572348E+01  0.12230872088E+02  0.32172842299E+02  0.00000000000E+00 0. -1.
</event>
<event>
 7    1  0.2656097E-013  0.7246150E+02  0.7816164E-02  0.1226708E+00
        -11   -1    0    0    0    0  0.00000000000E+00  0.00000000000E+00  0.45593999997E+02  0.45594000000E+02  0.51100000000E-03 0.  1.
         11   -1    0    0    0    0 -0.00000000000E+00 -0.00000000000E+00 -0.45593999997E+02  0.45594000000E+02  0.51100000000E-03 0. -1.
    9900012    2    1    2    0    0  0.96331495752E+01 -0.11371666695E+02 -0.11338850943E+02  0.72461496993E+02  0.69999904512E+02 0.  0.
        -12    1    1    2    0    0 -0.96331495752E+01  0.11371666695E+02  0.11338850943E+02  0.18726503007E+02  0.00000000000E+00 0.  1.
         11    1    3    3    0    0  0.96208685186E+01  0.40936917103E+01 -0.17026608941E+02  0.19980611481E+02  0.51100000000E-03 0. -1.
        -11    1    3    3    0    0  0.37402804339E+01 -0.13855569832E+02 -0.21027792228E+02  0.25458486980E+02  0.51100000000E-03 0.  1.
        -12    1    3    3    0    0 -0.37279993773E+01 -0.16097885732E+01  0.26715550225E+02  0.27022398532E+02  0.00000000000E+00 0.  1.
</event>
<event>
 7    1  0.2656097E-013  0.7246158E+02  0.7816164E-02  0.1226708E+00
        -11   -1    0    0    0    0  0.00000000000E+00  0.00000000000E+00  0.45593999997E+02  0.45594000000E+02  0.51100000000E-03 0.  1.
         11   -1    0    0    0    0 -0.00000000000E+00 -0.00000000000E+00 -0.45593999997E+02  0.45594000000E+02  0.51100000000E-03 0. -1.
    9900012    2    1    2    0    0 -0.17192329855E+02 -0.27413390235E+01 -0.68983867111E+01  0.72461577899E+02  0.70000009907E+02 0.  0.
        -12    1    1    2    0    0  0.17192329855E+02  0.27413390235E+01  0.68983867111E+01  0.18726422101E+02  0.00000000000E+00 0.  1.
         11    1    3    3    0    0 -0.15024482237E+02 -0.47035803366E+01 -0.21361963947E+02  0.26536620705E+02  0.51100000000E-03 0. -1.
        -11    1    3    3    0    0 -0.68392935912E+01  0.10412779153E+02 -0.12279261034E+02  0.17492345707E+02  0.51100000000E-03 0.  1.
        -12    1    3    3    0    0  0.46714459737E+01 -0.84505378400E+01  0.26742838270E+02  0.28432611488E+02  0.00000000000E+00 0.  1.
</event>
<event>
 7    1  0.2656097E-013  0.7246158E+02  0.7816164E-02  0.1226708E+00
        -11   -1    0    0    0    0  0.00000000000E+00  0.00000000000E+00  0.45593999997E+02  0.45594000000E+02  0.51100000000E-03 0. -1.
         11   -1    0    0    0    0 -0.00000000000E+00 -0.00000000000E+00 -0.45593999997E+02  0.45594000000E+02  0.51100000000E-03 0.  1.
    9900012    2    1    2    0    0 -0.11715216133E+02 -0.47707131719E+01  0.13808427139E+02  0.72461584078E+02  0.70000017956E+02 0.  0.
        -12    1    1    2    0    0  0.11715216133E+02  0.47707131719E+01 -0.13808427139E+02  0.18726415922E+02  0.00000000000E+00 0.  1.
         11    1    3    3    0    0 -0.93988992068E+01  0.15843373347E+02  0.75766084639E+01  0.19918754514E+02  0.51100000000E-03 0. -1.
        -11    1    3    3    0    0  0.79244230888E+01 -0.56775528292E+01 -0.19076136360E+02  0.21422653106E+02  0.51100000000E-03 0.  1.
         12    1    3    3    0    0 -0.10240740015E+02 -0.14936533690E+02  0.25307955035E+02  0.31120176458E+02  0.00000000000E+00 0. -1.
</event>
<event>
 7    1  0.2656097E-013  0.7246157E+02  0.7816164E-02  0.1226708E+00
        -11   -1    0    0    0    0  0.00000000000E+00  0.00000000000E+00  0.45593999997E+02  0.45594000000E+02  0.51100000000E-03 0.  1.
         11   -1    0    0    0    0 -0.00000000000E+00 -0.00000000000E+00 -0.45593999997E+02  0.45594000000E+02  0.51100000000E-03 0. -1.
    9900012    2    1    2    0    0 -0.18300769839E+02  0.37279167311E+01 -0.13651824067E+01  0.72461567802E+02  0.69999996753E+02 0.  0.
        -12    1    1    2    0    0  0.18300769839E+02 -0.37279167311E+01  0.13651824067E+01  0.18726432198E+02  0.00000000000E+00 0.  1.
         11    1    3    3    0    0 -0.25969645419E+02  0.43285423516E+01 -0.37529181217E+01  0.26594043633E+02  0.51100000000E-03 0. -1.
        -11    1    3    3    0    0 -0.38806099620E+01  0.19161547374E+02 -0.74917971310E+01  0.20936834908E+02  0.51100000000E-03 0.  1.
        -12    1    3    3    0    0  0.11549485542E+02 -0.19762172995E+02  0.98795328460E+01  0.24930689261E+02  0.00000000000E+00 0.  1.
</event>
<event>
 7    1  0.2656097E-013  0.7246155E+02  0.7816164E-02  0.1226708E+00
        -11   -1    0    0    0    0  0.00000000000E+00  0.00000000000E+00  0.45593999997E+02  0.45594000000E+02  0.51100000000E-03 0. -1.
         11   -1    0    0    0    0 -0.00000000000E+00 -0.00000000000E+00 -0.45593999997E+02  0.45594000000E+02  0.51100000000E-03 0.  1.
    9900012    2    1    2    0    0 -0.16520536189E+02  0.58620949467E+01  0.65869178116E+01  0.72461554544E+02  0.69999979483E+02 0.  0.
        -12    1    1    2    0    0  0.16520536189E+02 -0.58620949467E+01 -0.65869178116E+01  0.18726445456E+02  0.00000000000E+00 0.  1.
         11    1    3    3    0    0  0.47974001775E+01 -0.74106376399E+01  0.79461906764E+01  0.11877480592E+02  0.51100000000E-03 0. -1.
        -11    1    3    3    0    0  0.17665393349E+02 -0.36297499166E+01 -0.14669702745E+01  0.18094010299E+02  0.51100000000E-03 0.  1.
         12    1    3    3    0    0 -0.38983329716E+02  0.16902482503E+02  0.10769740968E+00  0.42490063653E+02  0.00000000000E+00 0. -1.
</event>
<event>
 7    1  0.2656097E-013  0.7246154E+02  0.7816164E-02  0.1226708E+00
        -11   -1    0    0    0    0  0.00000000000E+00  0.00000000000E+00  0.45593999997E+02  0.45594000000E+02  0.51100000000E-03 0. -1.
         11   -1    0    0    0    0 -0.00000000000E+00 -0.00000000000E+00 -0.45593999997E+02  0.45594000000E+02  0.51100000000E-03 0.  1.
    9900012    2    1    2    0    0 -0.10784264544E+02 -0.43813798795E+00 -0.15303204046E+02  0.72461537955E+02  0.69999957872E+02 0.  0.
        -12    1    1    2    0    0  0.10784264544E+02  0.43813798795E+00  0.15303204046E+02  0.18726462045E+02  0.00000000000E+00 0.  1.
         11    1    3    3    0    0 -0.25574574980E+02  0.13762151446E+02  0.57462686970E+01  0.29605325569E+02  0.51100000000E-03 0. -1.
        -11    1    3    3    0    0 -0.20035729207E+01  0.46888184488E+01 -0.16377506211E+02  0.17152901587E+02  0.51100000000E-03 0.  1.
        -12    1    3    3    0    0  0.16793883356E+02 -0.18889107883E+02 -0.46719665315E+01  0.25703310800E+02  0.00000000000E+00 0.  1.
</event>
<event>
 7    1  0.2656097E-013  0.7246160E+02  0.7816164E-02  0.1226708E+00
        -11   -1    0    0    0    0  0.00000000000E+00  0.00000000000E+00  0.45593999997E+02  0.45594000000E+02  0.51100000000E-03 0.  1.
         11   -1    0    0    0    0 -0.00000000000E+00 -0.00000000000E+00 -0.45593999997E+02  0.45594000000E+02  0.51100000000E-03 0. -1.
    9900012    2    1    2    0    0  0.16543453377E+01  0.26785023940E+00 -0.18651263597E+02  0.72461595219E+02  0.70000032469E+02 0.  0.
        -12    1    1    2    0    0 -0.16543453377E+01 -0.26785023940E+00  0.18651263597E+02  0.18726404781E+02  0.00000000000E+00 0.  1.
         11    1    3    3    0    0  0.95330734018E+01 -0.17857555203E+02 -0.23223524714E+02  0.30807529384E+02  0.51100000000E-03 0. -1.
        -11    1    3    3    0    0 -0.12022901984E+02 -0.55616642452E+01 -0.69831632132E+01  0.14974873957E+02  0.51100000000E-03 0.  1.
        -12    1    3    3    0    0  0.41441739201E+01  0.23687069687E+02  0.11555424330E+02  0.26679191879E+02  0.00000000000E+00 0.  1.
</event>
<event>
 7    1  0.2656097E-013  0.7246156E+02  0.7816164E-02  0.1226708E+00
        -11   -1    0    0    0    0  0.00000000000E+00  0.00000000000E+00  0.45593999997E+02  0.45594000000E+02  0.51100000000E-03 0.  1.
         11   -1    0    0    0    0 -0.00000000000E+00 -0.00000000000E+00 -0.45593999997E+02  0.45594000000E+02  0.51100000000E-03 0. -1.
    9900012    2    1    2    0    0 -0.10328018039E+02 -0.39483209956E+01  0.15113646443E+02  0.72461561361E+02  0.69999988363E+02 0.  0.
        -12    1    1    2    0    0  0.10328018039E+02  0.39483209956E+01 -0.15113646443E+02  0.18726438639E+02  0.00000000000E+00 0.  1.
         11    1    3    3    0    0 -0.20911479163E+02 -0.84301676530E+01 -0.43739118318E+01  0.22967124165E+02  0.51100000000E-03 0. -1.
        -11    1    3    3    0    0 -0.16323897122E+02 -0.42797519495E+01  0.10164329897E+02  0.19700241027E+02  0.51100000000E-03 0.  1.
        -12    1    3    3    0    0  0.26907358247E+02  0.87615986069E+01  0.93232283782E+01  0.29794196169E+02  0.00000000000E+00 0.  1.
</event>
<event>
 7    1  0.2656097E-013  0.7246157E+02  0.7816164E-02  0.1226708E+00
        -11   -1    0    0    0    0  0.00000000000E+00  0.00000000000E+00  0.45593999997E+02  0.45594000000E+02  0.51100000000E-03 0.  1.
         11   -1    0    0    0    0 -0.00000000000E+00 -0.00000000000E+00 -0.45593999997E+02  0.45594000000E+02  0.51100000000E-03 0. -1.
    9900012    2    1    2    0    0  0.79944960569E+01 -0.11713234150E+01 -0.16893641037E+02  0.72461572866E+02  0.70000003350E+02 0.  0.
        -12    1    1    2    0    0 -0.79944960569E+01  0.11713234150E+01  0.16893641037E+02  0.18726427134E+02  0.00000000000E+00 0.  1.
         11    1    3    3    0    0 -0.31580469971E+01 -0.77435266935E+01 -0.12273761994E+01  0.84523321684E+01  0.51100000000E-03 0. -1.
        -11    1    3    3    0    0 -0.11214501734E+02  0.12737789910E+02 -0.31596279843E+02  0.35865599690E+02  0.51100000000E-03 0.  1.
         12    1    3    3    0    0  0.22367044788E+02 -0.61655866316E+01  0.15930015006E+02  0.28143641007E+02  0.00000000000E+00 0. -1.
</event>
<event>
 7    1  0.2656097E-013  0.7246153E+02  0.7816164E-02  0.1226708E+00
        -11   -1    0    0    0    0  0.00000000000E+00  0.00000000000E+00  0.45593999997E+02  0.45594000000E+02  0.51100000000E-03 0.  1.
         11   -1    0    0    0    0 -0.00000000000E+00 -0.00000000000E+00 -0.45593999997E+02  0.45594000000E+02  0.51100000000E-03 0. -1.
    9900012    2    1    2    0    0  0.68739736101E+01  0.14546654916E+02  0.95824855638E+01  0.72461529110E+02  0.69999946349E+02 0.  0.
        -12    1    1    2    0    0 -0.68739736101E+01 -0.14546654916E+02 -0.95824855638E+01  0.18726470890E+02  0.00000000000E+00 0.  1.
         11    1    3    3    0    0 -0.23947103198E+02  0.12152186271E+02  0.65475254847E+01  0.27640721282E+02  0.51100000000E-03 0. -1.
        -11    1    3    3    0    0  0.15326508042E+02  0.17138500629E+02  0.43177594087E+01  0.23393868837E+02  0.51100000000E-03 0.  1.
        -12    1    3    3    0    0  0.15494568766E+02 -0.14744031985E+02 -0.12827993296E+01  0.21426938991E+02  0.00000000000E+00 0.  1.
</event>
<event>
 7    1  0.2656097E-013  0.7246158E+02  0.7816164E-02  0.1226708E+00
        -11   -1    0    0    0    0  0.00000000000E+00  0.00000000000E+00  0.45593999997E+02  0.45594000000E+02  0.51100000000E-03 0.  1.
         11   -1    0    0    0    0 -0.00000000000E+00 -0.00000000000E+00 -0.45593999997E+02  0.45594000000E+02  0.51100000000E-03 0. -1.
    9900012    2    1    2    0    0 -0.92071883467E+01 -0.14871352851E+02 -0.66894952080E+01  0.72461580187E+02  0.70000012887E+02 0.  0.
        -12    1    1    2    0    0  0.92071883467E+01  0.14871352851E+02  0.66894952080E+01  0.18726419813E+02  0.00000000000E+00 0.  1.
         11    1    3    3    0    0  0.52598739245E+01 -0.14948184167E+02  0.28970185752E+01  0.16109227185E+02  0.51100000000E-03 0. -1.
        -11    1    3    3    0    0  0.17965569211E+02  0.10998851777E+02 -0.11013663355E+01  0.21093824346E+02  0.51100000000E-03 0.  1.
        -12    1    3    3    0    0 -0.32432631482E+02 -0.10922020461E+02 -0.84851474476E+01  0.35258528656E+02  0.00000000000E+00 0.  1.
</event>
<event>
 7    1  0.2656097E-013  0.7246161E+02  0.7816164E-02  0.1226708E+00
        -11   -1    0    0    0    0  0.00000000000E+00  0.00000000000E+00  0.45593999997E+02  0.45594000000E+02  0.51100000000E-03 0. -1.
         11   -1    0    0    0    0 -0.00000000000E+00 -0.00000000000E+00 -0.45593999997E+02  0.45594000000E+02  0.51100000000E-03 0.  1.
    9900012    2    1    2    0    0  0.16479025391E+01  0.15647477283E+02  0.10154737092E+02  0.72461606500E+02  0.70000047165E+02 0.  0.
        -12    1    1    2    0    0 -0.16479025391E+01 -0.15647477283E+02 -0.10154737092E+02  0.18726393500E+02  0.00000000000E+00 0.  1.
         11    1    3    3    0    0  0.10162972215E+02  0.69313267542E+01  0.27556128333E+02  0.30177301135E+02  0.51100000000E-03 0. -1.
        -11    1    3    3    0    0  0.29969779672E+01 -0.27287841424E+01  0.98012626095E+01  0.10606266489E+02  0.51100000000E-03 0.  1.
        -12    1    3    3    0    0 -0.11512047643E+02  0.11444934671E+02 -0.27202653850E+02  0.31678038876E+02  0.00000000000E+00 0.  1.
</event>
<event>
 7    1  0.2656097E-013  0.7246154E+02  0.7816164E-02  0.1226708E+00
        -11   -1    0    0    0    0  0.00000000000E+00  0.00000000000E+00  0.45593999997E+02  0.45594000000E+02  0.51100000000E-03 0. -1.
         11   -1    0    0    0    0 -0.00000000000E+00 -0.00000000000E+00 -0.45593999997E+02  0.45594000000E+02  0.51100000000E-03 0.  1.
    9900012    2    1    2    0    0 -0.14785004846E+02  0.30540322834E+01  0.11079564597E+02  0.72461541895E+02  0.69999963005E+02 0.  0.
        -12    1    1    2    0    0  0.14785004846E+02 -0.30540322834E+01 -0.11079564597E+02  0.18726458105E+02  0.00000000000E+00 0.  1.
         11    1    3    3    0    0  0.48878176018E+00  0.64349389274E+01  0.11661471555E+02  0.13328063089E+02  0.51100000000E-03 0. -1.
        -11    1    3    3    0    0  0.21606768224E+02  0.10365420842E+01  0.29058654290E+01  0.21825922815E+02  0.51100000000E-03 0.  1.
         12    1    3    3    0    0 -0.36880554830E+02 -0.44174487281E+01 -0.34877723878E+01  0.37307555992E+02  0.00000000000E+00 0. -1.
</event>
<event>
 7    1  0.2656097E-013  0.7246164E+02  0.7816164E-02  0.1226708E+00
        -11   -1    0    0    0    0  0.00000000000E+00  0.00000000000E+00  0.45593999997E+02  0.45594000000E+02  0.51100000000E-03 0.  1.
         11   -1    0    0    0    0 -0.00000000000E+00 -0.00000000000E+00 -0.45593999997E+02  0.45594000000E+02  0.51100000000E-03 0. -1.
    9900012    2    1    2    0    0  0.58468776997E+01  0.14647058408E+02 -0.10097249012E+02  0.72461635258E+02  0.70000084628E+02 0.  0.
        -12    1    1    2    0    0 -0.58468776997E+01 -0.14647058408E+02  0.10097249012E+02  0.18726364742E+02  0.00000000000E+00 0.  1.
         11    1    3    3    0    0  0.59964943160E+01  0.20734263230E+02 -0.31583965159E+01  0.21813827829E+02  0.51100000000E-03 0. -1.
        -11    1    3    3    0    0  0.17448446418E+02  0.12485423561E+02  0.55718399243E+01  0.22167081096E+02  0.51100000000E-03 0.  1.
        -12    1    3    3    0    0 -0.17598063035E+02 -0.18572628383E+02 -0.12510692420E+02  0.28480726333E+02  0.00000000000E+00 0.  1.
</event>
<event>
 7    1  0.2656097E-013  0.7246156E+02  0.7816164E-02  0.1226708E+00
        -11   -1    0    0    0    0  0.00000000000E+00  0.00000000000E+00  0.45593999997E+02  0.45594000000E+02  0.51100000000E-03 0.  1.
         11   -1    0    0    0    0 -0.00000000000E+00 -0.00000000000E+00 -0.45593999997E+02  0.45594000000E+02  0.51100000000E-03 0. -1.
    9900012    2    1    2    0    0 -0.15512260560E+02 -0.52975254287E+01 -0.90545881629E+01  0.72461559598E+02  0.69999986066E+02 0.  0.
        -12    1    1    2    0    0  0.15512260560E+02  0.52975254287E+01  0.90545881629E+01  0.18726440402E+02  0.00000000000E+00 0.  1.
         11    1    3    3    0    0 -0.15989650905E+02 -0.16698458785E+02 -0.12083452596E+02  0.26086726294E+02  0.51100000000E-03 0. -1.
        -11    1    3    3    0    0 -0.20199854880E+02  0.14648363145E+02 -0.13591428224E+01  0.24989116621E+02  0.51100000000E-03 0.  1.
        -12    1    3    3    0    0  0.20677245225E+02 -0.32474297888E+01  0.43880072560E+01  0.21385716683E+02  0.00000000000E+00 0.  1.
</event>
<event>
 7    1  0.2656097E-013  0.7246154E+02  0.7816164E-02  0.1226708E+00
        -11   -1    0    0    0    0  0.00000000000E+00  0.00000000000E+00  0.45593999997E+02  0.45594000000E+02  0.51100000000E-03 0.  1.
         11   -1    0    0    0    0 -0.00000000000E+00 -0.00000000000E+00 -0.45593999997E+02  0.45594000000E+02  0.51100000000E-03 0. -1.
    9900012    2    1    2    0    0  0.49553225001E+01  0.33241753960E+01 -0.17750347697E+02  0.72461542606E+02  0.69999963931E+02 0.  0.
        -12    1    1    2    0    0 -0.49553225001E+01 -0.33241753960E+01  0.17750347697E+02  0.18726457394E+02  0.00000000000E+00 0.  1.
         11    1    3    3    0    0 -0.25990777110E+02  0.86397180241E+01 -0.13776207796E+02  0.30658589724E+02  0.51100000000E-03 0. -1.
        -11    1    3    3    0    0 -0.30096730709E+01 -0.49725817313E+01  0.38291578515E+01  0.69603987803E+01  0.51100000000E-03 0.  1.
        -12    1    3    3    0    0  0.33955772681E+02 -0.34296089684E+00 -0.78032977526E+01  0.34842554102E+02  0.00000000000E+00 0.  1.
</event>
<event>
 7    1  0.2656097E-013  0.7246157E+02  0.7816164E-02  0.1226708E+00
        -11   -1    0    0    0    0  0.00000000000E+00  0.00000000000E+00  0.45593999997E+02  0.45594000000E+02  0.51100000000E-03 0. -1.
         11   -1    0    0    0    0 -0.00000000000E+00 -0.00000000000E+00 -0.45593999997E+02  0.45594000000E+02  0.51100000000E-03 0.  1.
    9900012    2    1    2    0    0 -0.59439160025E+01 -0.17561616581E+02  0.26341087108E+01  0.72461573671E+02  0.70000004398E+02 0.  0.
        -12    1    1    2    0    0  0.59439160025E+01  0.17561616581E+02 -0.26341087108E+01  0.18726426329E+02  0.00000000000E+00 0.  1.
         11    1    3    3    0    0 -0.26213240734E+02 -0.19828430652E+02  0.16299363386E+02  0.36687462421E+02  0.51100000000E-03 0. -1.
        -11    1    3    3    0    0 -0.45665073032E+01 -0.31793286444E+00 -0.93823834542E+01  0.10439501415E+02  0.51100000000E-03 0.  1.
        -12    1    3    3    0    0  0.24835832034E+02  0.25847469354E+01 -0.42828712209E+01  0.25334609834E+02  0.00000000000E+00 0.  1.
</event>
<event>
 7    1  0.2656097E-013  0.7246151E+02  0.7816164E-02  0.1226708E+00
        -11   -1    0    0    0    0  0.00000000000E+00  0.00000000000E+00  0.45593999997E+02  0.45594000000E+02  0.51100000000E-03 0.  1.
         11   -1    0    0    0    0 -0.00000000000E+00 -0.00000000000E+00 -0.45593999997E+02  0.45594000000E+02  0.51100000000E-03 0. -1.
    9900012    2    1    2    0    0 -0.35766801364E+01 -0.17702435714E+02 -0.49510313404E+01  0.72461505871E+02  0.69999916077E+02 0.  0.
        -12    1    1    2    0    0  0.35766801364E+01  0.17702435714E+02  0.49510313404E+01  0.18726494129E+02  0.00000000000E+00 0.  1.
         11    1    3    3    0    0 -0.21136341828E+02 -0.25271815190E+02  0.64458209860E+01  0.33570198053E+02  0.51100000000E-03 0. -1.
        -11    1    3    3    0    0 -0.42255445008E+01  0.13734175236E+02 -0.26061177069E+01  0.14603925688E+02  0.51100000000E-03 0.  1.
        -12    1    3    3    0    0  0.21785206192E+02 -0.61647957598E+01 -0.87907346196E+01  0.24287382130E+02  0.00000000000E+00 0.  1.
</event>
<event>
 7    1  0.2656097E-013  0.7246157E+02  0.7816164E-02  0.1226708E+00
        -11   -1    0    0    0    0  0.00000000000E+00  0.00000000000E+00  0.45593999997E+02  0.45594000000E+02  0.51100000000E-03 0.  1.
         11   -1    0    0    0    0 -0.00000000000E+00 -0.00000000000E+00 -0.45593999997E+02  0.45594000000E+02  0.51100000000E-03 0. -1.
    9900012    2    1    2    0    0  0.53769952877E+00 -0.15771197096E+02  0.10082621448E+02  0.72461573916E+02  0.70000004718E+02 0.  0.
        -12    1    1    2    0    0 -0.53769952877E+00  0.15771197096E+02 -0.10082621448E+02  0.18726426084E+02  0.00000000000E+00 0.  1.
         11    1    3    3    0    0  0.11525673024E+02 -0.10348329118E+02 -0.12244918489E+01  0.15537967523E+02  0.51100000000E-03 0. -1.
        -11    1    3    3    0    0 -0.87298459332E+01  0.21001429832E+02 -0.80108452850E+01  0.24113148020E+02  0.51100000000E-03 0.  1.
         12    1    3    3    0    0 -0.22581275621E+01 -0.26424297810E+02  0.19317958582E+02  0.32810458373E+02  0.00000000000E+00 0. -1.
</event>
<event>
 7    1  0.2656097E-013  0.7246159E+02  0.7816164E-02  0.1226708E+00
        -11   -1    0    0    0    0  0.00000000000E+00  0.00000000000E+00  0.45593999997E+02  0.45594000000E+02  0.51100000000E-03 0.  1.
         11   -1    0    0    0    0 -0.00000000000E+00 -0.00000000000E+00 -0.45593999997E+02  0.45594000000E+02  0.51100000000E-03 0. -1.
    9900012    2    1    2    0    0  0.78411599121E+01  0.39304077852E+01 -0.16545289320E+02  0.72461588363E+02  0.70000023538E+02 0.  0.
        -12    1    1    2    0    0 -0.78411599121E+01 -0.39304077852E+01  0.16545289320E+02  0.18726411637E+02  0.00000000000E+00 0.  1.
         11    1    3    3    0    0  0.50218291661E+01 -0.68397680304E+01  0.99311555808E+01  0.13062505361E+02  0.51100000000E-03 0. -1.
        -11    1    3    3    0    0  0.14057193560E+01  0.11864174885E+02  0.14271413455E+02  0.18612037365E+02  0.51100000000E-03 0.  1.
         12    1    3    3    0    0  0.14136113899E+01 -0.10939990699E+01 -0.40747858356E+02  0.40787045636E+02  0.00000000000E+00 0. -1.
</event>
<event>
 7    1  0.2656097E-013  0.7246156E+02  0.7816164E-02  0.1226708E+00
        -11   -1    0    0    0    0  0.00000000000E+00  0.00000000000E+00  0.45593999997E+02  0.45594000000E+02  0.51100000000E-03 0. -1.
         11   -1    0    0    0    0 -0.00000000000E+00 -0.00000000000E+00 -0.45593999997E+02  0.45594000000E+02  0.51100000000E-03 0.  1.
    9900012    2    1    2    0    0  0.28522716781E+01 -0.77677976081E+01  0.16798972084E+02  0.72461558894E+02  0.69999985149E+02 0.  0.
        -12    1    1    2    0    0 -0.28522716781E+01  0.77677976081E+01 -0.16798972084E+02  0.18726441106E+02  0.00000000000E+00 0.  1.
         11    1    3    3    0    0  0.26260801062E+01  0.11425089927E+02  0.88955493769E+01  0.14715970085E+02  0.51100000000E-03 0. -1.
        -11    1    3    3    0    0 -0.19678246067E+02  0.46202863002E+01  0.15874777048E+02  0.25701925226E+02  0.51100000000E-03 0.  1.
        -12    1    3    3    0    0  0.19904437639E+02 -0.23813173835E+02 -0.79713543404E+01  0.32043663583E+02  0.00000000000E+00 0.  1.
</event>
<event>
 7    1  0.2656097E-013  0.7246160E+02  0.7816164E-02  0.1226708E+00
        -11   -1    0    0    0    0  0.00000000000E+00  0.00000000000E+00  0.45593999997E+02  0.45594000000E+02  0.51100000000E-03 0.  1.
         11   -1    0    0    0    0 -0.00000000000E+00 -0.00000000000E+00 -0.45593999997E+02  0.45594000000E+02  0.51100000000E-03 0. -1.
    9900012    2    1    2    0    0 -0.11667910812E+02  0.40664362887E+01 -0.14071323446E+02  0.72461596439E+02  0.70000034059E+02 0.  0.
        -12    1    1    2    0    0  0.11667910812E+02 -0.40664362887E+01  0.14071323446E+02  0.18726403561E+02  0.00000000000E+00 0.  1.
         11    1    3    3    0    0 -0.51766094605E-01 -0.58180829681E+01  0.76031758323E+01  0.95739778645E+01  0.51100000000E-03 0. -1.
        -11    1    3    3    0    0 -0.66115782070E+01 -0.61338537377E+00  0.19239380228E+02  0.20352959486E+02  0.51100000000E-03 0.  1.
         12    1    3    3    0    0 -0.50045665105E+01  0.10497904631E+02 -0.40913879506E+02  0.42534659089E+02  0.00000000000E+00 0. -1.
</event>
<event>
 7    1  0.2656097E-013  0.7246152E+02  0.7816164E-02  0.1226708E+00
        -11   -1    0    0    0    0  0.00000000000E+00  0.00000000000E+00  0.45593999997E+02  0.45594000000E+02  0.51100000000E-03 0. -1.
         11   -1    0    0    0    0 -0.00000000000E+00 -0.00000000000E+00 -0.45593999997E+02  0.45594000000E+02  0.51100000000E-03 0.  1.
    9900012    2    1    2    0    0 -0.14158554536E+02 -0.78747783924E+01  0.93917035613E+01  0.72461524169E+02  0.69999939913E+02 0.  0.
        -12    1    1    2    0    0  0.14158554536E+02  0.78747783924E+01 -0.93917035613E+01  0.18726475831E+02  0.00000000000E+00 0.  1.
         11    1    3    3    0    0 -0.28608007505E+02  0.36466361310E+01 -0.32451233701E+01  0.29021489873E+02  0.51100000000E-03 0. -1.
        -11    1    3    3    0    0 -0.11194438675E+02  0.34048730602E+01  0.17332836750E+01  0.11828477940E+02  0.51100000000E-03 0.  1.
        -12    1    3    3    0    0  0.25643891645E+02 -0.14926287584E+02  0.10903543256E+02  0.31611556356E+02  0.00000000000E+00 0.  1.
</event>
<event>
 7    1  0.2656097E-013  0.7246147E+02  0.7816164E-02  0.1226708E+00
        -11   -1    0    0    0    0  0.00000000000E+00  0.00000000000E+00  0.45593999997E+02  0.45594000000E+02  0.51100000000E-03 0.  1.
         11   -1    0    0    0    0 -0.00000000000E+00 -0.00000000000E+00 -0.45593999997E+02  0.45594000000E+02  0.51100000000E-03 0. -1.
    9900012    2    1    2    0    0 -0.13884382980E+01 -0.83501248998E+01 -0.16704203281E+02  0.72461474588E+02  0.69999875324E+02 0.  0.
        -12    1    1    2    0    0  0.13884382980E+01  0.83501248998E+01  0.16704203281E+02  0.18726525412E+02  0.00000000000E+00 0.  1.
         11    1    3    3    0    0  0.55650564673E+01  0.18724257061E+02 -0.11570265084E+02  0.22703274882E+02  0.51100000000E-03 0. -1.
        -11    1    3    3    0    0 -0.92945810719E+01  0.72041229551E+01  0.65584414743E+01  0.13464834930E+02  0.51100000000E-03 0.  1.
         12    1    3    3    0    0  0.23410863067E+01 -0.34278504916E+02 -0.11692379671E+02  0.36293364776E+02  0.00000000000E+00 0. -1.
</event>
<event>
 7    1  0.2656097E-013  0.7246156E+02  0.7816164E-02  0.1226708E+00
        -11   -1    0    0    0    0  0.00000000000E+00  0.00000000000E+00  0.45593999997E+02  0.45594000000E+02  0.51100000000E-03 0.  1.
         11   -1    0    0    0    0 -0.00000000000E+00 -0.00000000000E+00 -0.45593999997E+02  0.45594000000E+02  0.51100000000E-03 0. -1.
    9900012    2    1    2    0    0 -0.74214424474E+01  0.55414403353E+01  0.16275565899E+02  0.72461563758E+02  0.69999991485E+02 0.  0.
        -12    1    1    2    0    0  0.74214424474E+01 -0.55414403353E+01 -0.16275565899E+02  0.18726436242E+02  0.00000000000E+00 0.  1.
         11    1    3    3    0    0  0.27544175014E+01 -0.43870126052E+01  0.31760360273E+01  0.60761748228E+01  0.51100000000E-03 0. -1.
        -11    1    3    3    0    0  0.25225094556E+02  0.89413111040E+01 -0.39973246172E+01  0.27059767996E+02  0.51100000000E-03 0.  1.
        -12    1    3    3    0    0 -0.35400954505E+02  0.98714183647E+00  0.17096854489E+02  0.39325620939E+02  0.00000000000E+00 0.  1.
</event>
<event>
 7    1  0.2656097E-013  0.7246149E+02  0.7816164E-02  0.1226708E+00
        -11   -1    0    0    0    0  0.00000000000E+00  0.00000000000E+00  0.45593999997E+02  0.45594000000E+02  0.51100000000E-03 0. -1.
         11   -1    0    0    0    0 -0.00000000000E+00 -0.00000000000E+00 -0.45593999997E+02  0.45594000000E+02  0.51100000000E-03 0.  1.
    9900012    2    1    2    0    0  0.63423619783E+01 -0.42356957108E+01  0.17103087554E+02  0.72461487311E+02  0.69999891899E+02 0.  0.
        -12    1    1    2    0    0 -0.63423619783E+01  0.42356957108E+01 -0.17103087554E+02  0.18726512689E+02  0.00000000000E+00 0.  1.
         11    1    3    3    0    0  0.18954772337E+01  0.47774611794E+01 -0.11761924689E+01  0.52726082965E+01  0.51100000000E-03 0. -1.
        -11    1    3    3    0    0  0.66314831590E+01  0.26574371691E+02  0.60947215633E+00  0.27396081038E+02  0.51100000000E-03 0.  1.
         12    1    3    3    0    0 -0.21845984143E+01 -0.35587528581E+02  0.17669807866E+02  0.39792797976E+02  0.00000000000E+00 0. -1.
</event>
<event>
 7    1  0.2656097E-013  0.7246145E+02  0.7816164E-02  0.1226708E+00
        -11   -1    0    0    0    0  0.00000000000E+00  0.00000000000E+00  0.45593999997E+02  0.45594000000E+02  0.51100000000E-03 0. -1.
         11   -1    0    0    0    0 -0.00000000000E+00 -0.00000000000E+00 -0.45593999997E+02  0.45594000000E+02  0.51100000000E-03 0.  1.
    9900012    2    1    2    0    0 -0.13714768172E+02  0.59046240870E+01  0.11301519246E+02  0.72461446957E+02  0.69999839329E+02 0.  0.
        -12    1    1    2    0    0  0.13714768172E+02 -0.59046240870E+01 -0.11301519246E+02  0.18726553043E+02  0.00000000000E+00 0.  1.
         11    1    3    3    0    0 -0.98735630245E+01  0.81334334807E+00  0.19650698666E+02  0.22006788328E+02  0.51100000000E-03 0. -1.
        -11    1    3    3    0    0 -0.65463671743E+00 -0.21712358670E+02 -0.88544320389E+01  0.23457536854E+02  0.51100000000E-03 0.  1.
         12    1    3    3    0    0 -0.31865684301E+01  0.26803639409E+02  0.50525261925E+00  0.26997121775E+02  0.00000000000E+00 0. -1.
</event>
<event>
 7    1  0.2656097E-013  0.7246156E+02  0.7816164E-02  0.1226708E+00
        -11   -1    0    0    0    0  0.00000000000E+00  0.00000000000E+00  0.45593999997E+02  0.45594000000E+02  0.51100000000E-03 0.  1.
         11   -1    0    0    0    0 -0.00000000000E+00 -0.00000000000E+00 -0.45593999997E+02  0.45594000000E+02  0.51100000000E-03 0. -1.
    9900012    2    1    2    0    0  0.16383033291E+02  0.50017843479E+01 -0.75668947362E+01  0.72461560872E+02  0.69999987725E+02 0.  0.
        -12    1    1    2    0    0 -0.16383033291E+02 -0.50017843479E+01  0.75668947362E+01  0.18726439128E+02  0.00000000000E+00 0.  1.
         11    1    3    3    0    0  0.13885320267E+02 -0.81910184158E+01 -0.58613343919E+01  0.17153720959E+02  0.51100000000E-03 0. -1.
        -11    1    3    3    0    0 -0.75819085135E+01  0.17670964150E+02 -0.23809669071E+02  0.30604716176E+02  0.51100000000E-03 0.  1.
         12    1    3    3    0    0  0.10079621537E+02 -0.44781613862E+01  0.22104108727E+02  0.24703123737E+02  0.00000000000E+00 0. -1.
</event>
<event>
 7    1  0.2656097E-013  0.7246153E+02  0.7816164E-02  0.1226708E+00
        -11   -1    0    0    0    0  0.00000000000E+00  0.00000000000E+00  0.45593999997E+02  0.45594000000E+02  0.51100000000E-03 0. -1.
         11   -1    0    0    0    0 -0.00000000000E+00 -0.00000000000E+00 -0.45593999997E+02  0.45594000000E+02  0.51100000000E-03 0.  1.
    9900012    2    1    2    0    0 -0.53539709094E+01  0.16388114042E+00  0.17944042556E+02  0.72461534109E+02  0.69999952862E+02 0.  0.
        -12    1    1    2    0    0  0.53539709094E+01 -0.16388114042E+00 -0.17944042556E+02  0.18726465891E+02  0.00000000000E+00 0.  1.
         11    1    3    3    0    0 -0.11757606571E+02  0.21898599574E+02  0.16532260928E+02  0.29851392384E+02  0.51100000000E-03 0. -1.
        -11    1    3    3    0    0 -0.65811584685E+01  0.70042032575E+01 -0.43540261487E+01  0.10551211022E+02  0.51100000000E-03 0.  1.
         12    1    3    3    0    0  0.12984794130E+02 -0.28738921691E+02  0.57658077761E+01  0.32058930704E+02  0.00000000000E+00 0. -1.
</event>
<event>
 7    1  0.2656097E-013  0.7246156E+02  0.7816164E-02  0.1226708E+00
        -11   -1    0    0    0    0  0.00000000000E+00  0.00000000000E+00  0.45593999997E+02  0.45594000000E+02  0.51100000000E-03 0.  1.
         11   -1    0    0    0    0 -0.00000000000E+00 -0.00000000000E+00 -0.45593999997E+02  0.45594000000E+02  0.51100000000E-03 0. -1.
    9900012    2    1    2    0    0  0.14622802461E+02 -0.11658889395E+02  0.96092860367E+00  0.72461563139E+02  0.69999990678E+02 0.  0.
        -12    1    1    2    0    0 -0.14622802461E+02  0.11658889395E+02 -0.96092860367E+00  0.18726436861E+02  0.00000000000E+00 0.  1.
         11    1    3    3    0    0 -0.11488596799E+02  0.98429862788E+01 -0.60033388979E+00  0.15140430520E+02  0.51100000000E-03 0. -1.
        -11    1    3    3    0    0  0.11647901770E+02 -0.71073451428E+01  0.23615873351E+02  0.27274483405E+02  0.51100000000E-03 0.  1.
         12    1    3    3    0    0  0.14463497491E+02 -0.14394530531E+02 -0.22054610857E+02  0.30046649213E+02  0.00000000000E+00 0. -1.
</event>
<event>
 7    1  0.2656097E-013  0.7246158E+02  0.7816164E-02  0.1226708E+00
        -11   -1    0    0    0    0  0.00000000000E+00  0.00000000000E+00  0.45593999997E+02  0.45594000000E+02  0.51100000000E-03 0.  1.
         11   -1    0    0    0    0 -0.00000000000E+00 -0.00000000000E+00 -0.45593999997E+02  0.45594000000E+02  0.51100000000E-03 0. -1.
    9900012    2    1    2    0    0  0.93833549483E+01  0.15257595458E+02 -0.54623618234E+01  0.72461575730E+02  0.70000007081E+02 0.  0.
        -12    1    1    2    0    0 -0.93833549483E+01 -0.15257595458E+02  0.54623618234E+01  0.18726424270E+02  0.00000000000E+00 0.  1.
         11    1    3    3    0    0  0.84090314312E+01  0.26396511303E+02 -0.15187832722E+02  0.31593636727E+02  0.51100000000E-03 0. -1.
        -11    1    3    3    0    0  0.13926040324E+02  0.47205548317E+01  0.13598932637E+02  0.20028709548E+02  0.51100000000E-03 0.  1.
        -12    1    3    3    0    0 -0.12951716807E+02 -0.15859470677E+02 -0.38734617393E+01  0.20839229455E+02  0.00000000000E+00 0.  1.
</event>
<event>
 7    1  0.2656097E-013  0.7246156E+02  0.7816164E-02  0.1226708E+00
        -11   -1    0    0    0    0  0.00000000000E+00  0.00000000000E+00  0.45593999997E+02  0.45594000000E+02  0.51100000000E-03 0.  1.
         11   -1    0    0    0    0 -0.00000000000E+00 -0.00000000000E+00 -0.45593999997E+02  0.45594000000E+02  0.51100000000E-03 0. -1.
    9900012    2    1    2    0    0 -0.14817708749E+02  0.34187800645E+01 -0.10928272151E+02  0.72461556614E+02  0.69999982179E+02 0.  0.
        -12    1    1    2    0    0  0.14817708749E+02 -0.34187800645E+01  0.10928272151E+02  0.18726443386E+02  0.00000000000E+00 0.  1.
         11    1    3    3    0    0 -0.18649226438E+02 -0.19719132743E+02 -0.33955225846E+01  0.27352649173E+02  0.51100000000E-03 0.  1.
        -11    1    3    3    0    0  0.30775222260E+01 -0.10119088631E+02 -0.51341946458E+01  0.11757000157E+02  0.51100000000E-03 0. -1.
        -12    1    3    3    0    0  0.75399546357E+00  0.33257001438E+02 -0.23985549203E+01  0.33351907284E+02  0.00000000000E+00 0.  1.
</event>
<event>
 7    1  0.2656097E-013  0.7246133E+02  0.7816164E-02  0.1226709E+00
        -11   -1    0    0    0    0  0.00000000000E+00  0.00000000000E+00  0.45593999997E+02  0.45594000000E+02  0.51100000000E-03 0. -1.
         11   -1    0    0    0    0 -0.00000000000E+00 -0.00000000000E+00 -0.45593999997E+02  0.45594000000E+02  0.51100000000E-03 0.  1.
    9900012    2    1    2    0    0  0.17967052817E+02  0.52025079294E+01  0.89847023372E+00  0.72461325857E+02  0.69999681575E+02 0.  0.
        -12    1    1    2    0    0 -0.17967052817E+02 -0.52025079294E+01 -0.89847023372E+00  0.18726674143E+02  0.00000000000E+00 0.  1.
         11    1    3    3    0    0  0.15681474499E+01  0.16836362183E+02 -0.17945217896E+02  0.24656703420E+02  0.51100000000E-03 0. -1.
        -11    1    3    3    0    0  0.55204247094E+01 -0.12081244789E+02 -0.10225851839E+02  0.16763043004E+02  0.51100000000E-03 0.  1.
         12    1    3    3    0    0  0.10878480658E+02  0.44739053617E+00  0.29069539969E+02  0.31041579433E+02  0.00000000000E+00 0. -1.
</event>
<event>
 7    1  0.2656097E-013  0.7246163E+02  0.7816164E-02  0.1226708E+00
        -11   -1    0    0    0    0  0.00000000000E+00  0.00000000000E+00  0.45593999997E+02  0.45594000000E+02  0.51100000000E-03 0.  1.
         11   -1    0    0    0    0 -0.00000000000E+00 -0.00000000000E+00 -0.45593999997E+02  0.45594000000E+02  0.51100000000E-03 0. -1.
    9900012    2    1    2    0    0 -0.12119237029E+02  0.63910970184E+01 -0.12765378118E+02  0.72461630737E+02  0.70000078738E+02 0.  0.
        -12    1    1    2    0    0  0.12119237029E+02 -0.63910970184E+01  0.12765378118E+02  0.18726369263E+02  0.00000000000E+00 0.  1.
         11    1    3    3    0    0  0.24202512676E+01 -0.21941665854E+02 -0.20966117849E+02  0.30444579395E+02  0.51100000000E-03 0. -1.
        -11    1    3    3    0    0  0.33145153998E+01  0.38263901107E+00  0.81982315497E+01  0.88511821669E+01  0.51100000000E-03 0.  1.
         12    1    3    3    0    0 -0.17854003696E+02  0.27950123861E+02  0.25081811532E-02  0.33165869175E+02  0.00000000000E+00 0. -1.
</event>
<event>
 7    1  0.2656097E-013  0.7246159E+02  0.7816164E-02  0.1226708E+00
        -11   -1    0    0    0    0  0.00000000000E+00  0.00000000000E+00  0.45593999997E+02  0.45594000000E+02  0.51100000000E-03 0.  1.
         11   -1    0    0    0    0 -0.00000000000E+00 -0.00000000000E+00 -0.45593999997E+02  0.45594000000E+02  0.51100000000E-03 0. -1.
    9900012    2    1    2    0    0 -0.35714400176E+01  0.18229500167E+02 -0.23682031382E+01  0.72461594946E+02  0.70000032113E+02 0.  0.
        -12    1    1    2    0    0  0.35714400176E+01 -0.18229500167E+02  0.23682031382E+01  0.18726405054E+02  0.00000000000E+00 0.  1.
         11    1    3    3    0    0  0.14962661291E+02  0.26149020182E+02 -0.14542529148E+02  0.33453514668E+02  0.51100000000E-03 0. -1.
        -11    1    3    3    0    0  0.66365376437E+01 -0.50459946786E+01 -0.36895480273E+01  0.91169325488E+01  0.51100000000E-03 0.  1.
        -12    1    3    3    0    0 -0.25170638952E+02 -0.28735253359E+01  0.15863874037E+02  0.29891147729E+02  0.00000000000E+00 0.  1.
</event>
<event>
 7    1  0.2656097E-013  0.7246156E+02  0.7816164E-02  0.1226708E+00
        -11   -1    0    0    0    0  0.00000000000E+00  0.00000000000E+00  0.45593999997E+02  0.45594000000E+02  0.51100000000E-03 0. -1.
         11   -1    0    0    0    0 -0.00000000000E+00 -0.00000000000E+00 -0.45593999997E+02  0.45594000000E+02  0.51100000000E-03 0.  1.
    9900012    2    1    2    0    0  0.91463207169E+01 -0.16303674906E+02  0.11020131913E+01  0.72461563308E+02  0.69999990899E+02 0.  0.
        -12    1    1    2    0    0 -0.91463207169E+01  0.16303674906E+02 -0.11020131913E+01  0.18726436692E+02  0.00000000000E+00 0.  1.
         11    1    3    3    0    0  0.83097384119E+01 -0.19043203419E+02  0.71863796329E+01  0.21984981270E+02  0.51100000000E-03 0. -1.
        -11    1    3    3    0    0  0.18934818132E+02  0.18230639487E+02 -0.30183323281E+01  0.26457397531E+02  0.51100000000E-03 0.  1.
         12    1    3    3    0    0 -0.18098235827E+02 -0.15491110973E+02 -0.30660341135E+01  0.24019184508E+02  0.00000000000E+00 0. -1.
</event>
<event>
 7    1  0.2656097E-013  0.7246163E+02  0.7816164E-02  0.1226708E+00
        -11   -1    0    0    0    0  0.00000000000E+00  0.00000000000E+00  0.45593999997E+02  0.45594000000E+02  0.51100000000E-03 0.  1.
         11   -1    0    0    0    0 -0.00000000000E+00 -0.00000000000E+00 -0.45593999997E+02  0.45594000000E+02  0.51100000000E-03 0. -1.
    9900012    2    1    2    0    0  0.94707109029E+01 -0.10507673305E+02 -0.12270753009E+02  0.72461629751E+02  0.70000077453E+02 0.  0.
        -12    1    1    2    0    0 -0.94707109029E+01  0.10507673305E+02  0.12270753009E+02  0.18726370249E+02  0.00000000000E+00 0.  1.
         11    1    3    3    0    0 -0.22346187945E+02 -0.15134423796E+02 -0.77682929433E+01  0.28084680430E+02  0.51100000000E-03 0. -1.
        -11    1    3    3    0    0  0.26234705407E+01  0.33666966496E+01 -0.13213334660E+02  0.13885584507E+02  0.51100000000E-03 0.  1.
        -12    1    3    3    0    0  0.29193428308E+02  0.12600538418E+01  0.87108745940E+01  0.30491364814E+02  0.00000000000E+00 0.  1.
</event>
<event>
 7    1  0.2656097E-013  0.7246161E+02  0.7816164E-02  0.1226708E+00
        -11   -1    0    0    0    0  0.00000000000E+00  0.00000000000E+00  0.45593999997E+02  0.45594000000E+02  0.51100000000E-03 0.  1.
         11   -1    0    0    0    0 -0.00000000000E+00 -0.00000000000E+00 -0.45593999997E+02  0.45594000000E+02  0.51100000000E-03 0. -1.
    9900012    2    1    2    0    0  0.12612477328E+01  0.12867630551E+02 -0.13546620505E+02  0.72461612496E+02  0.70000054976E+02 0.  0.
        -12    1    1    2    0    0 -0.12612477328E+01 -0.12867630551E+02  0.13546620505E+02  0.18726387504E+02  0.00000000000E+00 0.  1.
         11    1    3    3    0    0 -0.13413675550E+02  0.33422951768E+02 -0.79306541798E+01  0.36877034488E+02  0.51100000000E-03 0. -1.
        -11    1    3    3    0    0 -0.11345159025E+01  0.48879777607E+01  0.39147039080E+00  0.50331602647E+01  0.51100000000E-03 0.  1.
        -12    1    3    3    0    0  0.15809439185E+02 -0.25443298978E+02 -0.60074367159E+01  0.30551417743E+02  0.00000000000E+00 0.  1.
</event>
<event>
 7    1  0.2656097E-013  0.7246166E+02  0.7816164E-02  0.1226708E+00
        -11   -1    0    0    0    0  0.00000000000E+00  0.00000000000E+00  0.45593999997E+02  0.45594000000E+02  0.51100000000E-03 0.  1.
         11   -1    0    0    0    0 -0.00000000000E+00 -0.00000000000E+00 -0.45593999997E+02  0.45594000000E+02  0.51100000000E-03 0. -1.
    9900012    2    1    2    0    0 -0.83264396175E+01 -0.63805015144E+00 -0.16761236876E+02  0.72461661161E+02  0.70000118371E+02 0.  0.
        -12    1    1    2    0    0  0.83264396175E+01  0.63805015144E+00  0.16761236876E+02  0.18726338839E+02  0.00000000000E+00 0.  1.
         11    1    3    3    0    0 -0.30546257049E+01  0.48518306628E+01 -0.85475887889E+01  0.10292340518E+02  0.51100000000E-03 0. -1.
        -11    1    3    3    0    0 -0.19427997498E+02 -0.14491710352E+02 -0.27467522007E+02  0.36632247012E+02  0.51100000000E-03 0.  1.
        -12    1    3    3    0    0  0.14156183585E+02  0.90018295376E+01  0.19253873920E+02  0.25537073631E+02  0.00000000000E+00 0.  1.
</event>
<event>
 7    1  0.2656097E-013  0.7246161E+02  0.7816164E-02  0.1226708E+00
        -11   -1    0    0    0    0  0.00000000000E+00  0.00000000000E+00  0.45593999997E+02  0.45594000000E+02  0.51100000000E-03 0.  1.
         11   -1    0    0    0    0 -0.00000000000E+00 -0.00000000000E+00 -0.45593999997E+02  0.45594000000E+02  0.51100000000E-03 0. -1.
    9900012    2    1    2    0    0  0.11968471227E+02  0.68193941617E+01 -0.12685791925E+02  0.72461608009E+02  0.70000049130E+02 0.  0.
        -12    1    1    2    0    0 -0.11968471227E+02 -0.68193941617E+01  0.12685791925E+02  0.18726391991E+02  0.00000000000E+00 0.  1.
         11    1    3    3    0    0  0.16874908040E+02 -0.11451848370E+02 -0.17245431900E+01  0.20466592338E+02  0.51100000000E-03 0. -1.
        -11    1    3    3    0    0  0.66471422742E+01 -0.13326466797E+02  0.36223623235E+01  0.15326471439E+02  0.51100000000E-03 0.  1.
        -12    1    3    3    0    0 -0.11553579087E+02  0.31597709329E+02 -0.14583611058E+02  0.36668544231E+02  0.00000000000E+00 0.  1.
</event>
<event>
 7    1  0.2656097E-013  0.7246173E+02  0.7816164E-02  0.1226708E+00
        -11   -1    0    0    0    0  0.00000000000E+00  0.00000000000E+00  0.45593999997E+02  0.45594000000E+02  0.51100000000E-03 0. -1.
         11   -1    0    0    0    0 -0.00000000000E+00 -0.00000000000E+00 -0.45593999997E+02  0.45594000000E+02  0.51100000000E-03 0.  1.
    9900012    2    1    2    0    0  0.17548696236E+02 -0.43545871507E+00  0.65212642884E+01  0.72461728299E+02  0.70000205831E+02 0.  0.
        -12    1    1    2    0    0 -0.17548696236E+02  0.43545871507E+00 -0.65212642884E+01  0.18726271701E+02  0.00000000000E+00 0.  1.
         11    1    3    3    0    0  0.25204967773E+02  0.23505847748E+02  0.73568562863E+00  0.34472547228E+02  0.51100000000E-03 0. -1.
        -11    1    3    3    0    0 -0.31680612065E+01  0.51226818691E+01 -0.37239516906E+01  0.70814050721E+01  0.51100000000E-03 0.  1.
         12    1    3    3    0    0 -0.44882103302E+01 -0.29063988332E+02  0.95095303504E+01  0.30907775999E+02  0.00000000000E+00 0. -1.
</event>
<event>
 7    1  0.2656097E-013  0.7246164E+02  0.7816164E-02  0.1226708E+00
        -11   -1    0    0    0    0  0.00000000000E+00  0.00000000000E+00  0.45593999997E+02  0.45594000000E+02  0.51100000000E-03 0.  1.
         11   -1    0    0    0    0 -0.00000000000E+00 -0.00000000000E+00 -0.45593999997E+02  0.45594000000E+02  0.51100000000E-03 0. -1.
    9900012    2    1    2    0    0 -0.78463326992E+01  0.43779862909E+01 -0.16430001668E+02  0.72461637417E+02  0.70000087439E+02 0.  0.
        -12    1    1    2    0    0  0.78463326992E+01 -0.43779862909E+01  0.16430001668E+02  0.18726362583E+02  0.00000000000E+00 0.  1.
         11    1    3    3    0    0  0.14041959099E+02  0.65404790978E+01 -0.80670016052E+01  0.17465136625E+02  0.51100000000E-03 0. -1.
        -11    1    3    3    0    0  0.53410832231E+01  0.68885426686E+01  0.15429398846E+02  0.17721330060E+02  0.51100000000E-03 0.  1.
         12    1    3    3    0    0 -0.27229375022E+02 -0.90510354755E+01 -0.23792398909E+02  0.37275170732E+02  0.00000000000E+00 0. -1.
</event>
<event>
 7    1  0.2656097E-013  0.7246157E+02  0.7816164E-02  0.1226708E+00
        -11   -1    0    0    0    0  0.00000000000E+00  0.00000000000E+00  0.45593999997E+02  0.45594000000E+02  0.51100000000E-03 0. -1.
         11   -1    0    0    0    0 -0.00000000000E+00 -0.00000000000E+00 -0.45593999997E+02  0.45594000000E+02  0.51100000000E-03 0.  1.
    9900012    2    1    2    0    0  0.11470603881E+02 -0.10845752013E+02  0.10073435129E+02  0.72461569870E+02  0.69999999447E+02 0.  0.
        -12    1    1    2    0    0 -0.11470603881E+02  0.10845752013E+02 -0.10073435129E+02  0.18726430130E+02  0.00000000000E+00 0.  1.
         11    1    3    3    0    0  0.45427005576E+01  0.25081585606E+02  0.17932878562E+02  0.31165849878E+02  0.51100000000E-03 0. -1.
        -11    1    3    3    0    0 -0.17725086965E+01  0.65916251685E+00  0.16450516696E+01  0.25064870954E+01  0.51100000000E-03 0.  1.
        -12    1    3    3    0    0  0.87004120204E+01 -0.36586500136E+02 -0.95044951022E+01  0.38789232896E+02  0.00000000000E+00 0.  1.
</event>
<event>
 7    1  0.2656097E-013  0.7246190E+02  0.7816164E-02  0.1226707E+00
        -11   -1    0    0    0    0  0.00000000000E+00  0.00000000000E+00  0.45593999997E+02  0.45594000000E+02  0.51100000000E-03 0. -1.
         11   -1    0    0    0    0 -0.00000000000E+00 -0.00000000000E+00 -0.45593999997E+02  0.45594000000E+02  0.51100000000E-03 0.  1.
    9900012    2    1    2    0    0  0.10148936367E+02  0.11006690015E+02 -0.11248053153E+02  0.72461899653E+02  0.70000429050E+02 0.  0.
        -12    1    1    2    0    0 -0.10148936367E+02 -0.11006690015E+02  0.11248053153E+02  0.18726100347E+02  0.00000000000E+00 0.  1.
         11    1    3    3    0    0  0.20201359463E+02  0.20233390227E+02 -0.22811748918E+02  0.36576780793E+02  0.51100000000E-03 0. -1.
        -11    1    3    3    0    0 -0.11614354672E+02  0.93936074111E+01  0.76948907388E+01  0.16803107998E+02  0.51100000000E-03 0.  1.
        -12    1    3    3    0    0  0.15619315763E+01 -0.18620307622E+02  0.38688050266E+01  0.19082010862E+02  0.00000000000E+00 0.  1.
</event>
<event>
 7    1  0.2656097E-013  0.7246214E+02  0.7816164E-02  0.1226707E+00
        -11   -1    0    0    0    0  0.00000000000E+00  0.00000000000E+00  0.45593999997E+02  0.45594000000E+02  0.51100000000E-03 0.  1.
         11   -1    0    0    0    0 -0.00000000000E+00 -0.00000000000E+00 -0.45593999997E+02  0.45594000000E+02  0.51100000000E-03 0. -1.
    9900012    2    1    2    0    0 -0.19033160652E+01  0.16281004489E+02  0.90534131541E+01  0.72462135295E+02  0.70000736014E+02 0.  0.
        -12    1    1    2    0    0  0.19033160652E+01 -0.16281004489E+02 -0.90534131541E+01  0.18725864705E+02  0.00000000000E+00 0.  1.
         11    1    3    3    0    0 -0.26902486767E+00  0.35583800642E+01 -0.20267334688E+02  0.20579098588E+02  0.51100000000E-03 0. -1.
        -11    1    3    3    0    0 -0.23144569169E+01  0.73798108640E+01 -0.97487012773E+01  0.12444094827E+02  0.51100000000E-03 0.  1.
        -12    1    3    3    0    0  0.68016571940E+00  0.53428135607E+01  0.39069449119E+02  0.39438941880E+02  0.00000000000E+00 0.  1.
</event>
<event>
 7    1  0.2656097E-013  0.7246159E+02  0.7816164E-02  0.1226708E+00
        -11   -1    0    0    0    0  0.00000000000E+00  0.00000000000E+00  0.45593999997E+02  0.45594000000E+02  0.51100000000E-03 0.  1.
         11   -1    0    0    0    0 -0.00000000000E+00 -0.00000000000E+00 -0.45593999997E+02  0.45594000000E+02  0.51100000000E-03 0. -1.
    9900012    2    1    2    0    0  0.97476158884E+01  0.14563528819E+02 -0.66004596768E+01  0.72461589369E+02  0.70000024849E+02 0.  0.
        -12    1    1    2    0    0 -0.97476158884E+01 -0.14563528819E+02  0.66004596768E+01  0.18726410631E+02  0.00000000000E+00 0.  1.
         11    1    3    3    0    0 -0.10258607292E+02  0.61535589289E+01  0.18294088994E+02  0.21858156452E+02  0.51100000000E-03 0. -1.
        -11    1    3    3    0    0 -0.82797523165E+00 -0.11521216013E+02 -0.17275131771E+02  0.20781100533E+02  0.51100000000E-03 0.  1.
        -12    1    3    3    0    0  0.20834198412E+02  0.19931185903E+02 -0.76194169003E+01  0.29822332385E+02  0.00000000000E+00 0.  1.
</event>
<event>
 7    1  0.2693293E-013  0.7246157E+02  0.7816164E-02  0.1226708E+00
        -11   -1    0    0    0    0  0.00000000000E+00  0.00000000000E+00  0.45593999997E+02  0.45594000000E+02  0.51100000000E-03 0. -1.
         11   -1    0    0    0    0 -0.00000000000E+00 -0.00000000000E+00 -0.45593999997E+02  0.45594000000E+02  0.51100000000E-03 0.  1.
    9900012    2    1    2    0    0  0.12605819274E+01  0.16336314121E+02  0.90672448761E+01  0.72461570669E+02  0.70000000488E+02 0.  0.
        -12    1    1    2    0    0 -0.12605819274E+01 -0.16336314121E+02 -0.90672448761E+01  0.18726429331E+02  0.00000000000E+00 0.  1.
         11    1    3    3    0    0  0.22185313121E+02  0.25927248111E+02  0.14351119756E+02  0.37018440693E+02  0.51100000000E-03 0. -1.
        -11    1    3    3    0    0  0.26821309174E+01 -0.64846124338E+01 -0.89277505463E+01  0.11355560521E+02  0.51100000000E-03 0.  1.
        -12    1    3    3    0    0 -0.23606862111E+02 -0.31063215560E+01  0.36438756664E+01  0.24087569454E+02  0.00000000000E+00 0.  1.
</event>
<event>
 7    1  0.2656097E-013  0.7246182E+02  0.7816164E-02  0.1226707E+00
        -11   -1    0    0    0    0  0.00000000000E+00  0.00000000000E+00  0.45593999997E+02  0.45594000000E+02  0.51100000000E-03 0.  1.
         11   -1    0    0    0    0 -0.00000000000E+00 -0.00000000000E+00 -0.45593999997E+02  0.45594000000E+02  0.51100000000E-03 0. -1.
    9900012    2    1    2    0    0  0.11477396263E+02  0.98953486928E+01 -0.11000972928E+02  0.72461816297E+02  0.70000320463E+02 0.  0.
        -12    1    1    2    0    0 -0.11477396263E+02 -0.98953486928E+01  0.11000972928E+02  0.18726183703E+02  0.00000000000E+00 0.  1.
         11    1    3    3    0    0  0.49803170774E+01  0.19068918309E+02 -0.13474505691E+02  0.23874453031E+02  0.51100000000E-03 0. -1.
        -11    1    3    3    0    0 -0.96110836520E+01  0.77821833644E+01  0.17025067440E+02  0.21042533794E+02  0.51100000000E-03 0.  1.
         12    1    3    3    0    0  0.16108162837E+02 -0.16955752981E+02 -0.14551534677E+02  0.27544829471E+02  0.00000000000E+00 0. -1.
</event>
<event>
 7    1  0.2656097E-013  0.7246160E+02  0.7816164E-02  0.1226708E+00
        -11   -1    0    0    0    0  0.00000000000E+00  0.00000000000E+00  0.45593999997E+02  0.45594000000E+02  0.51100000000E-03 0.  1.
         11   -1    0    0    0    0 -0.00000000000E+00 -0.00000000000E+00 -0.45593999997E+02  0.45594000000E+02  0.51100000000E-03 0. -1.
    9900012    2    1    2    0    0 -0.14053228446E+02 -0.32671970934E+01  0.11937768781E+02  0.72461598048E+02  0.70000036155E+02 0.  0.
        -12    1    1    2    0    0  0.14053228446E+02  0.32671970934E+01 -0.11937768781E+02  0.18726401952E+02  0.00000000000E+00 0.  1.
         11    1    3    3    0    0 -0.48284739023E+01 -0.29372440221E+02 -0.11099146355E+02  0.31768623748E+02  0.51100000000E-03 0. -1.
        -11    1    3    3    0    0 -0.39704543563E+01  0.11948266002E+01  0.12447529953E+02  0.13119951242E+02  0.51100000000E-03 0.  1.
        -12    1    3    3    0    0 -0.52543001874E+01  0.24910416528E+02  0.10589385183E+02  0.27573023059E+02  0.00000000000E+00 0.  1.
</event>
<event>
 7    1  0.2656097E-013  0.7246156E+02  0.7816164E-02  0.1226708E+00
        -11   -1    0    0    0    0  0.00000000000E+00  0.00000000000E+00  0.45593999997E+02  0.45594000000E+02  0.51100000000E-03 0. -1.
         11   -1    0    0    0    0 -0.00000000000E+00 -0.00000000000E+00 -0.45593999997E+02  0.45594000000E+02  0.51100000000E-03 0.  1.
    9900012    2    1    2    0    0  0.91705945707E+01 -0.13151894764E+02  0.96750834473E+01  0.72461564665E+02  0.69999992666E+02 0.  0.
        -12    1    1    2    0    0 -0.91705945707E+01  0.13151894764E+02 -0.96750834473E+01  0.18726435335E+02  0.00000000000E+00 0.  1.
         11    1    3    3    0    0 -0.16630489391E+01  0.80387567787E+01  0.15335759137E+01  0.83509998003E+01  0.51100000000E-03 0. -1.
        -11    1    3    3    0    0  0.15251861056E+01  0.19313249635E+02 -0.58852361715E+01  0.20247563043E+02  0.51100000000E-03 0.  1.
         12    1    3    3    0    0  0.93084574043E+01 -0.40503901177E+02  0.14026743705E+02  0.43863001822E+02  0.00000000000E+00 0. -1.
</event>
<event>
 7    1  0.2656097E-013  0.7246176E+02  0.7816164E-02  0.1226707E+00
        -11   -1    0    0    0    0  0.00000000000E+00  0.00000000000E+00  0.45593999997E+02  0.45594000000E+02  0.51100000000E-03 0. -1.
         11   -1    0    0    0    0 -0.00000000000E+00 -0.00000000000E+00 -0.45593999997E+02  0.45594000000E+02  0.51100000000E-03 0.  1.
    9900012    2    1    2    0    0 -0.33209460475E+00 -0.17808272538E+02  0.57816149954E+01  0.72461763603E+02  0.70000251821E+02 0.  0.
        -12    1    1    2    0    0  0.33209460475E+00  0.17808272538E+02 -0.57816149954E+01  0.18726236397E+02  0.00000000000E+00 0.  1.
         11    1    3    3    0    0  0.17620454541E+02 -0.10030406019E+02 -0.14654248149E+02  0.25016723451E+02  0.51100000000E-03 0. -1.
        -11    1    3    3    0    0 -0.85190792435E+01  0.87672120379E+01 -0.69694561158E+01  0.14071674985E+02  0.51100000000E-03 0.  1.
        -12    1    3    3    0    0 -0.94334699023E+01 -0.16545078557E+02  0.27405319260E+02  0.33373365167E+02  0.00000000000E+00 0.  1.
</event>
<event>
 7    1  0.2656097E-013  0.7246166E+02  0.7816164E-02  0.1226708E+00
        -11   -1    0    0    0    0  0.00000000000E+00  0.00000000000E+00  0.45593999997E+02  0.45594000000E+02  0.51100000000E-03 0. -1.
         11   -1    0    0    0    0 -0.00000000000E+00 -0.00000000000E+00 -0.45593999997E+02  0.45594000000E+02  0.51100000000E-03 0.  1.
    9900012    2    1    2    0    0  0.14217725801E+02  0.57101982151E+01 -0.10766878582E+02  0.72461661196E+02  0.70000118416E+02 0.  0.
        -12    1    1    2    0    0 -0.14217725801E+02 -0.57101982151E+01  0.10766878582E+02  0.18726338804E+02  0.00000000000E+00 0.  1.
         11    1    3    3    0    0 -0.16564927247E+02 -0.14231251465E+02 -0.92776514091E-01  0.21838817291E+02  0.51100000000E-03 0. -1.
        -11    1    3    3    0    0  0.35953821352E+01  0.21744083921E+02 -0.70294102083E+01  0.23133191876E+02  0.51100000000E-03 0.  1.
        -12    1    3    3    0    0  0.27187270913E+02 -0.18026342409E+01 -0.36446918595E+01  0.27489652028E+02  0.00000000000E+00 0.  1.
</event>
<event>
 7    1  0.2656097E-013  0.7246165E+02  0.7816164E-02  0.1226708E+00
        -11   -1    0    0    0    0  0.00000000000E+00  0.00000000000E+00  0.45593999997E+02  0.45594000000E+02  0.51100000000E-03 0.  1.
         11   -1    0    0    0    0 -0.00000000000E+00 -0.00000000000E+00 -0.45593999997E+02  0.45594000000E+02  0.51100000000E-03 0. -1.
    9900012    2    1    2    0    0 -0.37306702099E+01  0.15101199085E+02 -0.10426504619E+02  0.72461651915E+02  0.70000106326E+02 0.  0.
        -12    1    1    2    0    0  0.37306702099E+01 -0.15101199085E+02  0.10426504619E+02  0.18726348085E+02  0.00000000000E+00 0.  1.
         11    1    3    3    0    0  0.11110281277E+02  0.10388099461E+02 -0.48500392080E+01  0.15964768744E+02  0.51100000000E-03 0. -1.
        -11    1    3    3    0    0 -0.86692768787E+01  0.10191039746E+02  0.23079016232E+02  0.26676855947E+02  0.51100000000E-03 0.  1.
        -12    1    3    3    0    0 -0.61716746080E+01 -0.54779401225E+01 -0.28655481643E+02  0.29820027224E+02  0.00000000000E+00 0.  1.
</event>
<event>
 7    1  0.2656097E-013  0.7246135E+02  0.7816164E-02  0.1226709E+00
        -11   -1    0    0    0    0  0.00000000000E+00  0.00000000000E+00  0.45593999997E+02  0.45594000000E+02  0.51100000000E-03 0.  1.
         11   -1    0    0    0    0 -0.00000000000E+00 -0.00000000000E+00 -0.45593999997E+02  0.45594000000E+02  0.51100000000E-03 0. -1.
    9900012    2    1    2    0    0  0.45517848535E+01  0.16664298117E+02  0.72297987714E+01  0.72461346072E+02  0.69999707908E+02 0.  0.
        -12    1    1    2    0    0 -0.45517848535E+01 -0.16664298117E+02 -0.72297987714E+01  0.18726653928E+02  0.00000000000E+00 0.  1.
         11    1    3    3    0    0  0.26347988906E+02  0.11322000759E+02  0.17478553682E+02  0.33584282926E+02  0.51100000000E-03 0. -1.
        -11    1    3    3    0    0  0.69379298741E+01  0.44329031049E+01  0.34073557458E+00  0.82402428282E+01  0.51100000000E-03 0.  1.
        -12    1    3    3    0    0 -0.28734133927E+02  0.90939425330E+00 -0.10589490485E+02  0.30636820317E+02  0.00000000000E+00 0.  1.
</event>
<event>
 7    1  0.2656097E-013  0.7246157E+02  0.7816164E-02  0.1226708E+00
        -11   -1    0    0    0    0  0.00000000000E+00  0.00000000000E+00  0.45593999997E+02  0.45594000000E+02  0.51100000000E-03 0.  1.
         11   -1    0    0    0    0 -0.00000000000E+00 -0.00000000000E+00 -0.45593999997E+02  0.45594000000E+02  0.51100000000E-03 0. -1.
    9900012    2    1    2    0    0  0.77329482959E+01 -0.16208710704E+01 -0.16978024611E+02  0.72461573965E+02  0.70000004781E+02 0.  0.
        -12    1    1    2    0    0 -0.77329482959E+01  0.16208710704E+01  0.16978024611E+02  0.18726426035E+02  0.00000000000E+00 0.  1.
         11    1    3    3    0    0 -0.23533492316E+02 -0.20286452487E+01  0.58588042321E+00  0.23628032467E+02  0.51100000000E-03 0. -1.
        -11    1    3    3    0    0  0.32066437630E+00 -0.23141759523E+01  0.81677838673E+01  0.84953475235E+01  0.51100000000E-03 0.  1.
        -12    1    3    3    0    0  0.30945776236E+02  0.27219501306E+01 -0.25731688901E+02  0.40338193974E+02  0.00000000000E+00 0.  1.
</event>
<event>
 7    1  0.2656097E-013  0.7246158E+02  0.7816164E-02  0.1226708E+00
        -11   -1    0    0    0    0  0.00000000000E+00  0.00000000000E+00  0.45593999997E+02  0.45594000000E+02  0.51100000000E-03 0.  1.
         11   -1    0    0    0    0 -0.00000000000E+00 -0.00000000000E+00 -0.45593999997E+02  0.45594000000E+02  0.51100000000E-03 0. -1.
    9900012    2    1    2    0    0  0.15753154423E+02 -0.98857389933E+01  0.21884011997E+01  0.72461579906E+02  0.70000012521E+02 0.  0.
        -12    1    1    2    0    0 -0.15753154423E+02  0.98857389933E+01 -0.21884011997E+01  0.18726420094E+02  0.00000000000E+00 0.  1.
         11    1    3    3    0    0  0.41147760038E+01  0.91763793887E+01 -0.12790915779E+02  0.16270981746E+02  0.51100000000E-03 0. -1.
        -11    1    3    3    0    0  0.26693279101E+02 -0.93906563404E+00 -0.25401479826E+01  0.26830306473E+02  0.51100000000E-03 0.  1.
        -12    1    3    3    0    0 -0.15054900681E+02 -0.18123052748E+02  0.17519464961E+02  0.29360291687E+02  0.00000000000E+00 0.  1.
</event>
<event>
 7    1  0.2656097E-013  0.7246166E+02  0.7816164E-02  0.1226708E+00
        -11   -1    0    0    0    0  0.00000000000E+00  0.00000000000E+00  0.45593999997E+02  0.45594000000E+02  0.51100000000E-03 0. -1.
         11   -1    0    0    0    0 -0.00000000000E+00 -0.00000000000E+00 -0.45593999997E+02  0.45594000000E+02  0.51100000000E-03 0.  1.
    9900012    2    1    2    0    0 -0.19850130146E+01  0.18620584791E+02  0.96374112514E-01  0.72461661794E+02  0.70000119196E+02 0.  0.
        -12    1    1    2    0    0  0.19850130146E+01 -0.18620584791E+02 -0.96374112514E-01  0.18726338206E+02  0.00000000000E+00 0.  1.
         11    1    3    3    0    0  0.16623703354E+02  0.56090632888E+01  0.18898629526E+02  0.25786959929E+02  0.51100000000E-03 0. -1.
        -11    1    3    3    0    0 -0.11868625375E+02  0.23752749986E+02 -0.34711616830E+01  0.26778841720E+02  0.51100000000E-03 0.  1.
        -12    1    3    3    0    0 -0.67400909928E+01 -0.10741228484E+02 -0.15331093730E+02  0.19895860145E+02  0.00000000000E+00 0.  1.
</event>
<event>
 7    1  0.2656097E-013  0.7246153E+02  0.7816164E-02  0.1226708E+00
        -11   -1    0    0    0    0  0.00000000000E+00  0.00000000000E+00  0.45593999997E+02  0.45594000000E+02  0.51100000000E-03 0.  1.
         11   -1    0    0    0    0 -0.00000000000E+00 -0.00000000000E+00 -0.45593999997E+02  0.45594000000E+02  0.51100000000E-03 0. -1.
    9900012    2    1    2    0    0 -0.18018127271E+01 -0.79461187163E+01 -0.16861003069E+02  0.72461527928E+02  0.69999944810E+02 0.  0.
        -12    1    1    2    0    0  0.18018127271E+01  0.79461187163E+01  0.16861003069E+02  0.18726472072E+02  0.00000000000E+00 0.  1.
         11    1    3    3    0    0 -0.10195542894E+02  0.78010026560E+01  0.48040206970E+01  0.13707054843E+02  0.51100000000E-03 0. -1.
        -11    1    3    3    0    0  0.14039052861E+02 -0.17386073123E+02  0.11458689372E+02  0.25113185904E+02  0.51100000000E-03 0.  1.
         12    1    3    3    0    0 -0.56453226937E+01  0.16389517502E+01 -0.33123713138E+02  0.33641287181E+02  0.00000000000E+00 0. -1.
</event>
<event>
 7    1  0.2656097E-013  0.7246168E+02  0.7816164E-02  0.1226708E+00
        -11   -1    0    0    0    0  0.00000000000E+00  0.00000000000E+00  0.45593999997E+02  0.45594000000E+02  0.51100000000E-03 0. -1.
         11   -1    0    0    0    0 -0.00000000000E+00 -0.00000000000E+00 -0.45593999997E+02  0.45594000000E+02  0.51100000000E-03 0.  1.
    9900012    2    1    2    0    0  0.67462396740E+01  0.14354630149E+01  0.17409847737E+02  0.72461678897E+02  0.70000141476E+02 0.  0.
        -12    1    1    2    0    0 -0.67462396740E+01 -0.14354630149E+01 -0.17409847737E+02  0.18726321103E+02  0.00000000000E+00 0.  1.
         11    1    3    3    0    0 -0.36018093749E+01 -0.34714772145E+01  0.44094968350E+01  0.66684216591E+01  0.51100000000E-03 0. -1.
        -11    1    3    3    0    0 -0.11038162459E+01 -0.25615281536E+02  0.19918970319E+02  0.32467313368E+02  0.51100000000E-03 0.  1.
        -12    1    3    3    0    0  0.11451865295E+02  0.30522221765E+02 -0.69186194173E+01  0.33325943871E+02  0.00000000000E+00 0.  1.
</event>
<event>
 7    1  0.2656097E-013  0.7246156E+02  0.7816164E-02  0.1226708E+00
        -11   -1    0    0    0    0  0.00000000000E+00  0.00000000000E+00  0.45593999997E+02  0.45594000000E+02  0.51100000000E-03 0.  1.
         11   -1    0    0    0    0 -0.00000000000E+00 -0.00000000000E+00 -0.45593999997E+02  0.45594000000E+02  0.51100000000E-03 0. -1.
    9900012    2    1    2    0    0  0.14450530930E+02 -0.11898421312E+02 -0.53771989027E+00  0.72461563699E+02  0.69999991408E+02 0.  0.
        -12    1    1    2    0    0 -0.14450530930E+02  0.11898421312E+02  0.53771989027E+00  0.18726436301E+02  0.00000000000E+00 0.  1.
         11    1    3    3    0    0  0.21536031196E+02  0.61321687864E+01 -0.24803767406E+02  0.33416029260E+02  0.51100000000E-03 0. -1.
        -11    1    3    3    0    0  0.59816206306E+01 -0.79857312251E+01  0.32898103630E+00  0.99829813859E+01  0.51100000000E-03 0.  1.
        -12    1    3    3    0    0 -0.13067120897E+02 -0.10044858873E+02  0.23937066479E+02  0.29062553053E+02  0.00000000000E+00 0.  1.
</event>
<event>
 7    1  0.2656097E-013  0.7246155E+02  0.7816164E-02  0.1226708E+00
        -11   -1    0    0    0    0  0.00000000000E+00  0.00000000000E+00  0.45593999997E+02  0.45594000000E+02  0.51100000000E-03 0. -1.
         11   -1    0    0    0    0 -0.00000000000E+00 -0.00000000000E+00 -0.45593999997E+02  0.45594000000E+02  0.51100000000E-03 0.  1.
    9900012    2    1    2    0    0  0.16898831657E+02  0.78402502015E+01 -0.19078637828E+01  0.72461548686E+02  0.69999971852E+02 0.  0.
        -12    1    1    2    0    0 -0.16898831657E+02 -0.78402502015E+01  0.19078637828E+01  0.18726451314E+02  0.00000000000E+00 0.  1.
         11    1    3    3    0    0  0.57616909840E+01  0.14767574313E+02  0.19232806017E+02  0.24923466083E+02  0.51100000000E-03 0. -1.
        -11    1    3    3    0    0 -0.11519936632E+02  0.32026782526E+01  0.36073865163E+01  0.12489168336E+02  0.51100000000E-03 0.  1.
        -12    1    3    3    0    0  0.22657077304E+02 -0.10130002364E+02 -0.24748056316E+02  0.35048914267E+02  0.00000000000E+00 0.  1.
</event>
<event>
 7    1  0.2656097E-013  0.7246160E+02  0.7816164E-02  0.1226708E+00
        -11   -1    0    0    0    0  0.00000000000E+00  0.00000000000E+00  0.45593999997E+02  0.45594000000E+02  0.51100000000E-03 0. -1.
         11   -1    0    0    0    0 -0.00000000000E+00 -0.00000000000E+00 -0.45593999997E+02  0.45594000000E+02  0.51100000000E-03 0.  1.
    9900012    2    1    2    0    0  0.18387484529E+01 -0.81073685114E+01  0.16779975777E+02  0.72461601330E+02  0.70000040430E+02 0.  0.
        -12    1    1    2    0    0 -0.18387484529E+01  0.81073685114E+01 -0.16779975777E+02  0.18726398670E+02  0.00000000000E+00 0.  1.
         11    1    3    3    0    0 -0.34873208122E+01  0.13439091932E+02  0.95209801098E+01  0.16835072346E+02  0.51100000000E-03 0. -1.
        -11    1    3    3    0    0 -0.78710847472E+01  0.12166583702E+02 -0.77519634730E+01  0.16433887916E+02  0.51100000000E-03 0.  1.
        -12    1    3    3    0    0  0.13197154012E+02 -0.33713044145E+02  0.15010959141E+02  0.39192641068E+02  0.00000000000E+00 0.  1.
</event>
<event>
 7    1  0.2656097E-013  0.7246159E+02  0.7816164E-02  0.1226708E+00
        -11   -1    0    0    0    0  0.00000000000E+00  0.00000000000E+00  0.45593999997E+02  0.45594000000E+02  0.51100000000E-03 0.  1.
         11   -1    0    0    0    0 -0.00000000000E+00 -0.00000000000E+00 -0.45593999997E+02  0.45594000000E+02  0.51100000000E-03 0. -1.
    9900012    2    1    2    0    0  0.88966440306E+01  0.16435233797E+02 -0.11879994324E+01  0.72461587433E+02  0.70000022327E+02 0.  0.
        -12    1    1    2    0    0 -0.88966440306E+01 -0.16435233797E+02  0.11879994324E+01  0.18726412567E+02  0.00000000000E+00 0.  1.
         11    1    3    3    0    0  0.90915293012E+01  0.12949699467E+02  0.18160081000E+01  0.15926346316E+02  0.51100000000E-03 0. -1.
        -11    1    3    3    0    0  0.20110015181E+02  0.20588111256E+02  0.40569719135E+01  0.29064446615E+02  0.51100000000E-03 0.  1.
         12    1    3    3    0    0 -0.20304900451E+02 -0.17102576926E+02 -0.70609794459E+01  0.27470794502E+02  0.00000000000E+00 0. -1.
</event>
<event>
 7    1  0.2656097E-013  0.7246156E+02  0.7816164E-02  0.1226708E+00
        -11   -1    0    0    0    0  0.00000000000E+00  0.00000000000E+00  0.45593999997E+02  0.45594000000E+02  0.51100000000E-03 0.  1.
         11   -1    0    0    0    0 -0.00000000000E+00 -0.00000000000E+00 -0.45593999997E+02  0.45594000000E+02  0.51100000000E-03 0. -1.
    9900012    2    1    2    0    0  0.34324722147E+01 -0.14371137164E+02 -0.11505132568E+02  0.72461560822E+02  0.69999987661E+02 0.  0.
        -12    1    1    2    0    0 -0.34324722147E+01  0.14371137164E+02  0.11505132568E+02  0.18726439178E+02  0.00000000000E+00 0.  1.
         11    1    3    3    0    0 -0.43127584838E+01  0.46075948915E+01 -0.10115690001E+01  0.63916420837E+01  0.51100000000E-03 0. -1.
        -11    1    3    3    0    0 -0.54062265975E+01  0.19757330775E+02  0.69047332295E+01  0.21616076115E+02  0.51100000000E-03 0.  1.
         12    1    3    3    0    0  0.13151457296E+02 -0.38736062830E+02 -0.17398296797E+02  0.44453842624E+02  0.00000000000E+00 0. -1.
</event>
<event>
 7    1  0.2656097E-013  0.7246157E+02  0.7816164E-02  0.1226708E+00
        -11   -1    0    0    0    0  0.00000000000E+00  0.00000000000E+00  0.45593999997E+02  0.45594000000E+02  0.51100000000E-03 0.  1.
         11   -1    0    0    0    0 -0.00000000000E+00 -0.00000000000E+00 -0.45593999997E+02  0.45594000000E+02  0.51100000000E-03 0. -1.
    9900012    2    1    2    0    0  0.49091313499E+01 -0.91148864930E+01 -0.15604438217E+02  0.72461568988E+02  0.69999998298E+02 0.  0.
        -12    1    1    2    0    0 -0.49091313499E+01  0.91148864930E+01  0.15604438217E+02  0.18726431012E+02  0.00000000000E+00 0.  1.
         11    1    3    3    0    0 -0.31788779457E+00  0.64053582895E+01 -0.14845097996E+02  0.16171165767E+02  0.51100000000E-03 0. -1.
        -11    1    3    3    0    0 -0.23389026471E+02 -0.93996298115E-01  0.29321863719E+01  0.23572295428E+02  0.51100000000E-03 0.  1.
         12    1    3    3    0    0  0.28616045616E+02 -0.15426248484E+02 -0.36915265920E+01  0.32718107793E+02  0.00000000000E+00 0. -1.
</event>
<event>
 7    1  0.2656097E-013  0.7246146E+02  0.7816164E-02  0.1226708E+00
        -11   -1    0    0    0    0  0.00000000000E+00  0.00000000000E+00  0.45593999997E+02  0.45594000000E+02  0.51100000000E-03 0.  1.
         11   -1    0    0    0    0 -0.00000000000E+00 -0.00000000000E+00 -0.45593999997E+02  0.45594000000E+02  0.51100000000E-03 0. -1.
    9900012    2    1    2    0    0 -0.45227406218E+01  0.70333909953E+01 -0.16755880371E+02  0.72461460047E+02  0.69999856382E+02 0.  0.
        -12    1    1    2    0    0  0.45227406218E+01 -0.70333909953E+01  0.16755880371E+02  0.18726539953E+02  0.00000000000E+00 0.  1.
         11    1    3    3    0    0 -0.31687572316E+02 -0.44767870933E+00 -0.22411331404E+02  0.38814564677E+02  0.51100000000E-03 0. -1.
        -11    1    3    3    0    0  0.59092864723E+01  0.60205323414E+01 -0.50196355843E+01  0.98164768601E+01  0.51100000000E-03 0.  1.
        -12    1    3    3    0    0  0.21255545222E+02  0.14605373633E+01  0.10675086617E+02  0.23830418510E+02  0.00000000000E+00 0.  1.
</event>
<event>
 7    1  0.2656097E-013  0.7246160E+02  0.7816164E-02  0.1226708E+00
        -11   -1    0    0    0    0  0.00000000000E+00  0.00000000000E+00  0.45593999997E+02  0.45594000000E+02  0.51100000000E-03 0. -1.
         11   -1    0    0    0    0 -0.00000000000E+00 -0.00000000000E+00 -0.45593999997E+02  0.45594000000E+02  0.51100000000E-03 0.  1.
    9900012    2    1    2    0    0 -0.11980610274E+02  0.42618439063E+01  0.13746988103E+02  0.72461601042E+02  0.70000040054E+02 0.  0.
        -12    1    1    2    0    0  0.11980610274E+02 -0.42618439063E+01 -0.13746988103E+02  0.18726398958E+02  0.00000000000E+00 0.  1.
         11    1    3    3    0    0 -0.19140216475E+02 -0.80749289701E+01  0.29744875811E+02  0.36280986781E+02  0.51100000000E-03 0. -1.
        -11    1    3    3    0    0 -0.10955655180E+02  0.25199287750E+01 -0.90650358019E+01  0.14441305198E+02  0.51100000000E-03 0.  1.
        -12    1    3    3    0    0  0.18115261380E+02  0.98168441014E+01 -0.69328519057E+01  0.21739309063E+02  0.00000000000E+00 0.  1.
</event>
<event>
 7    1  0.2656097E-013  0.7246161E+02  0.7816164E-02  0.1226708E+00
        -11   -1    0    0    0    0  0.00000000000E+00  0.00000000000E+00  0.45593999997E+02  0.45594000000E+02  0.51100000000E-03 0. -1.
         11   -1    0    0    0    0 -0.00000000000E+00 -0.00000000000E+00 -0.45593999997E+02  0.45594000000E+02  0.51100000000E-03 0.  1.
    9900012    2    1    2    0    0  0.13169970820E+02 -0.12713054850E+02 -0.39506815924E+01  0.72461607393E+02  0.70000048328E+02 0.  0.
        -12    1    1    2    0    0 -0.13169970820E+02  0.12713054850E+02  0.39506815924E+01  0.18726392607E+02  0.00000000000E+00 0.  1.
         11    1    3    3    0    0 -0.53283456001E-01  0.10565629368E+01 -0.65553501866E+00  0.12445444098E+01  0.51100000000E-03 0. -1.
        -11    1    3    3    0    0  0.18619218321E+02  0.25450545356E+02 -0.22339816562E+01  0.31613228625E+02  0.51100000000E-03 0.  1.
         12    1    3    3    0    0 -0.53959640446E+01 -0.39220163143E+02 -0.10611649175E+01  0.39603834358E+02  0.00000000000E+00 0. -1.
</event>
<event>
 7    1  0.2656097E-013  0.7246155E+02  0.7816164E-02  0.1226708E+00
        -11   -1    0    0    0    0  0.00000000000E+00  0.00000000000E+00  0.45593999997E+02  0.45594000000E+02  0.51100000000E-03 0. -1.
         11   -1    0    0    0    0 -0.00000000000E+00 -0.00000000000E+00 -0.45593999997E+02  0.45594000000E+02  0.51100000000E-03 0.  1.
    9900012    2    1    2    0    0  0.11739044635E+02 -0.11072410613E+02 -0.95013991562E+01  0.72461547275E+02  0.69999970013E+02 0.  0.
        -12    1    1    2    0    0 -0.11739044635E+02  0.11072410613E+02  0.95013991562E+01  0.18726452725E+02  0.00000000000E+00 0.  1.
         11    1    3    3    0    0 -0.66088859681E+00  0.11991063120E+02  0.11862671195E+02  0.16880323949E+02  0.51100000000E-03 0. -1.
        -11    1    3    3    0    0  0.27028349205E+01  0.61957673483E+01  0.96975397672E+01  0.11820961359E+02  0.51100000000E-03 0.  1.
        -12    1    3    3    0    0  0.96970983111E+01 -0.29259241081E+02 -0.31061610119E+02  0.43760261968E+02  0.00000000000E+00 0.  1.
</event>
<event>
 7    1  0.2656097E-013  0.7246155E+02  0.7816164E-02  0.1226708E+00
        -11   -1    0    0    0    0  0.00000000000E+00  0.00000000000E+00  0.45593999997E+02  0.45594000000E+02  0.51100000000E-03 0.  1.
         11   -1    0    0    0    0 -0.00000000000E+00 -0.00000000000E+00 -0.45593999997E+02  0.45594000000E+02  0.51100000000E-03 0. -1.
    9900012    2    1    2    0    0  0.16184500642E+02  0.82958546154E+01 -0.44632602632E+01  0.72461549268E+02  0.69999972609E+02 0.  0.
        -12    1    1    2    0    0 -0.16184500642E+02 -0.82958546154E+01  0.44632602632E+01  0.18726450732E+02  0.00000000000E+00 0.  1.
         11    1    3    3    0    0  0.16278729839E+01  0.18228139550E+02  0.17482316135E+01  0.18383997278E+02  0.51100000000E-03 0. -1.
        -11    1    3    3    0    0  0.23115002346E+02 -0.77072273379E+01  0.16686028400E+02  0.29531817260E+02  0.51100000000E-03 0.  1.
         12    1    3    3    0    0 -0.85583746877E+01 -0.22250575963E+01 -0.22897520276E+02  0.24545734729E+02  0.00000000000E+00 0. -1.
</event>
<event>
 7    1  0.2656097E-013  0.7246150E+02  0.7816164E-02  0.1226708E+00
        -11   -1    0    0    0    0  0.00000000000E+00  0.00000000000E+00  0.45593999997E+02  0.45594000000E+02  0.51100000000E-03 0.  1.
         11   -1    0    0    0    0 -0.00000000000E+00 -0.00000000000E+00 -0.45593999997E+02  0.45594000000E+02  0.51100000000E-03 0. -1.
    9900012    2    1    2    0    0  0.16786743025E+02 -0.82974214534E+01  0.19997006368E+00  0.72461496530E+02  0.69999903909E+02 0.  0.
        -12    1    1    2    0    0 -0.16786743025E+02  0.82974214534E+01 -0.19997006368E+00  0.18726503470E+02  0.00000000000E+00 0.  1.
         11    1    3    3    0    0  0.35376250821E+01  0.88777727883E+01 -0.17042169145E+02  0.19538811897E+02  0.51100000000E-03 0. -1.
        -11    1    3    3    0    0  0.29598512540E+00 -0.13547695727E+02 -0.13646850597E+02  0.19231853737E+02  0.51100000000E-03 0.  1.
        -12    1    3    3    0    0  0.12953132818E+02 -0.36274985148E+01  0.30888989806E+02  0.33690830896E+02  0.00000000000E+00 0.  1.
</event>
<event>
 7    1  0.2656097E-013  0.7246153E+02  0.7816164E-02  0.1226708E+00
        -11   -1    0    0    0    0  0.00000000000E+00  0.00000000000E+00  0.45593999997E+02  0.45594000000E+02  0.51100000000E-03 0.  1.
         11   -1    0    0    0    0 -0.00000000000E+00 -0.00000000000E+00 -0.45593999997E+02  0.45594000000E+02  0.51100000000E-03 0. -1.
    9900012    2    1    2    0    0 -0.12373637909E+02  0.13090796663E+01  0.13995001040E+02  0.72461530531E+02  0.69999948200E+02 0.  0.
        -12    1    1    2    0    0  0.12373637909E+02 -0.13090796663E+01 -0.13995001040E+02  0.18726469469E+02  0.00000000000E+00 0.  1.
         11    1    3    3    0    0  0.16819502298E+02  0.13214791065E+02 -0.37048359016E+01  0.21708343322E+02  0.51100000000E-03 0. -1.
        -11    1    3    3    0    0  0.26588459221E+01 -0.13318756814E+02  0.12481264901E+02  0.18445615157E+02  0.51100000000E-03 0.  1.
        -12    1    3    3    0    0 -0.31851986130E+02  0.14130454150E+01  0.52185720401E+01  0.32307572052E+02  0.00000000000E+00 0.  1.
</event>
<event>
 7    1  0.2656097E-013  0.7246159E+02  0.7816164E-02  0.1226708E+00
        -11   -1    0    0    0    0  0.00000000000E+00  0.00000000000E+00  0.45593999997E+02  0.45594000000E+02  0.51100000000E-03 0.  1.
         11   -1    0    0    0    0 -0.00000000000E+00 -0.00000000000E+00 -0.45593999997E+02  0.45594000000E+02  0.51100000000E-03 0. -1.
    9900012    2    1    2    0    0 -0.17400463138E+02 -0.55962120876E-01 -0.69209312639E+01  0.72461587136E+02  0.70000021940E+02 0.  0.
        -12    1    1    2    0    0  0.17400463138E+02  0.55962120876E-01  0.69209312639E+01  0.18726412864E+02  0.00000000000E+00 0.  1.
         11    1    3    3    0    0  0.10214835739E+02  0.12272098819E+02  0.78823410572E-01  0.15967263134E+02  0.51100000000E-03 0.  1.
        -11    1    3    3    0    0  0.87621300700E+01 -0.81064295389E+01 -0.14837806658E+02  0.19043361833E+02  0.51100000000E-03 0. -1.
         12    1    3    3    0    0 -0.36377428947E+02 -0.42216314007E+01  0.78380519835E+01  0.37450962169E+02  0.00000000000E+00 0. -1.
</event>
<event>
 7    1  0.2656097E-013  0.7246161E+02  0.7816164E-02  0.1226708E+00
        -11   -1    0    0    0    0  0.00000000000E+00  0.00000000000E+00  0.45593999997E+02  0.45594000000E+02  0.51100000000E-03 0.  1.
         11   -1    0    0    0    0 -0.00000000000E+00 -0.00000000000E+00 -0.45593999997E+02  0.45594000000E+02  0.51100000000E-03 0. -1.
    9900012    2    1    2    0    0 -0.13039476312E+02 -0.12605957011E+02 -0.46625741458E+01  0.72461609736E+02  0.70000051380E+02 0.  0.
        -12    1    1    2    0    0  0.13039476312E+02  0.12605957011E+02  0.46625741458E+01  0.18726390264E+02  0.00000000000E+00 0.  1.
         11    1    3    3    0    0 -0.15260419418E+02  0.17302970223E+01 -0.15599729781E+02  0.21891228793E+02  0.51100000000E-03 0. -1.
        -11    1    3    3    0    0 -0.13498939113E+02  0.42764939230E+01 -0.10887262390E+02  0.17861753555E+02  0.51100000000E-03 0.  1.
        -12    1    3    3    0    0  0.15719882219E+02 -0.18612747957E+02  0.21824418025E+02  0.32708627388E+02  0.00000000000E+00 0.  1.
</event>
<event>
 7    1  0.2656097E-013  0.7246150E+02  0.7816164E-02  0.1226708E+00
        -11   -1    0    0    0    0  0.00000000000E+00  0.00000000000E+00  0.45593999997E+02  0.45594000000E+02  0.51100000000E-03 0.  1.
         11   -1    0    0    0    0 -0.00000000000E+00 -0.00000000000E+00 -0.45593999997E+02  0.45594000000E+02  0.51100000000E-03 0. -1.
    9900012    2    1    2    0    0 -0.13813306715E+01 -0.17472362654E+02 -0.65947230686E+01  0.72461497297E+02  0.69999904907E+02 0.  0.
        -12    1    1    2    0    0  0.13813306715E+01  0.17472362654E+02  0.65947230686E+01  0.18726502703E+02  0.00000000000E+00 0.  1.
         11    1    3    3    0    0  0.13224806803E+02 -0.17830960647E+01 -0.65908107269E+01  0.14883337423E+02  0.51100000000E-03 0. -1.
        -11    1    3    3    0    0 -0.66242970420E+01  0.12230371896E+02  0.18499984645E+02  0.23145469106E+02  0.51100000000E-03 0.  1.
         12    1    3    3    0    0 -0.79818404321E+01 -0.27919638485E+02 -0.18503896987E+02  0.34432690768E+02  0.00000000000E+00 0. -1.
</event>
<event>
 7    1  0.2656097E-013  0.7246169E+02  0.7816164E-02  0.1226708E+00
        -11   -1    0    0    0    0  0.00000000000E+00  0.00000000000E+00  0.45593999997E+02  0.45594000000E+02  0.51100000000E-03 0. -1.
         11   -1    0    0    0    0 -0.00000000000E+00 -0.00000000000E+00 -0.45593999997E+02  0.45594000000E+02  0.51100000000E-03 0.  1.
    9900012    2    1    2    0    0 -0.17100974892E+02 -0.57078148120E+01 -0.50647914418E+01  0.72461692181E+02  0.70000158780E+02 0.  0.
        -12    1    1    2    0    0  0.17100974892E+02  0.57078148120E+01  0.50647914418E+01  0.18726307819E+02  0.00000000000E+00 0.  1.
         11    1    3    3    0    0  0.54647938346E+01 -0.21281644276E+02  0.13395498377E+02  0.25733474926E+02  0.51100000000E-03 0. -1.
        -11    1    3    3    0    0 -0.87025634318E+01 -0.28697491798E+01  0.76120137133E+01  0.11912716889E+02  0.51100000000E-03 0.  1.
        -12    1    3    3    0    0 -0.13863205295E+02  0.18443578644E+02 -0.26072303532E+02  0.34815500366E+02  0.00000000000E+00 0.  1.
</event>
<event>
 7    1  0.2656097E-013  0.7246158E+02  0.7816164E-02  0.1226708E+00
        -11   -1    0    0    0    0  0.00000000000E+00  0.00000000000E+00  0.45593999997E+02  0.45594000000E+02  0.51100000000E-03 0.  1.
         11   -1    0    0    0    0 -0.00000000000E+00 -0.00000000000E+00 -0.45593999997E+02  0.45594000000E+02  0.51100000000E-03 0. -1.
    9900012    2    1    2    0    0 -0.18612972505E+02 -0.20581309424E+01 -0.17286556887E-01  0.72461576229E+02  0.70000007731E+02 0.  0.
        -12    1    1    2    0    0  0.18612972505E+02  0.20581309424E+01  0.17286556887E-01  0.18726423771E+02  0.00000000000E+00 0.  1.
         11    1    3    3    0    0 -0.36185784627E+01 -0.12015528586E+02 -0.46819791063E+00  0.12557318458E+02  0.51100000000E-03 0. -1.
        -11    1    3    3    0    0 -0.26097784114E+02 -0.13655615845E+02  0.11430941170E+02  0.31594882435E+02  0.51100000000E-03 0.  1.
         12    1    3    3    0    0  0.11103390073E+02  0.23613013489E+02 -0.10980029817E+02  0.28309375336E+02  0.00000000000E+00 0. -1.
</event>
<event>
 7    1  0.2656097E-013  0.7246155E+02  0.7816164E-02  0.1226708E+00
        -11   -1    0    0    0    0  0.00000000000E+00  0.00000000000E+00  0.45593999997E+02  0.45594000000E+02  0.51100000000E-03 0.  1.
         11   -1    0    0    0    0 -0.00000000000E+00 -0.00000000000E+00 -0.45593999997E+02  0.45594000000E+02  0.51100000000E-03 0. -1.
    9900012    2    1    2    0    0  0.13551862261E+02  0.42929814605E+01 -0.12190043871E+02  0.72461552656E+02  0.69999977023E+02 0.  0.
        -12    1    1    2    0    0 -0.13551862261E+02 -0.42929814605E+01  0.12190043871E+02  0.18726447344E+02  0.00000000000E+00 0.  1.
         11    1    3    3    0    0 -0.46755935293E+01  0.16030792007E+02 -0.24558981597E+02  0.29698334037E+02  0.51100000000E-03 0. -1.
        -11    1    3    3    0    0  0.11451031178E+02  0.91773062778E+01 -0.41650568856E+01  0.15254401485E+02  0.51100000000E-03 0.  1.
        -12    1    3    3    0    0  0.67764246122E+01 -0.20915116824E+02  0.16533994612E+02  0.27508817134E+02  0.00000000000E+00 0.  1.
</event>
<event>
 7    1  0.2656097E-013  0.7246167E+02  0.7816164E-02  0.1226708E+00
        -11   -1    0    0    0    0  0.00000000000E+00  0.00000000000E+00  0.45593999997E+02  0.45594000000E+02  0.51100000000E-03 0.  1.
         11   -1    0    0    0    0 -0.00000000000E+00 -0.00000000000E+00 -0.45593999997E+02  0.45594000000E+02  0.51100000000E-03 0. -1.
    9900012    2    1    2    0    0 -0.45258057654E+01  0.30039146819E+01 -0.17921186405E+02  0.72461672453E+02  0.70000133081E+02 0.  0.
        -12    1    1    2    0    0  0.45258057654E+01 -0.30039146819E+01  0.17921186405E+02  0.18726327547E+02  0.00000000000E+00 0.  1.
         11    1    3    3    0    0 -0.22775111575E+02 -0.15287082133E+01 -0.78515795984E+01  0.24138971778E+02  0.51100000000E-03 0. -1.
        -11    1    3    3    0    0  0.16699304920E+01  0.22201343219E+02 -0.91645695972E+01  0.24076495691E+02  0.51100000000E-03 0.  1.
        -12    1    3    3    0    0  0.16579375317E+02 -0.17668720324E+02 -0.90503720909E+00  0.24246204984E+02  0.00000000000E+00 0.  1.
</event>
<event>
 7    1  0.2656097E-013  0.7246153E+02  0.7816164E-02  0.1226708E+00
        -11   -1    0    0    0    0  0.00000000000E+00  0.00000000000E+00  0.45593999997E+02  0.45594000000E+02  0.51100000000E-03 0.  1.
         11   -1    0    0    0    0 -0.00000000000E+00 -0.00000000000E+00 -0.45593999997E+02  0.45594000000E+02  0.51100000000E-03 0. -1.
    9900012    2    1    2    0    0  0.63853448326E+00 -0.18169122811E+02 -0.44895223727E+01  0.72461533138E+02  0.69999951597E+02 0.  0.
        -12    1    1    2    0    0 -0.63853448326E+00  0.18169122811E+02  0.44895223727E+01  0.18726466862E+02  0.00000000000E+00 0.  1.
         11    1    3    3    0    0 -0.18433283146E+02 -0.19307629344E+02  0.51407288459E+01  0.27184509776E+02  0.51100000000E-03 0. -1.
        -11    1    3    3    0    0  0.12885184584E+02 -0.16951692673E+02 -0.14233146561E+02  0.25611917685E+02  0.51100000000E-03 0.  1.
         12    1    3    3    0    0  0.61866330459E+01  0.18090199206E+02  0.46028953424E+01  0.19665105677E+02  0.00000000000E+00 0. -1.
</event>
<event>
 7    1  0.2656097E-013  0.7246150E+02  0.7816164E-02  0.1226708E+00
        -11   -1    0    0    0    0  0.00000000000E+00  0.00000000000E+00  0.45593999997E+02  0.45594000000E+02  0.51100000000E-03 0. -1.
         11   -1    0    0    0    0 -0.00000000000E+00 -0.00000000000E+00 -0.45593999997E+02  0.45594000000E+02  0.51100000000E-03 0.  1.
    9900012    2    1    2    0    0  0.13234349893E+02 -0.11675157726E+02 -0.62629363549E+01  0.72461502816E+02  0.69999912096E+02 0.  0.
        -12    1    1    2    0    0 -0.13234349893E+02  0.11675157726E+02  0.62629363549E+01  0.18726497184E+02  0.00000000000E+00 0.  1.
         11    1    3    3    0    0  0.55597569258E+01 -0.37038584337E+02 -0.17610773615E+01  0.37494919929E+02  0.51100000000E-03 0. -1.
        -11    1    3    3    0    0  0.11699497679E+02  0.33298810833E+01 -0.29379219542E+01  0.12513901855E+02  0.51100000000E-03 0.  1.
        -12    1    3    3    0    0 -0.40249047116E+01  0.22033545528E+02 -0.15639370392E+01  0.22452681032E+02  0.00000000000E+00 0.  1.
</event>
<event>
 7    1  0.2656097E-013  0.7246160E+02  0.7816164E-02  0.1226708E+00
        -11   -1    0    0    0    0  0.00000000000E+00  0.00000000000E+00  0.45593999997E+02  0.45594000000E+02  0.51100000000E-03 0.  1.
         11   -1    0    0    0    0 -0.00000000000E+00 -0.00000000000E+00 -0.45593999997E+02  0.45594000000E+02  0.51100000000E-03 0. -1.
    9900012    2    1    2    0    0 -0.43572841097E+01  0.17838174765E+02 -0.36731067962E+01  0.72461598389E+02  0.70000036598E+02 0.  0.
        -12    1    1    2    0    0  0.43572841097E+01 -0.17838174765E+02  0.36731067962E+01  0.18726401611E+02  0.00000000000E+00 0.  1.
         11    1    3    3    0    0 -0.26910567240E+01  0.49591093706E+01 -0.25964281598E+01  0.62109573732E+01  0.51100000000E-03 0. -1.
        -11    1    3    3    0    0 -0.20015190610E+02  0.33259022619E+02 -0.40146815602E+00  0.38819217118E+02  0.51100000000E-03 0.  1.
         12    1    3    3    0    0  0.18348963224E+02 -0.20379957224E+02 -0.67521048044E+00  0.27431423898E+02  0.00000000000E+00 0. -1.
</event>
<event>
 7    1  0.2656097E-013  0.7246168E+02  0.7816164E-02  0.1226708E+00
        -11   -1    0    0    0    0  0.00000000000E+00  0.00000000000E+00  0.45593999997E+02  0.45594000000E+02  0.51100000000E-03 0. -1.
         11   -1    0    0    0    0 -0.00000000000E+00 -0.00000000000E+00 -0.45593999997E+02  0.45594000000E+02  0.51100000000E-03 0.  1.
    9900012    2    1    2    0    0  0.11922677040E+01  0.39637689889E+01  0.18263132130E+02  0.72461682635E+02  0.70000146344E+02 0.  0.
        -12    1    1    2    0    0 -0.11922677040E+01 -0.39637689889E+01 -0.18263132130E+02  0.18726317365E+02  0.00000000000E+00 0.  1.
         11    1    3    3    0    0 -0.11462903755E+02  0.98466190717E+00  0.28288038164E+02  0.30538186341E+02  0.51100000000E-03 0. -1.
        -11    1    3    3    0    0  0.62488827706E+00 -0.85549171126E+01  0.11721720851E+02  0.14525007130E+02  0.51100000000E-03 0.  1.
         12    1    3    3    0    0  0.12030283182E+02  0.11534024194E+02 -0.21746626885E+02  0.27398489163E+02  0.00000000000E+00 0. -1.
</event>
<event>
 7    1  0.2656097E-013  0.7246153E+02  0.7816164E-02  0.1226708E+00
        -11   -1    0    0    0    0  0.00000000000E+00  0.00000000000E+00  0.45593999997E+02  0.45594000000E+02  0.51100000000E-03 0. -1.
         11   -1    0    0    0    0 -0.00000000000E+00 -0.00000000000E+00 -0.45593999997E+02  0.45594000000E+02  0.51100000000E-03 0.  1.
    9900012    2    1    2    0    0  0.11982180586E+02 -0.14284776253E+02  0.17472885477E+01  0.72461534731E+02  0.69999953672E+02 0.  0.
        -12    1    1    2    0    0 -0.11982180586E+02  0.14284776253E+02 -0.17472885477E+01  0.18726465269E+02  0.00000000000E+00 0.  1.
         11    1    3    3    0    0 -0.25625961268E+02  0.23884880967E+01 -0.94566487933E+01  0.27419390455E+02  0.51100000000E-03 0. -1.
        -11    1    3    3    0    0  0.33180121941E+01  0.11487715500E+00 -0.28328238499E+01  0.43643204404E+01  0.51100000000E-03 0.  1.
         12    1    3    3    0    0  0.34290129660E+02 -0.16788141504E+02  0.14036761191E+02  0.40677823836E+02  0.00000000000E+00 0. -1.
</event>
<event>
 7    1  0.2656097E-013  0.7246165E+02  0.7816164E-02  0.1226708E+00
        -11   -1    0    0    0    0  0.00000000000E+00  0.00000000000E+00  0.45593999997E+02  0.45594000000E+02  0.51100000000E-03 0.  1.
         11   -1    0    0    0    0 -0.00000000000E+00 -0.00000000000E+00 -0.45593999997E+02  0.45594000000E+02  0.51100000000E-03 0. -1.
    9900012    2    1    2    0    0 -0.18571177871E+01  0.18205177327E+02 -0.39747519743E+01  0.72461654354E+02  0.70000109504E+02 0.  0.
        -12    1    1    2    0    0  0.18571177871E+01 -0.18205177327E+02  0.39747519743E+01  0.18726345646E+02  0.00000000000E+00 0.  1.
         11    1    3    3    0    0  0.22224948787E+02 -0.54449031961E+01 -0.11055512642E+02  0.25412982498E+02  0.51100000000E-03 0. -1.
        -11    1    3    3    0    0  0.68008347789E+01  0.11429693272E+02  0.20350109209E+01  0.13454757957E+02  0.51100000000E-03 0.  1.
        -12    1    3    3    0    0 -0.30882901353E+02  0.12220387251E+02  0.50457497469E+01  0.33593913899E+02  0.00000000000E+00 0.  1.
</event>
<event>
 7    1  0.2656097E-013  0.7246157E+02  0.7816164E-02  0.1226708E+00
        -11   -1    0    0    0    0  0.00000000000E+00  0.00000000000E+00  0.45593999997E+02  0.45594000000E+02  0.51100000000E-03 0.  1.
         11   -1    0    0    0    0 -0.00000000000E+00 -0.00000000000E+00 -0.45593999997E+02  0.45594000000E+02  0.51100000000E-03 0. -1.
    9900012    2    1    2    0    0 -0.71621278721E+01 -0.34096765839E+01 -0.16963412460E+02  0.72461565946E+02  0.69999994336E+02 0.  0.
        -12    1    1    2    0    0  0.71621278721E+01  0.34096765839E+01  0.16963412460E+02  0.18726434054E+02  0.00000000000E+00 0.  1.
         11    1    3    3    0    0 -0.11571867885E+02 -0.21534998143E+02  0.10932498911E+02  0.26780287603E+02  0.51100000000E-03 0. -1.
        -11    1    3    3    0    0 -0.41228571963E+01  0.64121777631E+01  0.54176565013E+01  0.93522712404E+01  0.51100000000E-03 0.  1.
        -12    1    3    3    0    0  0.85325972090E+01  0.11713143796E+02 -0.33313567873E+02  0.36329007103E+02  0.00000000000E+00 0.  1.
</event>
<event>
 7    1  0.2656097E-013  0.7246158E+02  0.7816164E-02  0.1226708E+00
        -11   -1    0    0    0    0  0.00000000000E+00  0.00000000000E+00  0.45593999997E+02  0.45594000000E+02  0.51100000000E-03 0.  1.
         11   -1    0    0    0    0 -0.00000000000E+00 -0.00000000000E+00 -0.45593999997E+02  0.45594000000E+02  0.51100000000E-03 0. -1.
    9900012    2    1    2    0    0  0.33100146166E+01  0.10492689524E+02 -0.15153414812E+02  0.72461582545E+02  0.70000015959E+02 0.  0.
        -12    1    1    2    0    0 -0.33100146166E+01 -0.10492689524E+02  0.15153414812E+02  0.18726417455E+02  0.00000000000E+00 0.  1.
         11    1    3    3    0    0  0.39363098140E+01  0.13727672889E+02 -0.83463733632E+01  0.16541024348E+02  0.51100000000E-03 0. -1.
        -11    1    3    3    0    0 -0.53574582302E+01  0.24136875584E+02 -0.12284430190E+02  0.27607939926E+02  0.51100000000E-03 0.  1.
        -12    1    3    3    0    0  0.47311630328E+01 -0.27371858948E+02  0.54773887404E+01  0.28312618271E+02  0.00000000000E+00 0.  1.
</event>
<event>
 7    1  0.2656097E-013  0.7246160E+02  0.7816164E-02  0.1226708E+00
        -11   -1    0    0    0    0  0.00000000000E+00  0.00000000000E+00  0.45593999997E+02  0.45594000000E+02  0.51100000000E-03 0.  1.
         11   -1    0    0    0    0 -0.00000000000E+00 -0.00000000000E+00 -0.45593999997E+02  0.45594000000E+02  0.51100000000E-03 0. -1.
    9900012    2    1    2    0    0  0.71152644255E+01 -0.12365032693E+02 -0.12130833325E+02  0.72461597822E+02  0.70000035860E+02 0.  0.
        -12    1    1    2    0    0 -0.71152644255E+01  0.12365032693E+02  0.12130833325E+02  0.18726402178E+02  0.00000000000E+00 0.  1.
         11    1    3    3    0    0 -0.37765879934E+00 -0.37086145518E+02 -0.23277083403E+02  0.43787525935E+02  0.51100000000E-03 0. -1.
        -11    1    3    3    0    0  0.87519499233E+00  0.29873272902E+00 -0.19571462911E+00  0.94525763427E+00  0.51100000000E-03 0.  1.
        -12    1    3    3    0    0  0.66177282325E+01  0.24422380095E+02  0.11341964707E+02  0.27728814253E+02  0.00000000000E+00 0.  1.
</event>
<event>
 7    1  0.2656097E-013  0.7246143E+02  0.7816164E-02  0.1226708E+00
        -11   -1    0    0    0    0  0.00000000000E+00  0.00000000000E+00  0.45593999997E+02  0.45594000000E+02  0.51100000000E-03 0.  1.
         11   -1    0    0    0    0 -0.00000000000E+00 -0.00000000000E+00 -0.45593999997E+02  0.45594000000E+02  0.51100000000E-03 0. -1.
    9900012    2    1    2    0    0 -0.12583226094E+02 -0.89744472350E+01  0.10573838189E+02  0.72461432344E+02  0.69999820294E+02 0.  0.
        -12    1    1    2    0    0  0.12583226094E+02  0.89744472350E+01 -0.10573838189E+02  0.18726567656E+02  0.00000000000E+00 0.  1.
         11    1    3    3    0    0  0.23910783739E+02 -0.10539392129E+02  0.70631670254E+01  0.27068296846E+02  0.51100000000E-03 0. -1.
        -11    1    3    3    0    0 -0.88730370580E+01  0.12526568223E+02 -0.76877908495E+00  0.15369994132E+02  0.51100000000E-03 0.  1.
        -12    1    3    3    0    0 -0.27620972775E+02 -0.10961623329E+02  0.42794502486E+01  0.30023141366E+02  0.00000000000E+00 0.  1.
</event>
<event>
 7    1  0.2656097E-013  0.7246156E+02  0.7816164E-02  0.1226708E+00
        -11   -1    0    0    0    0  0.00000000000E+00  0.00000000000E+00  0.45593999997E+02  0.45594000000E+02  0.51100000000E-03 0. -1.
         11   -1    0    0    0    0 -0.00000000000E+00 -0.00000000000E+00 -0.45593999997E+02  0.45594000000E+02  0.51100000000E-03 0.  1.
    9900012    2    1    2    0    0 -0.13100803880E+02 -0.50889883938E+01  0.12375404340E+02  0.72461561531E+02  0.69999988584E+02 0.  0.
        -12    1    1    2    0    0  0.13100803880E+02  0.50889883938E+01 -0.12375404340E+02  0.18726438469E+02  0.00000000000E+00 0.  1.
         11    1    3    3    0    0 -0.41366655608E+01 -0.11690733365E+02  0.21017943598E+02  0.24403671894E+02  0.51100000000E-03 0. -1.
        -11    1    3    3    0    0  0.17065715626E+02  0.57806579416E+01  0.49438719579E+01  0.18684124980E+02  0.51100000000E-03 0.  1.
         12    1    3    3    0    0 -0.26029853946E+02  0.82108702947E+00 -0.13586411217E+02  0.29373764656E+02  0.00000000000E+00 0. -1.
</event>
<event>
 7    1  0.2656097E-013  0.7246146E+02  0.7816164E-02  0.1226708E+00
        -11   -1    0    0    0    0  0.00000000000E+00  0.00000000000E+00  0.45593999997E+02  0.45594000000E+02  0.51100000000E-03 0.  1.
         11   -1    0    0    0    0 -0.00000000000E+00 -0.00000000000E+00 -0.45593999997E+02  0.45594000000E+02  0.51100000000E-03 0. -1.
    9900012    2    1    2    0    0  0.17881976917E+02  0.37859723138E+00 -0.55475255508E+01  0.72461455363E+02  0.69999850280E+02 0.  0.
        -12    1    1    2    0    0 -0.17881976917E+02 -0.37859723138E+00  0.55475255508E+01  0.18726544637E+02  0.00000000000E+00 0.  1.
         11    1    3    3    0    0  0.15225602100E+02 -0.21493193779E+02 -0.23945655071E+02  0.35597341687E+02  0.51100000000E-03 0. -1.
        -11    1    3    3    0    0  0.31169874921E+01  0.59040056598E+01 -0.51340953049E+01  0.84221035803E+01  0.51100000000E-03 0.  1.
        -12    1    3    3    0    0 -0.46061267541E+00  0.15967785351E+02  0.23532224826E+02  0.28442010096E+02  0.00000000000E+00 0.  1.
</event>
<event>
 7    1  0.2656097E-013  0.7246156E+02  0.7816164E-02  0.1226708E+00
        -11   -1    0    0    0    0  0.00000000000E+00  0.00000000000E+00  0.45593999997E+02  0.45594000000E+02  0.51100000000E-03 0. -1.
         11   -1    0    0    0    0 -0.00000000000E+00 -0.00000000000E+00 -0.45593999997E+02  0.45594000000E+02  0.51100000000E-03 0.  1.
    9900012    2    1    2    0    0  0.49445177004E+01  0.16807578169E+02 -0.66133653841E+01  0.72461560378E+02  0.69999987083E+02 0.  0.
        -12    1    1    2    0    0 -0.49445177004E+01 -0.16807578169E+02  0.66133653841E+01  0.18726439622E+02  0.00000000000E+00 0.  1.
         11    1    3    3    0    0 -0.62994190007E+01 -0.17584071724E+02  0.15084920868E+02  0.24009104440E+02  0.51100000000E-03 0. -1.
        -11    1    3    3    0    0 -0.71618619346E+01  0.10723346086E+02 -0.97949964108E+01  0.16193343466E+02  0.51100000000E-03 0.  1.
        -12    1    3    3    0    0  0.18405798636E+02  0.23668303807E+02 -0.11903289842E+02  0.32259112473E+02  0.00000000000E+00 0.  1.
</event>
<event>
 7    1  0.2656097E-013  0.7246156E+02  0.7816164E-02  0.1226708E+00
        -11   -1    0    0    0    0  0.00000000000E+00  0.00000000000E+00  0.45593999997E+02  0.45594000000E+02  0.51100000000E-03 0. -1.
         11   -1    0    0    0    0 -0.00000000000E+00 -0.00000000000E+00 -0.45593999997E+02  0.45594000000E+02  0.51100000000E-03 0.  1.
    9900012    2    1    2    0    0  0.89910884458E+01  0.11861835401E+02  0.11363835079E+02  0.72461559915E+02  0.69999986480E+02 0.  0.
        -12    1    1    2    0    0 -0.89910884458E+01 -0.11861835401E+02 -0.11363835079E+02  0.18726440085E+02  0.00000000000E+00 0.  1.
         11    1    3    3    0    0  0.84538855411E+01  0.17737788020E+02 -0.28863098018E+01  0.19860213723E+02  0.51100000000E-03 0. -1.
        -11    1    3    3    0    0 -0.93816675931E+01  0.20210383969E+02  0.97946845374E+01  0.24339497785E+02  0.51100000000E-03 0.  1.
         12    1    3    3    0    0  0.99188704978E+01 -0.26086336588E+02  0.44554603437E+01  0.28261848407E+02  0.00000000000E+00 0. -1.
</event>
<event>
 7    1  0.2656097E-013  0.7246156E+02  0.7816164E-02  0.1226708E+00
        -11   -1    0    0    0    0  0.00000000000E+00  0.00000000000E+00  0.45593999997E+02  0.45594000000E+02  0.51100000000E-03 0. -1.
         11   -1    0    0    0    0 -0.00000000000E+00 -0.00000000000E+00 -0.45593999997E+02  0.45594000000E+02  0.51100000000E-03 0.  1.
    9900012    2    1    2    0    0 -0.52467855405E+01  0.13957716688E+02  0.11328417950E+02  0.72461557014E+02  0.69999982700E+02 0.  0.
        -12    1    1    2    0    0  0.52467855405E+01 -0.13957716688E+02 -0.11328417950E+02  0.18726442986E+02  0.00000000000E+00 0.  1.
         11    1    3    3    0    0 -0.10299411189E+02  0.70231806632E+01  0.25695022650E+02  0.28559361455E+02  0.51100000000E-03 0. -1.
        -11    1    3    3    0    0 -0.11717661305E+02  0.17864749328E+02 -0.58751965919E+01  0.22157860687E+02  0.51100000000E-03 0.  1.
        -12    1    3    3    0    0  0.16770286953E+02 -0.10930213303E+02 -0.84914081082E+01  0.21744334871E+02  0.00000000000E+00 0.  1.
</event>
<event>
 7    1  0.2656097E-013  0.7246152E+02  0.7816164E-02  0.1226708E+00
        -11   -1    0    0    0    0  0.00000000000E+00  0.00000000000E+00  0.45593999997E+02  0.45594000000E+02  0.51100000000E-03 0. -1.
         11   -1    0    0    0    0 -0.00000000000E+00 -0.00000000000E+00 -0.45593999997E+02  0.45594000000E+02  0.51100000000E-03 0.  1.
    9900012    2    1    2    0    0 -0.88957737599E+00 -0.64034012596E+01  0.17575157453E+02  0.72461519949E+02  0.69999934416E+02 0.  0.
        -12    1    1    2    0    0  0.88957737599E+00  0.64034012596E+01 -0.17575157453E+02  0.18726480051E+02  0.00000000000E+00 0.  1.
         11    1    3    3    0    0  0.12329653788E+02  0.64037024756E+01  0.14629275491E+02  0.20175318326E+02  0.51100000000E-03 0. -1.
        -11    1    3    3    0    0 -0.66648801335E+01  0.30013015087E+01  0.24038009889E+02  0.25124775772E+02  0.51100000000E-03 0.  1.
        -12    1    3    3    0    0 -0.65543510301E+01 -0.15808405244E+02 -0.21092127926E+02  0.27161425851E+02  0.00000000000E+00 0.  1.
</event>
<event>
 7    1  0.2656097E-013  0.7246160E+02  0.7816164E-02  0.1226708E+00
        -11   -1    0    0    0    0  0.00000000000E+00  0.00000000000E+00  0.45593999997E+02  0.45594000000E+02  0.51100000000E-03 0.  1.
         11   -1    0    0    0    0 -0.00000000000E+00 -0.00000000000E+00 -0.45593999997E+02  0.45594000000E+02  0.51100000000E-03 0. -1.
    9900012    2    1    2    0    0  0.15211871006E+02  0.10150808137E+02 -0.40296773996E+01  0.72461595506E+02  0.70000032843E+02 0.  0.
        -12    1    1    2    0    0 -0.15211871006E+02 -0.10150808137E+02  0.40296773996E+01  0.18726404494E+02  0.00000000000E+00 0.  1.
         11    1    3    3    0    0 -0.19649755005E+02 -0.96752647051E+00 -0.65726386874E+01  0.20742433773E+02  0.51100000000E-03 0. -1.
        -11    1    3    3    0    0 -0.51830591329E+01 -0.60185958782E+01 -0.10589086633E+01  0.80130447483E+01  0.51100000000E-03 0.  1.
        -12    1    3    3    0    0  0.40044685144E+02  0.17136930486E+02  0.36018699511E+01  0.43706116985E+02  0.00000000000E+00 0.  1.
</event>
<event>
 7    1  0.2656097E-013  0.7246153E+02  0.7816164E-02  0.1226708E+00
        -11   -1    0    0    0    0  0.00000000000E+00  0.00000000000E+00  0.45593999997E+02  0.45594000000E+02  0.51100000000E-03 0.  1.
         11   -1    0    0    0    0 -0.00000000000E+00 -0.00000000000E+00 -0.45593999997E+02  0.45594000000E+02  0.51100000000E-03 0. -1.
    9900012    2    1    2    0    0  0.34967325498E+01 -0.16909066094E+02  0.72482318953E+01  0.72461534229E+02  0.69999953018E+02 0.  0.
        -12    1    1    2    0    0 -0.34967325498E+01  0.16909066094E+02 -0.72482318953E+01  0.18726465771E+02  0.00000000000E+00 0.  1.
         11    1    3    3    0    0  0.12751699718E+02 -0.19969330439E+02  0.88552269468E+01  0.25294170246E+02  0.51100000000E-03 0. -1.
        -11    1    3    3    0    0 -0.85786121101E+01 -0.71295126403E+01  0.20207001815E+02  0.23081279402E+02  0.51100000000E-03 0.  1.
         12    1    3    3    0    0 -0.67635505767E+00  0.10189776986E+02 -0.21813996866E+02  0.24086084581E+02  0.00000000000E+00 0. -1.
</event>
<event>
 7    1  0.2656097E-013  0.7246148E+02  0.7816164E-02  0.1226708E+00
        -11   -1    0    0    0    0  0.00000000000E+00  0.00000000000E+00  0.45593999997E+02  0.45594000000E+02  0.51100000000E-03 0. -1.
         11   -1    0    0    0    0 -0.00000000000E+00 -0.00000000000E+00 -0.45593999997E+02  0.45594000000E+02  0.51100000000E-03 0.  1.
    9900012    2    1    2    0    0 -0.42718912665E+01  0.11984242021E+02  0.13740873228E+02  0.72461475793E+02  0.69999876894E+02 0.  0.
        -12    1    1    2    0    0  0.42718912665E+01 -0.11984242021E+02 -0.13740873228E+02  0.18726524207E+02  0.00000000000E+00 0.  1.
         11    1    3    3    0    0 -0.95003339072E+01  0.63107220871E+01  0.80396282425E+01  0.13954109794E+02  0.51100000000E-03 0. -1.
        -11    1    3    3    0    0 -0.24854976737E+02 -0.17296990254E+01 -0.55872718065E+01  0.25533885991E+02  0.51100000000E-03 0.  1.
         12    1    3    3    0    0  0.30083419378E+02  0.74032189594E+01  0.11288516792E+02  0.32973480007E+02  0.00000000000E+00 0. -1.
</event>
<event>
 7    1  0.2656097E-013  0.7246158E+02  0.7816164E-02  0.1226708E+00
        -11   -1    0    0    0    0  0.00000000000E+00  0.00000000000E+00  0.45593999997E+02  0.45594000000E+02  0.51100000000E-03 0.  1.
         11   -1    0    0    0    0 -0.00000000000E+00 -0.00000000000E+00 -0.45593999997E+02  0.45594000000E+02  0.51100000000E-03 0. -1.
    9900012    2    1    2    0    0  0.66800576237E+00  0.32159528570E+01 -0.18436113782E+02  0.72461578135E+02  0.70000010214E+02 0.  0.
        -12    1    1    2    0    0 -0.66800576237E+00 -0.32159528570E+01  0.18436113782E+02  0.18726421865E+02  0.00000000000E+00 0.  1.
         11    1    3    3    0    0  0.15306890277E+01 -0.10446933139E+02  0.53746209583E+01  0.11847699001E+02  0.51100000000E-03 0. -1.
        -11    1    3    3    0    0 -0.18915672463E+02 -0.10491791498E+02  0.86694723541E+00  0.21647908706E+02  0.51100000000E-03 0.  1.
         12    1    3    3    0    0  0.18052989197E+02  0.24154677494E+02 -0.24677681976E+02  0.38965970429E+02  0.00000000000E+00 0. -1.
</event>
<event>
 7    1  0.2656097E-013  0.7246154E+02  0.7816164E-02  0.1226708E+00
        -11   -1    0    0    0    0  0.00000000000E+00  0.00000000000E+00  0.45593999997E+02  0.45594000000E+02  0.51100000000E-03 0.  1.
         11   -1    0    0    0    0 -0.00000000000E+00 -0.00000000000E+00 -0.45593999997E+02  0.45594000000E+02  0.51100000000E-03 0. -1.
    9900012    2    1    2    0    0  0.13342643956E+02 -0.52438871572E+01 -0.12048057500E+02  0.72461543053E+02  0.69999964513E+02 0.  0.
        -12    1    1    2    0    0 -0.13342643956E+02  0.52438871572E+01  0.12048057500E+02  0.18726456947E+02  0.00000000000E+00 0.  1.
         11    1    3    3    0    0 -0.18507801724E+02 -0.13966839003E+02 -0.11791599568E+01  0.23216410895E+02  0.51100000000E-03 0.  1.
        -11    1    3    3    0    0  0.69301370153E+01  0.71249159955E+01 -0.20259505610E+02  0.22566319922E+02  0.51100000000E-03 0. -1.
        -12    1    3    3    0    0  0.24920308664E+02  0.15980358503E+01  0.93906080660E+01  0.26678812237E+02  0.00000000000E+00 0.  1.
</event>
<event>
 7    1  0.2656097E-013  0.7246163E+02  0.7816164E-02  0.1226708E+00
        -11   -1    0    0    0    0  0.00000000000E+00  0.00000000000E+00  0.45593999997E+02  0.45594000000E+02  0.51100000000E-03 0. -1.
         11   -1    0    0    0    0 -0.00000000000E+00 -0.00000000000E+00 -0.45593999997E+02  0.45594000000E+02  0.51100000000E-03 0.  1.
    9900012    2    1    2    0    0  0.28689743737E+01  0.16151171247E+02  0.90324840198E+01  0.72461625172E+02  0.70000071489E+02 0.  0.
        -12    1    1    2    0    0 -0.28689743737E+01 -0.16151171247E+02 -0.90324840198E+01  0.18726374828E+02  0.00000000000E+00 0.  1.
         11    1    3    3    0    0  0.54303033094E+01  0.13717957740E+02 -0.22691545795E+01  0.14927143777E+02  0.51100000000E-03 0. -1.
        -11    1    3    3    0    0  0.14162822595E+02 -0.22142526013E+02  0.18845062525E+01  0.26352008769E+02  0.51100000000E-03 0.  1.
         12    1    3    3    0    0 -0.16724151531E+02  0.24575739520E+02  0.94171323469E+01  0.31182472626E+02  0.00000000000E+00 0. -1.
</event>
<event>
 7    1  0.2656097E-013  0.7246158E+02  0.7816164E-02  0.1226708E+00
        -11   -1    0    0    0    0  0.00000000000E+00  0.00000000000E+00  0.45593999997E+02  0.45594000000E+02  0.51100000000E-03 0.  1.
         11   -1    0    0    0    0 -0.00000000000E+00 -0.00000000000E+00 -0.45593999997E+02  0.45594000000E+02  0.51100000000E-03 0. -1.
    9900012    2    1    2    0    0  0.11527633106E+02  0.53881641132E+01 -0.13738999526E+02  0.72461581615E+02  0.70000014747E+02 0.  0.
        -12    1    1    2    0    0 -0.11527633106E+02 -0.53881641132E+01  0.13738999526E+02  0.18726418385E+02  0.00000000000E+00 0.  1.
         11    1    3    3    0    0  0.21398438118E+01  0.15525954314E+02 -0.12661060936E+02  0.20147869693E+02  0.51100000000E-03 0. -1.
        -11    1    3    3    0    0  0.19312723462E+02 -0.59979842136E+01 -0.21324418027E+02  0.29388567617E+02  0.51100000000E-03 0.  1.
        -12    1    3    3    0    0 -0.99249341672E+01 -0.41398059867E+01  0.20246479437E+02  0.22925144305E+02  0.00000000000E+00 0.  1.
</event>
<event>
 7    1  0.2656097E-013  0.7246155E+02  0.7816164E-02  0.1226708E+00
        -11   -1    0    0    0    0  0.00000000000E+00  0.00000000000E+00  0.45593999997E+02  0.45594000000E+02  0.51100000000E-03 0. -1.
         11   -1    0    0    0    0 -0.00000000000E+00 -0.00000000000E+00 -0.45593999997E+02  0.45594000000E+02  0.51100000000E-03 0.  1.
    9900012    2    1    2    0    0 -0.11749900909E+02  0.88991348116E+01  0.11550983318E+02  0.72461548457E+02  0.69999971553E+02 0.  0.
        -12    1    1    2    0    0  0.11749900909E+02 -0.88991348116E+01 -0.11550983318E+02  0.18726451543E+02  0.00000000000E+00 0.  1.
         11    1    3    3    0    0  0.57292502172E+01 -0.66451238339E+00 -0.22361955362E+01  0.61859886434E+01  0.51100000000E-03 0. -1.
        -11    1    3    3    0    0  0.13221699649E+02 -0.12206871157E+02 -0.11110996900E+02  0.21148884071E+02  0.51100000000E-03 0.  1.
         12    1    3    3    0    0 -0.30700850776E+02  0.21770518352E+02  0.24898175754E+02  0.45126675743E+02  0.00000000000E+00 0. -1.
</event>
<event>
 7    1  0.2656097E-013  0.7246155E+02  0.7816164E-02  0.1226708E+00
        -11   -1    0    0    0    0  0.00000000000E+00  0.00000000000E+00  0.45593999997E+02  0.45594000000E+02  0.51100000000E-03 0. -1.
         11   -1    0    0    0    0 -0.00000000000E+00 -0.00000000000E+00 -0.45593999997E+02  0.45594000000E+02  0.51100000000E-03 0.  1.
    9900012    2    1    2    0    0 -0.10062198454E+00  0.18568691356E+02  0.24235028122E+01  0.72461553745E+02  0.69999978442E+02 0.  0.
        -12    1    1    2    0    0  0.10062198454E+00 -0.18568691356E+02 -0.24235028122E+01  0.18726446255E+02  0.00000000000E+00 0.  1.
         11    1    3    3    0    0  0.16758811450E+01  0.13510255595E+02  0.30830094633E+02  0.33702081823E+02  0.51100000000E-03 0. -1.
        -11    1    3    3    0    0  0.79379995129E+01 -0.43842735775E+01 -0.23130377741E+01  0.93586235673E+01  0.51100000000E-03 0.  1.
        -12    1    3    3    0    0 -0.97145026424E+01  0.94427093385E+01 -0.26093554046E+02  0.29400848355E+02  0.00000000000E+00 0.  1.
</event>
<event>
 7    1  0.2656097E-013  0.7246165E+02  0.7816164E-02  0.1226708E+00
        -11   -1    0    0    0    0  0.00000000000E+00  0.00000000000E+00  0.45593999997E+02  0.45594000000E+02  0.51100000000E-03 0.  1.
         11   -1    0    0    0    0 -0.00000000000E+00 -0.00000000000E+00 -0.45593999997E+02  0.45594000000E+02  0.51100000000E-03 0. -1.
    9900012    2    1    2    0    0 -0.35641463170E+01 -0.12781744512E+02 -0.13213629947E+02  0.72461650967E+02  0.70000105090E+02 0.  0.
        -12    1    1    2    0    0  0.35641463170E+01  0.12781744512E+02  0.13213629947E+02  0.18726349033E+02  0.00000000000E+00 0.  1.
         11    1    3    3    0    0 -0.30866207101E+01 -0.11902624251E+02 -0.39444658757E+02  0.41316834296E+02  0.51100000000E-03 0.  1.
        -11    1    3    3    0    0 -0.48736734129E+01  0.58139190811E+01  0.70381092334E+01  0.10348397434E+02  0.51100000000E-03 0. -1.
        -12    1    3    3    0    0  0.43961478060E+01 -0.66930393420E+01  0.19192919577E+02  0.20796419236E+02  0.00000000000E+00 0.  1.
</event>
<event>
 7    1  0.2656097E-013  0.7246160E+02  0.7816164E-02  0.1226708E+00
        -11   -1    0    0    0    0  0.00000000000E+00  0.00000000000E+00  0.45593999997E+02  0.45594000000E+02  0.51100000000E-03 0.  1.
         11   -1    0    0    0    0 -0.00000000000E+00 -0.00000000000E+00 -0.45593999997E+02  0.45594000000E+02  0.51100000000E-03 0. -1.
    9900012    2    1    2    0    0 -0.12938115957E+02 -0.12801804244E+02 -0.44041999293E+01  0.72461601162E+02  0.70000040211E+02 0.  0.
        -12    1    1    2    0    0  0.12938115957E+02  0.12801804244E+02  0.44041999293E+01  0.18726398838E+02  0.00000000000E+00 0.  1.
         11    1    3    3    0    0  0.11665732893E+02 -0.64699352209E+01  0.81823315019E+01  0.15649279049E+02  0.51100000000E-03 0. -1.
        -11    1    3    3    0    0  0.67002550392E+01 -0.13352966437E+02  0.96430972455E+01  0.17781576280E+02  0.51100000000E-03 0.  1.
         12    1    3    3    0    0 -0.31304103889E+02  0.70210974137E+01 -0.22229628677E+02  0.39030745833E+02  0.00000000000E+00 0. -1.
</event>
<event>
 7    1  0.2656097E-013  0.7246161E+02  0.7816164E-02  0.1226708E+00
        -11   -1    0    0    0    0  0.00000000000E+00  0.00000000000E+00  0.45593999997E+02  0.45594000000E+02  0.51100000000E-03 0. -1.
         11   -1    0    0    0    0 -0.00000000000E+00 -0.00000000000E+00 -0.45593999997E+02  0.45594000000E+02  0.51100000000E-03 0.  1.
    9900012    2    1    2    0    0  0.40853735362E+01 -0.16757044038E+02  0.72930593775E+01  0.72461614420E+02  0.70000057481E+02 0.  0.
        -12    1    1    2    0    0 -0.40853735362E+01  0.16757044038E+02 -0.72930593775E+01  0.18726385580E+02  0.00000000000E+00 0.  1.
         11    1    3    3    0    0  0.30740234486E+02 -0.23568886079E+01  0.26221529984E+01  0.30941761856E+02  0.51100000000E-03 0. -1.
        -11    1    3    3    0    0  0.37297793582E+01 -0.12776376046E+00  0.69333703432E+01  0.78739572145E+01  0.51100000000E-03 0.  1.
        -12    1    3    3    0    0 -0.30384640308E+02 -0.14272391670E+02 -0.22624639641E+01  0.33645895349E+02  0.00000000000E+00 0.  1.
</event>
<event>
 7    1  0.2656097E-013  0.7246153E+02  0.7816164E-02  0.1226708E+00
        -11   -1    0    0    0    0  0.00000000000E+00  0.00000000000E+00  0.45593999997E+02  0.45594000000E+02  0.51100000000E-03 0.  1.
         11   -1    0    0    0    0 -0.00000000000E+00 -0.00000000000E+00 -0.45593999997E+02  0.45594000000E+02  0.51100000000E-03 0. -1.
    9900012    2    1    2    0    0 -0.15073860279E+02  0.11111198460E+02 -0.25479391884E-01  0.72461530922E+02  0.69999948710E+02 0.  0.
        -12    1    1    2    0    0  0.15073860279E+02 -0.11111198460E+02  0.25479391884E-01  0.18726469078E+02  0.00000000000E+00 0.  1.
         11    1    3    3    0    0  0.27146347403E+00 -0.18199875626E+02 -0.17154947877E+02  0.25012025151E+02  0.51100000000E-03 0. -1.
        -11    1    3    3    0    0  0.22029307798E+01 -0.29945094233E+01 -0.36580432871E+01  0.52154838374E+01  0.51100000000E-03 0.  1.
        -12    1    3    3    0    0 -0.17548254533E+02  0.32305583509E+02  0.20787511773E+02  0.42234021934E+02  0.00000000000E+00 0.  1.
</event>
<event>
 7    1  0.2656097E-013  0.7246158E+02  0.7816164E-02  0.1226708E+00
        -11   -1    0    0    0    0  0.00000000000E+00  0.00000000000E+00  0.45593999997E+02  0.45594000000E+02  0.51100000000E-03 0.  1.
         11   -1    0    0    0    0 -0.00000000000E+00 -0.00000000000E+00 -0.45593999997E+02  0.45594000000E+02  0.51100000000E-03 0. -1.
    9900012    2    1    2    0    0  0.16467492171E+02  0.60260937771E+01 -0.65716581418E+01  0.72461580285E+02  0.70000013014E+02 0.  0.
        -12    1    1    2    0    0 -0.16467492171E+02 -0.60260937771E+01  0.65716581418E+01  0.18726419715E+02  0.00000000000E+00 0.  1.
         11    1    3    3    0    0  0.67879630458E+01 -0.18371357013E+02 -0.21796266960E+01  0.19706191251E+02  0.51100000000E-03 0. -1.
        -11    1    3    3    0    0 -0.16527417300E+02  0.37264930309E+01  0.57157149851E+01  0.17880482962E+02  0.51100000000E-03 0.  1.
        -12    1    3    3    0    0  0.26206946425E+02  0.20670957759E+02 -0.10107746431E+02  0.34874906072E+02  0.00000000000E+00 0.  1.
</event>
<event>
 7    1  0.2656097E-013  0.7246157E+02  0.7816164E-02  0.1226708E+00
        -11   -1    0    0    0    0  0.00000000000E+00  0.00000000000E+00  0.45593999997E+02  0.45594000000E+02  0.51100000000E-03 0. -1.
         11   -1    0    0    0    0 -0.00000000000E+00 -0.00000000000E+00 -0.45593999997E+02  0.45594000000E+02  0.51100000000E-03 0.  1.
    9900012    2    1    2    0    0  0.56564586522E+01  0.40805572212E+01  0.17379086330E+02  0.72461571793E+02  0.70000001952E+02 0.  0.
        -12    1    1    2    0    0 -0.56564586522E+01 -0.40805572212E+01 -0.17379086330E+02  0.18726428207E+02  0.00000000000E+00 0.  1.
         11    1    3    3    0    0 -0.69200042237E+01  0.62563375015E+01 -0.90523502034E+01  0.12998971569E+02  0.51100000000E-03 0. -1.
        -11    1    3    3    0    0 -0.18615358228E+02 -0.82353474523E+01  0.44809437527E+01  0.20843017219E+02  0.51100000000E-03 0.  1.
         12    1    3    3    0    0  0.31191821104E+02  0.60595671720E+01  0.21950492781E+02  0.38619583005E+02  0.00000000000E+00 0. -1.
</event>
<event>
 7    1  0.2656097E-013  0.7246158E+02  0.7816164E-02  0.1226708E+00
        -11   -1    0    0    0    0  0.00000000000E+00  0.00000000000E+00  0.45593999997E+02  0.45594000000E+02  0.51100000000E-03 0. -1.
         11   -1    0    0    0    0 -0.00000000000E+00 -0.00000000000E+00 -0.45593999997E+02  0.45594000000E+02  0.51100000000E-03 0.  1.
    9900012    2    1    2    0    0  0.15938299816E+01  0.14681837073E+02  0.11514427755E+02  0.72461583355E+02  0.70000017013E+02 0.  0.
        -12    1    1    2    0    0 -0.15938299816E+01 -0.14681837073E+02 -0.11514427755E+02  0.18726416645E+02  0.00000000000E+00 0.  1.
         11    1    3    3    0    0  0.73831565671E+01  0.21908420557E+02  0.30515460183E+02  0.38284242223E+02  0.51100000000E-03 0. -1.
        -11    1    3    3    0    0  0.37386317244E+01  0.26058537471E+01  0.48630140826E+01  0.66645890459E+01  0.51100000000E-03 0.  1.
        -12    1    3    3    0    0 -0.95279583099E+01 -0.98324372307E+01 -0.23864046510E+02  0.27512752085E+02  0.00000000000E+00 0.  1.
</event>
<event>
 7    1  0.2656097E-013  0.7246154E+02  0.7816164E-02  0.1226708E+00
        -11   -1    0    0    0    0  0.00000000000E+00  0.00000000000E+00  0.45593999997E+02  0.45594000000E+02  0.51100000000E-03 0. -1.
         11   -1    0    0    0    0 -0.00000000000E+00 -0.00000000000E+00 -0.45593999997E+02  0.45594000000E+02  0.51100000000E-03 0.  1.
    9900012    2    1    2    0    0  0.66650261367E+00  0.14134387405E+02 -0.12266011158E+02  0.72461543775E+02  0.69999965453E+02 0.  0.
        -12    1    1    2    0    0 -0.66650261367E+00 -0.14134387405E+02  0.12266011158E+02  0.18726456225E+02  0.00000000000E+00 0.  1.
         11    1    3    3    0    0  0.10862465367E+01  0.24608863054E+02 -0.29603906182E+02  0.38511911584E+02  0.51100000000E-03 0. -1.
        -11    1    3    3    0    0 -0.97514361536E+01  0.25541303930E+01  0.14522951522E+02  0.17678523985E+02  0.51100000000E-03 0.  1.
        -12    1    3    3    0    0  0.93316922305E+01 -0.13028606043E+02  0.28149435032E+01  0.16271108205E+02  0.00000000000E+00 0.  1.
</event>
<event>
 7    1  0.2656097E-013  0.7246157E+02  0.7816164E-02  0.1226708E+00
        -11   -1    0    0    0    0  0.00000000000E+00  0.00000000000E+00  0.45593999997E+02  0.45594000000E+02  0.51100000000E-03 0.  1.
         11   -1    0    0    0    0 -0.00000000000E+00 -0.00000000000E+00 -0.45593999997E+02  0.45594000000E+02  0.51100000000E-03 0. -1.
    9900012    2    1    2    0    0  0.60972200240E+00 -0.18132998809E+02 -0.46369815571E+01  0.72461574696E+02  0.70000005734E+02 0.  0.
        -12    1    1    2    0    0 -0.60972200240E+00  0.18132998809E+02  0.46369815571E+01  0.18726425304E+02  0.00000000000E+00 0.  1.
         11    1    3    3    0    0 -0.23554184190E+02  0.97832568167E+01 -0.55553683884E+01  0.26103138221E+02  0.51100000000E-03 0. -1.
        -11    1    3    3    0    0 -0.50743215897E+01  0.10462244228E+01  0.45833696013E+00  0.52012881259E+01  0.51100000000E-03 0.  1.
        -12    1    3    3    0    0  0.29238227782E+02 -0.28962480048E+02  0.46004987116E+00  0.41157148349E+02  0.00000000000E+00 0.  1.
</event>
<event>
 7    1  0.2656097E-013  0.7246142E+02  0.7816164E-02  0.1226708E+00
        -11   -1    0    0    0    0  0.00000000000E+00  0.00000000000E+00  0.45593999997E+02  0.45594000000E+02  0.51100000000E-03 0. -1.
         11   -1    0    0    0    0 -0.00000000000E+00 -0.00000000000E+00 -0.45593999997E+02  0.45594000000E+02  0.51100000000E-03 0.  1.
    9900012    2    1    2    0    0 -0.18377196001E+02 -0.16631867839E+01 -0.31933406432E+01  0.72461416019E+02  0.69999799027E+02 0.  0.
        -12    1    1    2    0    0  0.18377196001E+02  0.16631867839E+01  0.31933406432E+01  0.18726583981E+02  0.00000000000E+00 0.  1.
         11    1    3    3    0    0 -0.21235638328E+02  0.13820766115E+02 -0.20287985713E+02  0.32458716483E+02  0.51100000000E-03 0. -1.
        -11    1    3    3    0    0  0.59622239396E+00 -0.77039765930E+01 -0.94743427095E+01  0.12225788585E+02  0.51100000000E-03 0.  1.
         12    1    3    3    0    0  0.22622199325E+01 -0.77799763061E+01  0.26568987779E+02  0.27776910950E+02  0.00000000000E+00 0. -1.
</event>
<event>
 7    1  0.2656097E-013  0.7246080E+02  0.7816164E-02  0.1226710E+00
        -11   -1    0    0    0    0  0.00000000000E+00  0.00000000000E+00  0.45593999997E+02  0.45594000000E+02  0.51100000000E-03 0.  1.
         11   -1    0    0    0    0 -0.00000000000E+00 -0.00000000000E+00 -0.45593999997E+02  0.45594000000E+02  0.51100000000E-03 0. -1.
    9900012    2    1    2    0    0 -0.14780323684E+02 -0.61443833336E+01  0.97209284478E+01  0.72460804144E+02  0.69999001940E+02 0.  0.
        -12    1    1    2    0    0  0.14780323684E+02  0.61443833336E+01 -0.97209284478E+01  0.18727195856E+02  0.00000000000E+00 0.  1.
         11    1    3    3    0    0  0.16217922418E+02 -0.85170476854E+01 -0.16638827008E+02  0.24746952808E+02  0.51100000000E-03 0. -1.
        -11    1    3    3    0    0 -0.57811379077E+01 -0.91082117085E+01  0.23279394606E+01  0.11036320874E+02  0.51100000000E-03 0.  1.
        -12    1    3    3    0    0 -0.25217108194E+02  0.11480876060E+02  0.24031815995E+02  0.36677530462E+02  0.00000000000E+00 0.  1.
</event>
<event>
 7    1  0.2656097E-013  0.7246160E+02  0.7816164E-02  0.1226708E+00
        -11   -1    0    0    0    0  0.00000000000E+00  0.00000000000E+00  0.45593999997E+02  0.45594000000E+02  0.51100000000E-03 0.  1.
         11   -1    0    0    0    0 -0.00000000000E+00 -0.00000000000E+00 -0.45593999997E+02  0.45594000000E+02  0.51100000000E-03 0. -1.
    9900012    2    1    2    0    0  0.77830481464E+01  0.88786263851E+01 -0.14535211019E+02  0.72461596066E+02  0.70000033573E+02 0.  0.
        -12    1    1    2    0    0 -0.77830481464E+01 -0.88786263851E+01  0.14535211019E+02  0.18726403934E+02  0.00000000000E+00 0.  1.
         11    1    3    3    0    0 -0.27861774219E+01 -0.10136669153E+02 -0.54426118310E+01  0.11837941964E+02  0.51100000000E-03 0. -1.
        -11    1    3    3    0    0 -0.21017878356E+02  0.17798876500E+02  0.63849239524E+00  0.27549208483E+02  0.51100000000E-03 0.  1.
         12    1    3    3    0    0  0.31587103924E+02  0.12164190385E+01 -0.97310915829E+01  0.33074445619E+02  0.00000000000E+00 0. -1.
</event>
<event>
 7    1  0.2656097E-013  0.7246179E+02  0.7816164E-02  0.1226707E+00
        -11   -1    0    0    0    0  0.00000000000E+00  0.00000000000E+00  0.45593999997E+02  0.45594000000E+02  0.51100000000E-03 0.  1.
         11   -1    0    0    0    0 -0.00000000000E+00 -0.00000000000E+00 -0.45593999997E+02  0.45594000000E+02  0.51100000000E-03 0. -1.
    9900012    2    1    2    0    0 -0.14318902564E+02  0.92292572098E+01 -0.77756555738E+01  0.72461788988E+02  0.70000284888E+02 0.  0.
        -12    1    1    2    0    0  0.14318902564E+02 -0.92292572098E+01  0.77756555738E+01  0.18726211012E+02  0.00000000000E+00 0.  1.
         11    1    3    3    0    0 -0.35271933163E+02 -0.44301966967E+01  0.12696157925E+01  0.35571728049E+02  0.51100000000E-03 0. -1.
        -11    1    3    3    0    0  0.39976685330E+01 -0.49965557841E+01 -0.97594467666E+01  0.11670206719E+02  0.51100000000E-03 0.  1.
        -12    1    3    3    0    0  0.16955362067E+02  0.18656009691E+02  0.71417540037E+00  0.25219854220E+02  0.00000000000E+00 0.  1.
</event>
<event>
 7    1  0.2656097E-013  0.7246162E+02  0.7816164E-02  0.1226708E+00
        -11   -1    0    0    0    0  0.00000000000E+00  0.00000000000E+00  0.45593999997E+02  0.45594000000E+02  0.51100000000E-03 0.  1.
         11   -1    0    0    0    0 -0.00000000000E+00 -0.00000000000E+00 -0.45593999997E+02  0.45594000000E+02  0.51100000000E-03 0. -1.
    9900012    2    1    2    0    0  0.84883039428E+01  0.16629975151E+02  0.14386634409E+01  0.72461624754E+02  0.70000070944E+02 0.  0.
        -12    1    1    2    0    0 -0.84883039428E+01 -0.16629975151E+02 -0.14386634409E+01  0.18726375246E+02  0.00000000000E+00 0.  1.
         11    1    3    3    0    0  0.22600286009E+02 -0.94225815037E+01  0.23008308411E+00  0.24486953840E+02  0.51100000000E-03 0. -1.
        -11    1    3    3    0    0  0.66569848698E+00 -0.44611753097E+01  0.11655499549E+02  0.12497836197E+02  0.51100000000E-03 0.  1.
        -12    1    3    3    0    0 -0.14777680553E+02  0.30513731965E+02 -0.10446919192E+02  0.35476834717E+02  0.00000000000E+00 0.  1.
</event>
<event>
 7    1  0.2656097E-013  0.7246168E+02  0.7816164E-02  0.1226708E+00
        -11   -1    0    0    0    0  0.00000000000E+00  0.00000000000E+00  0.45593999997E+02  0.45594000000E+02  0.51100000000E-03 0.  1.
         11   -1    0    0    0    0 -0.00000000000E+00 -0.00000000000E+00 -0.45593999997E+02  0.45594000000E+02  0.51100000000E-03 0. -1.
    9900012    2    1    2    0    0 -0.38374705155E+01 -0.36137401938E+01 -0.17969128488E+02  0.72461684912E+02  0.70000149311E+02 0.  0.
        -12    1    1    2    0    0  0.38374705155E+01  0.36137401938E+01  0.17969128488E+02  0.18726315088E+02  0.00000000000E+00 0.  1.
         11    1    3    3    0    0 -0.79765083139E+01  0.10263816586E+01  0.76812135924E+01  0.11121114454E+02  0.51100000000E-03 0. -1.
        -11    1    3    3    0    0 -0.62004900437E+01 -0.32761996969E+01  0.16495092459E+02  0.17923940324E+02  0.51100000000E-03 0.  1.
         12    1    3    3    0    0  0.10339527842E+02 -0.13639221555E+01 -0.42145434540E+02  0.43416630134E+02  0.00000000000E+00 0. -1.
</event>
<event>
 7    1  0.2656097E-013  0.7246154E+02  0.7816164E-02  0.1226708E+00
        -11   -1    0    0    0    0  0.00000000000E+00  0.00000000000E+00  0.45593999997E+02  0.45594000000E+02  0.51100000000E-03 0.  1.
         11   -1    0    0    0    0 -0.00000000000E+00 -0.00000000000E+00 -0.45593999997E+02  0.45594000000E+02  0.51100000000E-03 0. -1.
    9900012    2    1    2    0    0 -0.10581586852E+02  0.91612016891E+00 -0.15423065996E+02  0.72461542215E+02  0.69999963421E+02 0.  0.
        -12    1    1    2    0    0  0.10581586852E+02 -0.91612016891E+00  0.15423065996E+02  0.18726457785E+02  0.00000000000E+00 0.  1.
         11    1    3    3    0    0 -0.10285926394E+01 -0.18747059600E+01  0.13033330677E+02  0.13207582445E+02  0.51100000000E-03 0. -1.
        -11    1    3    3    0    0  0.18022767851E+02  0.43469252367E+01  0.13865796458E+01  0.18591356147E+02  0.51100000000E-03 0.  1.
         12    1    3    3    0    0 -0.27575762064E+02 -0.15560991078E+01 -0.29842976318E+02  0.40662603622E+02  0.00000000000E+00 0. -1.
</event>
<event>
 7    1  0.2656097E-013  0.7246153E+02  0.7816164E-02  0.1226708E+00
        -11   -1    0    0    0    0  0.00000000000E+00  0.00000000000E+00  0.45593999997E+02  0.45594000000E+02  0.51100000000E-03 0. -1.
         11   -1    0    0    0    0 -0.00000000000E+00 -0.00000000000E+00 -0.45593999997E+02  0.45594000000E+02  0.51100000000E-03 0.  1.
    9900012    2    1    2    0    0 -0.63635760110E+01  0.12446065627E+02  0.12461175678E+02  0.72461533475E+02  0.69999952036E+02 0.  0.
        -12    1    1    2    0    0  0.63635760110E+01 -0.12446065627E+02 -0.12461175678E+02  0.18726466525E+02  0.00000000000E+00 0.  1.
         11    1    3    3    0    0 -0.80076650131E+01  0.48119669373E+00  0.12330953242E+01  0.81163275907E+01  0.51100000000E-03 0. -1.
        -11    1    3    3    0    0  0.21431899411E+02  0.24247222872E+02  0.21540167473E+02  0.38874579668E+02  0.51100000000E-03 0.  1.
         12    1    3    3    0    0 -0.19787810409E+02 -0.12282353938E+02 -0.10312087119E+02  0.25470626216E+02  0.00000000000E+00 0. -1.
</event>
<event>
 7    1  0.2656097E-013  0.7246162E+02  0.7816164E-02  0.1226708E+00
        -11   -1    0    0    0    0  0.00000000000E+00  0.00000000000E+00  0.45593999997E+02  0.45594000000E+02  0.51100000000E-03 0. -1.
         11   -1    0    0    0    0 -0.00000000000E+00 -0.00000000000E+00 -0.45593999997E+02  0.45594000000E+02  0.51100000000E-03 0.  1.
    9900012    2    1    2    0    0 -0.14694048803E+01  0.15841005768E+02  0.98782877048E+01  0.72461623350E+02  0.70000069115E+02 0.  0.
        -12    1    1    2    0    0  0.14694048803E+01 -0.15841005768E+02 -0.98782877048E+01  0.18726376650E+02  0.00000000000E+00 0.  1.
         11    1    3    3    0    0 -0.20739931330E+02 -0.50511055178E+01  0.16478276538E+02  0.26966498038E+02  0.51100000000E-03 0. -1.
        -11    1    3    3    0    0 -0.63624813610E+01  0.12466969234E+01  0.77932325334E+01  0.10137548810E+02  0.51100000000E-03 0.  1.
        -12    1    3    3    0    0  0.25633007810E+02  0.19645414363E+02 -0.14393221366E+02  0.35357576503E+02  0.00000000000E+00 0.  1.
</event>
<event>
 7    1  0.2656097E-013  0.7246161E+02  0.7816164E-02  0.1226708E+00
        -11   -1    0    0    0    0  0.00000000000E+00  0.00000000000E+00  0.45593999997E+02  0.45594000000E+02  0.51100000000E-03 0.  1.
         11   -1    0    0    0    0 -0.00000000000E+00 -0.00000000000E+00 -0.45593999997E+02  0.45594000000E+02  0.51100000000E-03 0. -1.
    9900012    2    1    2    0    0  0.14647296072E+01 -0.13358568186E+01 -0.18621165749E+02  0.72461607926E+02  0.70000049023E+02 0.  0.
        -12    1    1    2    0    0 -0.14647296072E+01  0.13358568186E+01  0.18621165749E+02  0.18726392074E+02  0.00000000000E+00 0.  1.
         11    1    3    3    0    0  0.83276293223E+01  0.85008644045E+01  0.15391514296E+00  0.11901167837E+02  0.51100000000E-03 0. -1.
        -11    1    3    3    0    0  0.11180358458E+02  0.56789307037E+01  0.14805757262E+02  0.19402605947E+02  0.51100000000E-03 0.  1.
        -12    1    3    3    0    0 -0.18043258173E+02 -0.15515651927E+02 -0.33580838153E+02  0.41157834142E+02  0.00000000000E+00 0.  1.
</event>
<event>
 7    1  0.2656097E-013  0.7246157E+02  0.7816164E-02  0.1226708E+00
        -11   -1    0    0    0    0  0.00000000000E+00  0.00000000000E+00  0.45593999997E+02  0.45594000000E+02  0.51100000000E-03 0.  1.
         11   -1    0    0    0    0 -0.00000000000E+00 -0.00000000000E+00 -0.45593999997E+02  0.45594000000E+02  0.51100000000E-03 0. -1.
    9900012    2    1    2    0    0 -0.89045709947E+01 -0.55857647016E+01 -0.15497963838E+02  0.72461573885E+02  0.70000004678E+02 0.  0.
        -12    1    1    2    0    0  0.89045709947E+01  0.55857647016E+01  0.15497963838E+02  0.18726426115E+02  0.00000000000E+00 0.  1.
         11    1    3    3    0    0  0.16358868500E+02 -0.72883812360E+00  0.53741241545E+01  0.17234413082E+02  0.51100000000E-03 0. -1.
        -11    1    3    3    0    0 -0.91556974238E+01 -0.17900910267E+02  0.62834193418E+01  0.21065392059E+02  0.51100000000E-03 0.  1.
         12    1    3    3    0    0 -0.16107742071E+02  0.13043983689E+02 -0.27155507335E+02  0.34161768744E+02  0.00000000000E+00 0. -1.
</event>
<event>
 7    1  0.2656097E-013  0.7246158E+02  0.7816164E-02  0.1226708E+00
        -11   -1    0    0    0    0  0.00000000000E+00  0.00000000000E+00  0.45593999997E+02  0.45594000000E+02  0.51100000000E-03 0.  1.
         11   -1    0    0    0    0 -0.00000000000E+00 -0.00000000000E+00 -0.45593999997E+02  0.45594000000E+02  0.51100000000E-03 0. -1.
    9900012    2    1    2    0    0 -0.36577837764E+01 -0.14541246461E+02 -0.11218357697E+02  0.72461580689E+02  0.70000013541E+02 0.  0.
        -12    1    1    2    0    0  0.36577837764E+01  0.14541246461E+02  0.11218357697E+02  0.18726419311E+02  0.00000000000E+00 0.  1.
         11    1    3    3    0    0 -0.12167428621E+02 -0.59919917782E+01 -0.28710075257E+02  0.31752459846E+02  0.51100000000E-03 0. -1.
        -11    1    3    3    0    0 -0.22605528622E+01 -0.17699848684E+02 -0.47523329434E+00  0.17849946488E+02  0.51100000000E-03 0.  1.
        -12    1    3    3    0    0  0.10770197707E+02  0.91505940010E+01  0.17966950854E+02  0.22859174356E+02  0.00000000000E+00 0.  1.
</event>
<event>
 7    1  0.2656097E-013  0.7246157E+02  0.7816164E-02  0.1226708E+00
        -11   -1    0    0    0    0  0.00000000000E+00  0.00000000000E+00  0.45593999997E+02  0.45594000000E+02  0.51100000000E-03 0. -1.
         11   -1    0    0    0    0 -0.00000000000E+00 -0.00000000000E+00 -0.45593999997E+02  0.45594000000E+02  0.51100000000E-03 0.  1.
    9900012    2    1    2    0    0 -0.12931858985E+01  0.65745553345E+01  0.17486623824E+02  0.72461571607E+02  0.70000001710E+02 0.  0.
        -12    1    1    2    0    0  0.12931858985E+01 -0.65745553345E+01 -0.17486623824E+02  0.18726428393E+02  0.00000000000E+00 0.  1.
         11    1    3    3    0    0  0.22552629990E+02  0.72981056983E+01  0.70926401676E+01  0.24742453618E+02  0.51100000000E-03 0. -1.
        -11    1    3    3    0    0  0.59753357257E+01  0.39806527386E+01 -0.92434993007E+01  0.11704380071E+02  0.51100000000E-03 0.  1.
        -12    1    3    3    0    0 -0.29821151614E+02 -0.47042031024E+01  0.19637482957E+02  0.36014737918E+02  0.00000000000E+00 0.  1.
</event>
<event>
 7    1  0.2656097E-013  0.7246160E+02  0.7816164E-02  0.1226708E+00
        -11   -1    0    0    0    0  0.00000000000E+00  0.00000000000E+00  0.45593999997E+02  0.45594000000E+02  0.51100000000E-03 0.  1.
         11   -1    0    0    0    0 -0.00000000000E+00 -0.00000000000E+00 -0.45593999997E+02  0.45594000000E+02  0.51100000000E-03 0. -1.
    9900012    2    1    2    0    0  0.17021538783E+02 -0.75711741383E+01 -0.19033344443E+01  0.72461597719E+02  0.70000035726E+02 0.  0.
        -12    1    1    2    0    0 -0.17021538783E+02  0.75711741383E+01  0.19033344443E+01  0.18726402281E+02  0.00000000000E+00 0.  1.
         11    1    3    3    0    0 -0.67713259907E+00  0.68778493969E+00 -0.44887314934E+00  0.10644454168E+01  0.51100000000E-03 0. -1.
        -11    1    3    3    0    0 -0.11576803969E+02  0.12568116891E+02  0.22472421029E+02  0.28231005287E+02  0.51100000000E-03 0.  1.
         12    1    3    3    0    0  0.29275475351E+02 -0.20827075969E+02 -0.23926882324E+02  0.43166147016E+02  0.00000000000E+00 0. -1.
</event>
<event>
 7    1  0.2656097E-013  0.7246157E+02  0.7816164E-02  0.1226708E+00
        -11   -1    0    0    0    0  0.00000000000E+00  0.00000000000E+00  0.45593999997E+02  0.45594000000E+02  0.51100000000E-03 0.  1.
         11   -1    0    0    0    0 -0.00000000000E+00 -0.00000000000E+00 -0.45593999997E+02  0.45594000000E+02  0.51100000000E-03 0. -1.
    9900012    2    1    2    0    0 -0.16710312240E+02 -0.45612174450E+01 -0.71161710152E+01  0.72461571359E+02  0.70000001387E+02 0.  0.
        -12    1    1    2    0    0  0.16710312240E+02  0.45612174450E+01  0.71161710152E+01  0.18726428641E+02  0.00000000000E+00 0.  1.
         11    1    3    3    0    0 -0.12497916949E+02 -0.85463961768E+01  0.87371241190E+01  0.17480736650E+02  0.51100000000E-03 0. -1.
        -11    1    3    3    0    0  0.20474087542E+02 -0.10597477370E+02 -0.20090048208E+01  0.23141540310E+02  0.51100000000E-03 0.  1.
         12    1    3    3    0    0 -0.24686482832E+02  0.14582656102E+02 -0.13844290313E+02  0.31839294400E+02  0.00000000000E+00 0. -1.
</event>
<event>
 7    1  0.2656097E-013  0.7246159E+02  0.7816164E-02  0.1226708E+00
        -11   -1    0    0    0    0  0.00000000000E+00  0.00000000000E+00  0.45593999997E+02  0.45594000000E+02  0.51100000000E-03 0.  1.
         11   -1    0    0    0    0 -0.00000000000E+00 -0.00000000000E+00 -0.45593999997E+02  0.45594000000E+02  0.51100000000E-03 0. -1.
    9900012    2    1    2    0    0  0.14167404040E+02  0.10647829071E+02 -0.60487069776E+01  0.72461589312E+02  0.70000024774E+02 0.  0.
        -12    1    1    2    0    0 -0.14167404040E+02 -0.10647829071E+02  0.60487069776E+01  0.18726410688E+02  0.00000000000E+00 0.  1.
         11    1    3    3    0    0  0.80920702341E+01  0.28318835824E+02 -0.19634710775E+02  0.35397174048E+02  0.51100000000E-03 0. -1.
        -11    1    3    3    0    0  0.89368904242E+01 -0.18270300616E+02 -0.27006388814E+01  0.20517440037E+02  0.51100000000E-03 0.  1.
        -12    1    3    3    0    0 -0.28615566182E+01  0.59929386280E+00  0.16286642679E+02  0.16546975227E+02  0.00000000000E+00 0.  1.
</event>
<event>
 7    1  0.2656097E-013  0.7246156E+02  0.7816164E-02  0.1226708E+00
        -11   -1    0    0    0    0  0.00000000000E+00  0.00000000000E+00  0.45593999997E+02  0.45594000000E+02  0.51100000000E-03 0.  1.
         11   -1    0    0    0    0 -0.00000000000E+00 -0.00000000000E+00 -0.45593999997E+02  0.45594000000E+02  0.51100000000E-03 0. -1.
    9900012    2    1    2    0    0  0.15137141743E+02  0.10565145886E+02 -0.31502453562E+01  0.72461563779E+02  0.69999991513E+02 0.  0.
        -12    1    1    2    0    0 -0.15137141743E+02 -0.10565145886E+02  0.31502453562E+01  0.18726436221E+02  0.00000000000E+00 0.  1.
         11    1    3    3    0    0  0.69911188253E+01  0.30838987474E+01 -0.65921843965E+01  0.10091732720E+02  0.51100000000E-03 0. -1.
        -11    1    3    3    0    0  0.27906636855E+02 -0.24750188256E+01  0.20262146481E+02  0.34575434618E+02  0.51100000000E-03 0.  1.
         12    1    3    3    0    0 -0.19760613938E+02  0.99562659643E+01 -0.16820207441E+02  0.27794396441E+02  0.00000000000E+00 0. -1.
</event>
<event>
 7    1  0.2656097E-013  0.7246165E+02  0.7816164E-02  0.1226708E+00
        -11   -1    0    0    0    0  0.00000000000E+00  0.00000000000E+00  0.45593999997E+02  0.45594000000E+02  0.51100000000E-03 0. -1.
         11   -1    0    0    0    0 -0.00000000000E+00 -0.00000000000E+00 -0.45593999997E+02  0.45594000000E+02  0.51100000000E-03 0.  1.
    9900012    2    1    2    0    0  0.94922909279E+01  0.12260452882E+02  0.10500191594E+02  0.72461646499E+02  0.70000099271E+02 0.  0.
        -12    1    1    2    0    0 -0.94922909279E+01 -0.12260452882E+02 -0.10500191594E+02  0.18726353501E+02  0.00000000000E+00 0.  1.
         11    1    3    3    0    0  0.19980233944E+02 -0.29696821747E+01 -0.24475208550E+02  0.31734281061E+02  0.51100000000E-03 0. -1.
        -11    1    3    3    0    0  0.10447999285E+01 -0.63664882563E+00  0.15935304364E+01  0.20090465725E+01  0.51100000000E-03 0.  1.
        -12    1    3    3    0    0 -0.11532742944E+02  0.15866783882E+02  0.33381869707E+02  0.38718318865E+02  0.00000000000E+00 0.  1.
</event>
<event>
 7    1  0.2656097E-013  0.7246155E+02  0.7816164E-02  0.1226708E+00
        -11   -1    0    0    0    0  0.00000000000E+00  0.00000000000E+00  0.45593999997E+02  0.45594000000E+02  0.51100000000E-03 0. -1.
         11   -1    0    0    0    0 -0.00000000000E+00 -0.00000000000E+00 -0.45593999997E+02  0.45594000000E+02  0.51100000000E-03 0.  1.
    9900012    2    1    2    0    0 -0.69910119771E+01  0.88246378306E+00  0.17350126235E+02  0.72461551560E+02  0.69999975595E+02 0.  0.
        -12    1    1    2    0    0  0.69910119771E+01 -0.88246378306E+00 -0.17350126235E+02  0.18726448440E+02  0.00000000000E+00 0.  1.
         11    1    3    3    0    0 -0.28129369777E+02  0.26387936169E+01 -0.14318871809E+02  0.31674197164E+02  0.51100000000E-03 0. -1.
        -11    1    3    3    0    0  0.59390369531E+00 -0.30144677230E+01  0.66712052743E-01  0.30731397643E+01  0.51100000000E-03 0.  1.
        -12    1    3    3    0    0  0.20544454105E+02  0.12581378891E+01  0.31602285991E+02  0.37714214632E+02  0.00000000000E+00 0.  1.
</event>
<event>
 7    1  0.2656097E-013  0.7246159E+02  0.7816164E-02  0.1226708E+00
        -11   -1    0    0    0    0  0.00000000000E+00  0.00000000000E+00  0.45593999997E+02  0.45594000000E+02  0.51100000000E-03 0. -1.
         11   -1    0    0    0    0 -0.00000000000E+00 -0.00000000000E+00 -0.45593999997E+02  0.45594000000E+02  0.51100000000E-03 0.  1.
    9900012    2    1    2    0    0  0.10956195118E+02  0.10032207608E+02  0.11401536046E+02  0.72461590169E+02  0.70000025890E+02 0.  0.
        -12    1    1    2    0    0 -0.10956195118E+02 -0.10032207608E+02 -0.11401536046E+02  0.18726409831E+02  0.00000000000E+00 0.  1.
         11    1    3    3    0    0 -0.10331850121E+02  0.16730814739E+02 -0.14330744267E+02  0.24331821145E+02  0.51100000000E-03 0. -1.
        -11    1    3    3    0    0 -0.98089746132E+00 -0.61580089927E+01 -0.64622771286E+01  0.89802149491E+01  0.51100000000E-03 0.  1.
         12    1    3    3    0    0  0.22268942700E+02 -0.54059813895E+00  0.32194557442E+02  0.39149554074E+02  0.00000000000E+00 0. -1.
</event>
<event>
 7    1  0.2656097E-013  0.7246159E+02  0.7816164E-02  0.1226708E+00
        -11   -1    0    0    0    0  0.00000000000E+00  0.00000000000E+00  0.45593999997E+02  0.45594000000E+02  0.51100000000E-03 0. -1.
         11   -1    0    0    0    0 -0.00000000000E+00 -0.00000000000E+00 -0.45593999997E+02  0.45594000000E+02  0.51100000000E-03 0.  1.
    9900012    2    1    2    0    0 -0.34089667492E+01  0.18354260566E+02  0.14759458084E+01  0.72461592142E+02  0.70000028461E+02 0.  0.
        -12    1    1    2    0    0  0.34089667492E+01 -0.18354260566E+02 -0.14759458084E+01  0.18726407858E+02  0.00000000000E+00 0.  1.
         11    1    3    3    0    0  0.45155982168E+01  0.19008814931E+02  0.22678964003E+00  0.19539117333E+02  0.51100000000E-03 0. -1.
        -11    1    3    3    0    0  0.86446598501E+01  0.22530430285E+02 -0.21300132091E+01  0.24225758797E+02  0.51100000000E-03 0.  1.
        -12    1    3    3    0    0 -0.16569224816E+02 -0.23184984650E+02  0.33791693774E+01  0.28696716013E+02  0.00000000000E+00 0.  1.
</event>
<event>
 7    1  0.2656097E-013  0.7246157E+02  0.7816164E-02  0.1226708E+00
        -11   -1    0    0    0    0  0.00000000000E+00  0.00000000000E+00  0.45593999997E+02  0.45594000000E+02  0.51100000000E-03 0.  1.
         11   -1    0    0    0    0 -0.00000000000E+00 -0.00000000000E+00 -0.45593999997E+02  0.45594000000E+02  0.51100000000E-03 0. -1.
    9900012    2    1    2    0    0 -0.18612267313E+02 -0.20151374991E+01 -0.44937237725E+00  0.72461569235E+02  0.69999998620E+02 0.  0.
        -12    1    1    2    0    0  0.18612267313E+02  0.20151374991E+01  0.44937237725E+00  0.18726430765E+02  0.00000000000E+00 0.  1.
         11    1    3    3    0    0 -0.14933551548E+02  0.42558042291E+01 -0.25610664579E+02  0.29950441931E+02  0.51100000000E-03 0. -1.
        -11    1    3    3    0    0  0.27533638447E+01  0.36099085239E+01 -0.69513205824E+01  0.83026086330E+01  0.51100000000E-03 0.  1.
        -12    1    3    3    0    0 -0.64320796099E+01 -0.98808502522E+01  0.32112612784E+02  0.34208518670E+02  0.00000000000E+00 0.  1.
</event>
<event>
 7    1  0.2656097E-013  0.7246154E+02  0.7816164E-02  0.1226708E+00
        -11   -1    0    0    0    0  0.00000000000E+00  0.00000000000E+00  0.45593999997E+02  0.45594000000E+02  0.51100000000E-03 0.  1.
         11   -1    0    0    0    0 -0.00000000000E+00 -0.00000000000E+00 -0.45593999997E+02  0.45594000000E+02  0.51100000000E-03 0. -1.
    9900012    2    1    2    0    0 -0.15814146255E+02 -0.73812120923E+01 -0.67904927809E+01  0.72461539952E+02  0.69999960474E+02 0.  0.
        -12    1    1    2    0    0  0.15814146255E+02  0.73812120923E+01  0.67904927809E+01  0.18726460048E+02  0.00000000000E+00 0.  1.
         11    1    3    3    0    0 -0.17392747894E+01  0.17477729545E+01 -0.65156505353E+01  0.69665981119E+01  0.51100000000E-03 0. -1.
        -11    1    3    3    0    0 -0.77161459642E+01  0.17960654833E+02 -0.22555792598E+02  0.29847743810E+02  0.51100000000E-03 0.  1.
        -12    1    3    3    0    0 -0.63587255013E+01 -0.27089639880E+02  0.22280950352E+02  0.35647198030E+02  0.00000000000E+00 0.  1.
</event>
<event>
 7    1  0.2656097E-013  0.7246154E+02  0.7816164E-02  0.1226708E+00
        -11   -1    0    0    0    0  0.00000000000E+00  0.00000000000E+00  0.45593999997E+02  0.45594000000E+02  0.51100000000E-03 0.  1.
         11   -1    0    0    0    0 -0.00000000000E+00 -0.00000000000E+00 -0.45593999997E+02  0.45594000000E+02  0.51100000000E-03 0. -1.
    9900012    2    1    2    0    0 -0.28354308892E+01  0.16099241079E+02  0.91353758017E+01  0.72461539505E+02  0.69999959891E+02 0.  0.
        -12    1    1    2    0    0  0.28354308892E+01 -0.16099241079E+02 -0.91353758017E+01  0.18726460495E+02  0.00000000000E+00 0.  1.
         11    1    3    3    0    0 -0.76573320230E+00 -0.14647949450E+02  0.12708505148E+02  0.19407598352E+02  0.51100000000E-03 0. -1.
        -11    1    3    3    0    0  0.20047850155E+02  0.20016439848E+02 -0.11763210705E+01  0.28354151222E+02  0.51100000000E-03 0.  1.
         12    1    3    3    0    0 -0.22117547842E+02  0.10730750681E+02 -0.23968082761E+01  0.24699789930E+02  0.00000000000E+00 0. -1.
</event>
<event>
 7    1  0.2656097E-013  0.7246156E+02  0.7816164E-02  0.1226708E+00
        -11   -1    0    0    0    0  0.00000000000E+00  0.00000000000E+00  0.45593999997E+02  0.45594000000E+02  0.51100000000E-03 0.  1.
         11   -1    0    0    0    0 -0.00000000000E+00 -0.00000000000E+00 -0.45593999997E+02  0.45594000000E+02  0.51100000000E-03 0. -1.
    9900012    2    1    2    0    0 -0.12435775356E+02  0.25972525959E+01 -0.13758106769E+02  0.72461555287E+02  0.69999980450E+02 0.  0.
        -12    1    1    2    0    0  0.12435775356E+02 -0.25972525959E+01  0.13758106769E+02  0.18726444713E+02  0.00000000000E+00 0.  1.
         11    1    3    3    0    0  0.82752748075E+00  0.56478666232E+00  0.92075008999E+01  0.92618496418E+01  0.51100000000E-03 0. -1.
        -11    1    3    3    0    0 -0.22740631891E+02  0.66839369343E+01  0.12076548007E+02  0.26601773696E+02  0.51100000000E-03 0.  1.
         12    1    3    3    0    0  0.94773290546E+01 -0.46514710007E+01 -0.35042155676E+02  0.36597931948E+02  0.00000000000E+00 0. -1.
</event>
<event>
 7    1  0.2656097E-013  0.7246145E+02  0.7816164E-02  0.1226708E+00
        -11   -1    0    0    0    0  0.00000000000E+00  0.00000000000E+00  0.45593999997E+02  0.45594000000E+02  0.51100000000E-03 0.  1.
         11   -1    0    0    0    0 -0.00000000000E+00 -0.00000000000E+00 -0.45593999997E+02  0.45594000000E+02  0.51100000000E-03 0. -1.
    9900012    2    1    2    0    0 -0.49479828076E+01  0.18009430329E+02 -0.13643216069E+01  0.72461454988E+02  0.69999849792E+02 0.  0.
        -12    1    1    2    0    0  0.49479828076E+01 -0.18009430329E+02  0.13643216069E+01  0.18726545012E+02  0.00000000000E+00 0.  1.
         11    1    3    3    0    0  0.18313807013E+02  0.74517495058E+01 -0.12094090952E+01  0.19808754848E+02  0.51100000000E-03 0. -1.
        -11    1    3    3    0    0  0.83012186415E+00  0.12552680599E+01  0.19898725235E+02  0.19955552271E+02  0.51100000000E-03 0.  1.
         12    1    3    3    0    0 -0.24091911685E+02  0.93024127630E+01 -0.20053637747E+02  0.32697147869E+02  0.00000000000E+00 0. -1.
</event>
<event>
 7    1  0.2656097E-013  0.7246153E+02  0.7816164E-02  0.1226708E+00
        -11   -1    0    0    0    0  0.00000000000E+00  0.00000000000E+00  0.45593999997E+02  0.45594000000E+02  0.51100000000E-03 0.  1.
         11   -1    0    0    0    0 -0.00000000000E+00 -0.00000000000E+00 -0.45593999997E+02  0.45594000000E+02  0.51100000000E-03 0. -1.
    9900012    2    1    2    0    0 -0.10034368842E+02  0.14671689747E+02 -0.58935216641E+01  0.72461531147E+02  0.69999949004E+02 0.  0.
        -12    1    1    2    0    0  0.10034368842E+02 -0.14671689747E+02  0.58935216641E+01  0.18726468853E+02  0.00000000000E+00 0.  1.
         11    1    3    3    0    0  0.19293159761E+02  0.17563726178E+02 -0.16496844929E+01  0.26142531439E+02  0.51100000000E-03 0. -1.
        -11    1    3    3    0    0 -0.36845895687E+01  0.12867405870E+02  0.58023882662E+01  0.14588147379E+02  0.51100000000E-03 0.  1.
        -12    1    3    3    0    0 -0.25642939035E+02 -0.15759442302E+02 -0.10046225437E+02  0.31730852329E+02  0.00000000000E+00 0.  1.
</event>
<event>
 7    1  0.2656097E-013  0.7246178E+02  0.7816164E-02  0.1226707E+00
        -11   -1    0    0    0    0  0.00000000000E+00  0.00000000000E+00  0.45593999997E+02  0.45594000000E+02  0.51100000000E-03 0.  1.
         11   -1    0    0    0    0 -0.00000000000E+00 -0.00000000000E+00 -0.45593999997E+02  0.45594000000E+02  0.51100000000E-03 0. -1.
    9900012    2    1    2    0    0 -0.15967706586E+02 -0.46862661108E+01 -0.85873425042E+01  0.72461783218E+02  0.70000277372E+02 0.  0.
        -12    1    1    2    0    0  0.15967706586E+02  0.46862661108E+01  0.85873425042E+01  0.18726216782E+02  0.00000000000E+00 0.  1.
         11    1    3    3    0    0 -0.97656652565E+01  0.32126341278E+01 -0.71828632188E+01  0.12541242372E+02  0.51100000000E-03 0. -1.
        -11    1    3    3    0    0 -0.19755998141E+02 -0.25828338680E+02 -0.12521704502E+02  0.34845309949E+02  0.51100000000E-03 0.  1.
        -12    1    3    3    0    0  0.13553956812E+02  0.17929438441E+02  0.11117225217E+02  0.25075230898E+02  0.00000000000E+00 0.  1.
</event>
<event>
 7    1  0.4256316E-013  0.7246159E+02  0.7816164E-02  0.1226708E+00
        -11   -1    0    0    0    0  0.00000000000E+00  0.00000000000E+00  0.45593999997E+02  0.45594000000E+02  0.51100000000E-03 0. -1.
         11   -1    0    0    0    0 -0.00000000000E+00 -0.00000000000E+00 -0.45593999997E+02  0.45594000000E+02  0.51100000000E-03 0.  1.
    9900012    2    1    2    0    0  0.18017669302E+01  0.93753355327E+01  0.16110089456E+02  0.72461594507E+02  0.70000031541E+02 0.  0.
        -12    1    1    2    0    0 -0.18017669302E+01 -0.93753355327E+01 -0.16110089456E+02  0.18726405493E+02  0.00000000000E+00 0.  1.
         11    1    3    3    0    0  0.17614279531E+02  0.15107668440E+02  0.21378421719E+02  0.31552201263E+02  0.51100000000E-03 0. -1.
        -11    1    3    3    0    0  0.74120593964E+01  0.69075001633E+01 -0.97845758944E+01  0.14085102367E+02  0.51100000000E-03 0.  1.
        -12    1    3    3    0    0 -0.23224571997E+02 -0.12639833071E+02  0.45162436311E+01  0.26824290877E+02  0.00000000000E+00 0.  1.
</event>
<event>
 7    1  0.2656097E-013  0.7246158E+02  0.7816164E-02  0.1226708E+00
        -11   -1    0    0    0    0  0.00000000000E+00  0.00000000000E+00  0.45593999997E+02  0.45594000000E+02  0.51100000000E-03 0.  1.
         11   -1    0    0    0    0 -0.00000000000E+00 -0.00000000000E+00 -0.45593999997E+02  0.45594000000E+02  0.51100000000E-03 0. -1.
    9900012    2    1    2    0    0  0.70485302908E+01  0.10981400461E+02 -0.13431522701E+02  0.72461581832E+02  0.70000015030E+02 0.  0.
        -12    1    1    2    0    0 -0.70485302908E+01 -0.10981400461E+02  0.13431522701E+02  0.18726418168E+02  0.00000000000E+00 0.  1.
         11    1    3    3    0    0  0.24809035703E+02 -0.96501189034E+01 -0.18338666047E+02  0.32325218020E+02  0.51100000000E-03 0. -1.
        -11    1    3    3    0    0  0.61791051963E+01  0.13126163382E+02  0.39213425849E+01  0.15028454148E+02  0.51100000000E-03 0.  1.
         12    1    3    3    0    0 -0.23939610609E+02  0.75053559821E+01  0.98580076156E+00  0.25107909663E+02  0.00000000000E+00 0. -1.
</event>
<event>
 7    1  0.2656097E-013  0.7246155E+02  0.7816164E-02  0.1226708E+00
        -11   -1    0    0    0    0  0.00000000000E+00  0.00000000000E+00  0.45593999997E+02  0.45594000000E+02  0.51100000000E-03 0.  1.
         11   -1    0    0    0    0 -0.00000000000E+00 -0.00000000000E+00 -0.45593999997E+02  0.45594000000E+02  0.51100000000E-03 0. -1.
    9900012    2    1    2    0    0  0.17937947143E+02  0.45367621239E+01 -0.28857620179E+01  0.72461553975E+02  0.69999978742E+02 0.  0.
        -12    1    1    2    0    0 -0.17937947143E+02 -0.45367621239E+01  0.28857620179E+01  0.18726446025E+02  0.00000000000E+00 0.  1.
         11    1    3    3    0    0  0.19418845060E+01  0.20162311844E+02 -0.19435871340E+02  0.28072100551E+02  0.51100000000E-03 0. -1.
        -11    1    3    3    0    0 -0.10429229750E+02 -0.11875912441E-01  0.31153526953E+01  0.10884594476E+02  0.51100000000E-03 0.  1.
        -12    1    3    3    0    0  0.26425292388E+02 -0.15613673808E+02  0.13434756627E+02  0.33504858949E+02  0.00000000000E+00 0.  1.
</event>
<event>
 7    1  0.2656097E-013  0.7246159E+02  0.7816164E-02  0.1226708E+00
        -11   -1    0    0    0    0  0.00000000000E+00  0.00000000000E+00  0.45593999997E+02  0.45594000000E+02  0.51100000000E-03 0.  1.
         11   -1    0    0    0    0 -0.00000000000E+00 -0.00000000000E+00 -0.45593999997E+02  0.45594000000E+02  0.51100000000E-03 0. -1.
    9900012    2    1    2    0    0 -0.10635198545E+01 -0.14552426085E+02 -0.11737719755E+02  0.72461594993E+02  0.70000032175E+02 0.  0.
        -12    1    1    2    0    0  0.10635198545E+01  0.14552426085E+02  0.11737719755E+02  0.18726405007E+02  0.00000000000E+00 0.  1.
         11    1    3    3    0    0  0.56503428037E+01  0.17422750325E+02 -0.96990487924E+01  0.20725591678E+02  0.51100000000E-03 0. -1.
        -11    1    3    3    0    0  0.12786600400E+02 -0.16518151495E+01  0.68562711660E+01  0.14602537370E+02  0.51100000000E-03 0.  1.
        -12    1    3    3    0    0 -0.19500463059E+02 -0.30323361260E+02 -0.88949421287E+01  0.37133465945E+02  0.00000000000E+00 0.  1.
</event>
<event>
 7    1  0.2656097E-013  0.7246150E+02  0.7816164E-02  0.1226708E+00
        -11   -1    0    0    0    0  0.00000000000E+00  0.00000000000E+00  0.45593999997E+02  0.45594000000E+02  0.51100000000E-03 0.  1.
         11   -1    0    0    0    0 -0.00000000000E+00 -0.00000000000E+00 -0.45593999997E+02  0.45594000000E+02  0.51100000000E-03 0. -1.
    9900012    2    1    2    0    0  0.35714210682E+01 -0.57649493054E+01 -0.17455427944E+02  0.72461503967E+02  0.69999913597E+02 0.  0.
        -12    1    1    2    0    0 -0.35714210682E+01  0.57649493054E+01  0.17455427944E+02  0.18726496033E+02  0.00000000000E+00 0.  1.
         11    1    3    3    0    0  0.12320276571E+02 -0.13910525503E+02 -0.15890859515E+02  0.24450181001E+02  0.51100000000E-03 0. -1.
        -11    1    3    3    0    0 -0.44345055062E+01 -0.19329603014E+02  0.21688959084E+01  0.19950000037E+02  0.51100000000E-03 0.  1.
        -12    1    3    3    0    0 -0.43143499971E+01  0.27475179211E+02 -0.37334643373E+01  0.28061322930E+02  0.00000000000E+00 0.  1.
</event>
<event>
 7    1  0.2656097E-013  0.7246158E+02  0.7816164E-02  0.1226708E+00
        -11   -1    0    0    0    0  0.00000000000E+00  0.00000000000E+00  0.45593999997E+02  0.45594000000E+02  0.51100000000E-03 0.  1.
         11   -1    0    0    0    0 -0.00000000000E+00 -0.00000000000E+00 -0.45593999997E+02  0.45594000000E+02  0.51100000000E-03 0. -1.
    9900012    2    1    2    0    0  0.90758955439E+01 -0.32574325776E+01 -0.16052913553E+02  0.72461580682E+02  0.70000013532E+02 0.  0.
        -12    1    1    2    0    0 -0.90758955439E+01  0.32574325776E+01  0.16052913553E+02  0.18726419318E+02  0.00000000000E+00 0.  1.
         11    1    3    3    0    0  0.42272629334E+01 -0.10668787100E+02 -0.13009940754E+02  0.17347948835E+02  0.51100000000E-03 0. -1.
        -11    1    3    3    0    0  0.15259068357E+02  0.16091613143E+02 -0.22375346112E+02  0.31502941047E+02  0.51100000000E-03 0.  1.
         12    1    3    3    0    0 -0.10410435747E+02 -0.86802586210E+01  0.19332373313E+02  0.23610690801E+02  0.00000000000E+00 0. -1.
</event>
<event>
 7    1  0.2656097E-013  0.7246151E+02  0.7816164E-02  0.1226708E+00
        -11   -1    0    0    0    0  0.00000000000E+00  0.00000000000E+00  0.45593999997E+02  0.45594000000E+02  0.51100000000E-03 0.  1.
         11   -1    0    0    0    0 -0.00000000000E+00 -0.00000000000E+00 -0.45593999997E+02  0.45594000000E+02  0.51100000000E-03 0. -1.
    9900012    2    1    2    0    0  0.13245227006E+02  0.85929559726E+00  0.13210105202E+02  0.72461513228E+02  0.69999925661E+02 0.  0.
        -12    1    1    2    0    0 -0.13245227006E+02 -0.85929559726E+00 -0.13210105202E+02  0.18726486772E+02  0.00000000000E+00 0.  1.
         11    1    3    3    0    0 -0.22937012768E+02 -0.58219359458E+01  0.15470952347E+02  0.28272811315E+02  0.51100000000E-03 0. -1.
        -11    1    3    3    0    0  0.75326239477E+01  0.31361562940E+01  0.99298251870E+01  0.12852133222E+02  0.51100000000E-03 0.  1.
         12    1    3    3    0    0  0.28649615826E+02  0.35450752491E+01 -0.12190672331E+02  0.31336568692E+02  0.00000000000E+00 0. -1.
</event>
<event>
 7    1  0.2656097E-013  0.7246174E+02  0.7816164E-02  0.1226708E+00
        -11   -1    0    0    0    0  0.00000000000E+00  0.00000000000E+00  0.45593999997E+02  0.45594000000E+02  0.51100000000E-03 0.  1.
         11   -1    0    0    0    0 -0.00000000000E+00 -0.00000000000E+00 -0.45593999997E+02  0.45594000000E+02  0.51100000000E-03 0. -1.
    9900012    2    1    2    0    0 -0.37621013649E+01 -0.15440482779E+02  0.99050899813E+01  0.72461742428E+02  0.70000224235E+02 0.  0.
        -12    1    1    2    0    0  0.37621013649E+01  0.15440482779E+02 -0.99050899813E+01  0.18726257572E+02  0.00000000000E+00 0.  1.
         11    1    3    3    0    0 -0.99858943362E+01 -0.22827119088E+02  0.59529818530E+01  0.25617053787E+02  0.51100000000E-03 0. -1.
        -11    1    3    3    0    0  0.10603570544E+02 -0.34162933365E+01  0.22402936889E+02  0.25019959032E+02  0.51100000000E-03 0.  1.
         12    1    3    3    0    0 -0.43797775730E+01  0.10802929645E+02 -0.18450828761E+02  0.21824729608E+02  0.00000000000E+00 0. -1.
</event>
<event>
 7    1  0.2656097E-013  0.7246145E+02  0.7816164E-02  0.1226708E+00
        -11   -1    0    0    0    0  0.00000000000E+00  0.00000000000E+00  0.45593999997E+02  0.45594000000E+02  0.51100000000E-03 0.  1.
         11   -1    0    0    0    0 -0.00000000000E+00 -0.00000000000E+00 -0.45593999997E+02  0.45594000000E+02  0.51100000000E-03 0. -1.
    9900012    2    1    2    0    0 -0.35179363198E+01  0.87510199650E+01 -0.16177995904E+02  0.72461447252E+02  0.69999839714E+02 0.  0.
        -12    1    1    2    0    0  0.35179363198E+01 -0.87510199650E+01  0.16177995904E+02  0.18726552748E+02  0.00000000000E+00 0.  1.
         11    1    3    3    0    0 -0.10462430807E+02  0.15366195522E+02 -0.15764107623E+02  0.24373951519E+02  0.51100000000E-03 0. -1.
        -11    1    3    3    0    0 -0.14446016849E+02 -0.14458745744E+02 -0.10722524974E+02  0.23080625498E+02  0.51100000000E-03 0.  1.
         12    1    3    3    0    0  0.21390511336E+02  0.78435701871E+01  0.10308636694E+02  0.25006870235E+02  0.00000000000E+00 0. -1.
</event>
<event>
 7    1  0.2656097E-013  0.7246173E+02  0.7816164E-02  0.1226708E+00
        -11   -1    0    0    0    0  0.00000000000E+00  0.00000000000E+00  0.45593999997E+02  0.45594000000E+02  0.51100000000E-03 0.  1.
         11   -1    0    0    0    0 -0.00000000000E+00 -0.00000000000E+00 -0.45593999997E+02  0.45594000000E+02  0.51100000000E-03 0. -1.
    9900012    2    1    2    0    0  0.12158267976E+02 -0.21243826103E+01 -0.14083204003E+02  0.72461731908E+02  0.70000210532E+02 0.  0.
        -12    1    1    2    0    0 -0.12158267976E+02  0.21243826103E+01  0.14083204003E+02  0.18726268092E+02  0.00000000000E+00 0.  1.
         11    1    3    3    0    0  0.20813046084E+02  0.16365701808E+02 -0.27291878865E+02  0.38024541223E+02  0.51100000000E-03 0. -1.
        -11    1    3    3    0    0  0.47159014377E+01  0.30007366686E+01 -0.57080427197E+00  0.56187155741E+01  0.51100000000E-03 0.  1.
        -12    1    3    3    0    0 -0.13370679546E+02 -0.21490821087E+02  0.13779479134E+02  0.28818475111E+02  0.00000000000E+00 0.  1.
</event>
<event>
 7    1  0.2656097E-013  0.7246158E+02  0.7816164E-02  0.1226708E+00
        -11   -1    0    0    0    0  0.00000000000E+00  0.00000000000E+00  0.45593999997E+02  0.45594000000E+02  0.51100000000E-03 0. -1.
         11   -1    0    0    0    0 -0.00000000000E+00 -0.00000000000E+00 -0.45593999997E+02  0.45594000000E+02  0.51100000000E-03 0.  1.
    9900012    2    1    2    0    0  0.10389697487E+02 -0.39230874247E+01  0.15077877529E+02  0.72461579637E+02  0.70000012171E+02 0.  0.
        -12    1    1    2    0    0 -0.10389697487E+02  0.39230874247E+01 -0.15077877529E+02  0.18726420363E+02  0.00000000000E+00 0.  1.
         11    1    3    3    0    0  0.12154488152E+02 -0.28232162136E+01 -0.91512716998E+01  0.15474104368E+02  0.51100000000E-03 0. -1.
        -11    1    3    3    0    0 -0.19546660857E+01 -0.54355106995E+01 -0.15748786598E+02  0.16774676618E+02  0.51100000000E-03 0.  1.
         12    1    3    3    0    0  0.18987542149E+00  0.43356394883E+01  0.39977935826E+02  0.40212798651E+02  0.00000000000E+00 0. -1.
</event>
<event>
 7    1  0.2656097E-013  0.7246157E+02  0.7816164E-02  0.1226708E+00
        -11   -1    0    0    0    0  0.00000000000E+00  0.00000000000E+00  0.45593999997E+02  0.45594000000E+02  0.51100000000E-03 0.  1.
         11   -1    0    0    0    0 -0.00000000000E+00 -0.00000000000E+00 -0.45593999997E+02  0.45594000000E+02  0.51100000000E-03 0. -1.
    9900012    2    1    2    0    0  0.16541097709E+01  0.17946852665E+02 -0.50846361061E+01  0.72461571508E+02  0.70000001582E+02 0.  0.
        -12    1    1    2    0    0 -0.16541097709E+01 -0.17946852665E+02  0.50846361061E+01  0.18726428492E+02  0.00000000000E+00 0.  1.
         11    1    3    3    0    0  0.11119177930E+01  0.13272515972E+02  0.18494255371E+02  0.22791084296E+02  0.51100000000E-03 0. -1.
        -11    1    3    3    0    0  0.10964687919E+02 -0.56676915673E+00  0.95474853233E+01  0.14549917000E+02  0.51100000000E-03 0.  1.
         12    1    3    3    0    0 -0.10422495941E+02  0.52411058501E+01 -0.33126376800E+02  0.35120570213E+02  0.00000000000E+00 0. -1.
</event>
<event>
 7    1  0.2656097E-013  0.7246153E+02  0.7816164E-02  0.1226708E+00
        -11   -1    0    0    0    0  0.00000000000E+00  0.00000000000E+00  0.45593999997E+02  0.45594000000E+02  0.51100000000E-03 0. -1.
         11   -1    0    0    0    0 -0.00000000000E+00 -0.00000000000E+00 -0.45593999997E+02  0.45594000000E+02  0.51100000000E-03 0.  1.
    9900012    2    1    2    0    0  0.13018254143E+02 -0.92420417006E+01  0.97872587365E+01  0.72461529182E+02  0.69999946443E+02 0.  0.
        -12    1    1    2    0    0 -0.13018254143E+02  0.92420417006E+01 -0.97872587365E+01  0.18726470818E+02  0.00000000000E+00 0.  1.
         11    1    3    3    0    0 -0.26400202120E+02 -0.44285121814E+01 -0.40009019387E+01  0.27066392606E+02  0.51100000000E-03 0.  1.
        -11    1    3    3    0    0  0.58727690334E+01 -0.72305535685E+01  0.52621516092E+01  0.10698624250E+02  0.51100000000E-03 0. -1.
        -12    1    3    3    0    0  0.33545687230E+02  0.24170240493E+01  0.85260090661E+01  0.34696512326E+02  0.00000000000E+00 0.  1.
</event>
<event>
 7    1  0.2656097E-013  0.7246158E+02  0.7816164E-02  0.1226708E+00
        -11   -1    0    0    0    0  0.00000000000E+00  0.00000000000E+00  0.45593999997E+02  0.45594000000E+02  0.51100000000E-03 0.  1.
         11   -1    0    0    0    0 -0.00000000000E+00 -0.00000000000E+00 -0.45593999997E+02  0.45594000000E+02  0.51100000000E-03 0. -1.
    9900012    2    1    2    0    0 -0.58805714424E+01 -0.14666364094E+00 -0.17778530521E+02  0.72461580743E+02  0.70000013611E+02 0.  0.
        -12    1    1    2    0    0  0.58805714424E+01  0.14666364094E+00  0.17778530521E+02  0.18726419257E+02  0.00000000000E+00 0.  1.
         11    1    3    3    0    0 -0.20466584757E+02 -0.68977078669E+00  0.56486695870E+01  0.21242983400E+02  0.51100000000E-03 0. -1.
        -11    1    3    3    0    0 -0.59943837522E+01 -0.17231695659E+02 -0.76849433376E+01  0.19797028217E+02  0.51100000000E-03 0.  1.
        -12    1    3    3    0    0  0.20580397067E+02  0.17774802805E+02 -0.15742256770E+02  0.31421569127E+02  0.00000000000E+00 0.  1.
</event>
<event>
 7    1  0.2656097E-013  0.7246151E+02  0.7816164E-02  0.1226708E+00
        -11   -1    0    0    0    0  0.00000000000E+00  0.00000000000E+00  0.45593999997E+02  0.45594000000E+02  0.51100000000E-03 0.  1.
         11   -1    0    0    0    0 -0.00000000000E+00 -0.00000000000E+00 -0.45593999997E+02  0.45594000000E+02  0.51100000000E-03 0. -1.
    9900012    2    1    2    0    0 -0.16782633531E+02  0.15884677482E+01 -0.81548447961E+01  0.72461507758E+02  0.69999918535E+02 0.  0.
        -12    1    1    2    0    0  0.16782633531E+02 -0.15884677482E+01  0.81548447961E+01  0.18726492242E+02  0.00000000000E+00 0.  1.
         11    1    3    3    0    0 -0.67879579680E+01  0.75792329607E+01 -0.19081267490E+02  0.21624428661E+02  0.51100000000E-03 0. -1.
        -11    1    3    3    0    0  0.11641168671E+02 -0.19875115775E+02  0.34253939511E+00  0.23035936460E+02  0.51100000000E-03 0.  1.
         12    1    3    3    0    0 -0.21635844234E+02  0.13884350563E+02  0.10583883298E+02  0.27801142637E+02  0.00000000000E+00 0. -1.
</event>
<event>
 7    1  0.2656097E-013  0.7246156E+02  0.7816164E-02  0.1226708E+00
        -11   -1    0    0    0    0  0.00000000000E+00  0.00000000000E+00  0.45593999997E+02  0.45594000000E+02  0.51100000000E-03 0.  1.
         11   -1    0    0    0    0 -0.00000000000E+00 -0.00000000000E+00 -0.45593999997E+02  0.45594000000E+02  0.51100000000E-03 0. -1.
    9900012    2    1    2    0    0  0.11141660658E+02 -0.10715758900E+02 -0.10569553544E+02  0.72461560051E+02  0.69999986657E+02 0.  0.
        -12    1    1    2    0    0 -0.11141660658E+02  0.10715758900E+02  0.10569553544E+02  0.18726439949E+02  0.00000000000E+00 0.  1.
         11    1    3    3    0    0  0.69245320992E+01  0.56868632076E+01 -0.15542585192E+02  0.17940499231E+02  0.51100000000E-03 0. -1.
        -11    1    3    3    0    0  0.79028194090E+01  0.17983609654E+02  0.31062267826E+01  0.19887519098E+02  0.51100000000E-03 0.  1.
        -12    1    3    3    0    0 -0.36856908502E+01 -0.34386231762E+02  0.18668048654E+01  0.34633541722E+02  0.00000000000E+00 0.  1.
</event>
<event>
 7    1  0.2656097E-013  0.7246161E+02  0.7816164E-02  0.1226708E+00
        -11   -1    0    0    0    0  0.00000000000E+00  0.00000000000E+00  0.45593999997E+02  0.45594000000E+02  0.51100000000E-03 0. -1.
         11   -1    0    0    0    0 -0.00000000000E+00 -0.00000000000E+00 -0.45593999997E+02  0.45594000000E+02  0.51100000000E-03 0.  1.
    9900012    2    1    2    0    0 -0.15039578973E+02  0.86042457399E+01  0.71032097765E+01  0.72461613014E+02  0.70000055650E+02 0.  0.
        -12    1    1    2    0    0  0.15039578973E+02 -0.86042457399E+01 -0.71032097765E+01  0.18726386986E+02  0.00000000000E+00 0.  1.
         11    1    3    3    0    0  0.18944560513E+01 -0.15105486141E+02  0.12164718925E+02  0.19487048573E+02  0.51100000000E-03 0. -1.
        -11    1    3    3    0    0  0.11132847251E+02  0.12979957335E+02 -0.13474472852E+02  0.21771104686E+02  0.51100000000E-03 0.  1.
         12    1    3    3    0    0 -0.28066882275E+02  0.10729774546E+02  0.84129637039E+01  0.31203459755E+02  0.00000000000E+00 0. -1.
</event>
<event>
 7    1  0.2656097E-013  0.7246170E+02  0.7816164E-02  0.1226708E+00
        -11   -1    0    0    0    0  0.00000000000E+00  0.00000000000E+00  0.45593999997E+02  0.45594000000E+02  0.51100000000E-03 0. -1.
         11   -1    0    0    0    0 -0.00000000000E+00 -0.00000000000E+00 -0.45593999997E+02  0.45594000000E+02  0.51100000000E-03 0.  1.
    9900012    2    1    2    0    0  0.12882413953E+02  0.90568802499E+00 -0.13560874832E+02  0.72461703349E+02  0.70000173328E+02 0.  0.
        -12    1    1    2    0    0 -0.12882413953E+02 -0.90568802499E+00  0.13560874832E+02  0.18726296651E+02  0.00000000000E+00 0.  1.
         11    1    3    3    0    0 -0.62923568798E+00  0.47419625152E+01 -0.65039127098E+00  0.48275413113E+01  0.51100000000E-03 0. -1.
        -11    1    3    3    0    0 -0.10946927377E+02 -0.21409325342E+02 -0.25448330615E+02  0.35011597535E+02  0.51100000000E-03 0.  1.
         12    1    3    3    0    0  0.24458577018E+02  0.17573050852E+02  0.12537847054E+02  0.32622564503E+02  0.00000000000E+00 0. -1.
</event>
<event>
 7    1  0.2656097E-013  0.7246158E+02  0.7816164E-02  0.1226708E+00
        -11   -1    0    0    0    0  0.00000000000E+00  0.00000000000E+00  0.45593999997E+02  0.45594000000E+02  0.51100000000E-03 0.  1.
         11   -1    0    0    0    0 -0.00000000000E+00 -0.00000000000E+00 -0.45593999997E+02  0.45594000000E+02  0.51100000000E-03 0. -1.
    9900012    2    1    2    0    0  0.39105943162E+01  0.22871714918E+01 -0.18170163759E+02  0.72461581433E+02  0.70000014510E+02 0.  0.
        -12    1    1    2    0    0 -0.39105943162E+01 -0.22871714918E+01  0.18170163759E+02  0.18726418567E+02  0.00000000000E+00 0.  1.
         11    1    3    3    0    0  0.30718306017E+01  0.11804887877E+02  0.14489485282E+02  0.18940345958E+02  0.51100000000E-03 0. -1.
        -11    1    3    3    0    0 -0.50524277083E+01  0.44637120622E+01  0.78004061328E+01  0.10310096373E+02  0.51100000000E-03 0.  1.
         12    1    3    3    0    0  0.58911914229E+01 -0.13981428447E+02 -0.40460055173E+02  0.43211139101E+02  0.00000000000E+00 0. -1.
</event>
<event>
 7    1  0.2656097E-013  0.7246180E+02  0.7816164E-02  0.1226707E+00
        -11   -1    0    0    0    0  0.00000000000E+00  0.00000000000E+00  0.45593999997E+02  0.45594000000E+02  0.51100000000E-03 0. -1.
         11   -1    0    0    0    0 -0.00000000000E+00 -0.00000000000E+00 -0.45593999997E+02  0.45594000000E+02  0.51100000000E-03 0.  1.
    9900012    2    1    2    0    0 -0.16509267457E+01 -0.17829704464E+02 -0.54814942320E+01  0.72461796450E+02  0.70000294609E+02 0.  0.
        -12    1    1    2    0    0  0.16509267457E+01  0.17829704464E+02  0.54814942320E+01  0.18726203550E+02  0.00000000000E+00 0.  1.
         11    1    3    3    0    0 -0.70010283921E+01 -0.15483779353E+02 -0.31210318954E+01  0.17277229579E+02  0.51100000000E-03 0. -1.
        -11    1    3    3    0    0 -0.24137474828E+02  0.43920318488E+01 -0.41577454376E+01  0.24883618752E+02  0.51100000000E-03 0.  1.
         12    1    3    3    0    0  0.29487576474E+02 -0.67379569602E+01  0.17972831010E+01  0.30300948118E+02  0.00000000000E+00 0. -1.
</event>
<event>
 7    1  0.2656097E-013  0.7246157E+02  0.7816164E-02  0.1226708E+00
        -11   -1    0    0    0    0  0.00000000000E+00  0.00000000000E+00  0.45593999997E+02  0.45594000000E+02  0.51100000000E-03 0. -1.
         11   -1    0    0    0    0 -0.00000000000E+00 -0.00000000000E+00 -0.45593999997E+02  0.45594000000E+02  0.51100000000E-03 0.  1.
    9900012    2    1    2    0    0  0.92163951815E+01 -0.80745078377E+01  0.14161198889E+02  0.72461570257E+02  0.69999999951E+02 0.  0.
        -12    1    1    2    0    0 -0.92163951815E+01  0.80745078377E+01 -0.14161198889E+02  0.18726429743E+02  0.00000000000E+00 0.  1.
         11    1    3    3    0    0  0.17719763146E+02  0.94571646800E+01  0.19249184563E+02  0.27820119991E+02  0.51100000000E-03 0. -1.
        -11    1    3    3    0    0  0.78865646581E+01  0.29731906046E+01  0.10996698530E+02  0.13855148620E+02  0.51100000000E-03 0.  1.
        -12    1    3    3    0    0 -0.16389932622E+02 -0.20504863122E+02 -0.16084684204E+02  0.30786301645E+02  0.00000000000E+00 0.  1.
</event>
<event>
 7    1  0.2656097E-013  0.7246156E+02  0.7816164E-02  0.1226708E+00
        -11   -1    0    0    0    0  0.00000000000E+00  0.00000000000E+00  0.45593999997E+02  0.45594000000E+02  0.51100000000E-03 0. -1.
         11   -1    0    0    0    0 -0.00000000000E+00 -0.00000000000E+00 -0.45593999997E+02  0.45594000000E+02  0.51100000000E-03 0.  1.
    9900012    2    1    2    0    0 -0.16004640555E+01  0.92045818636E+01  0.16229404867E+02  0.72461564279E+02  0.69999992164E+02 0.  0.
        -12    1    1    2    0    0  0.16004640555E+01 -0.92045818636E+01 -0.16229404867E+02  0.18726435721E+02  0.00000000000E+00 0.  1.
         11    1    3    3    0    0  0.77344810999E+00  0.15253772908E+02  0.25850924297E+01  0.15490594341E+02  0.51100000000E-03 0. -1.
        -11    1    3    3    0    0 -0.73853795874E+01  0.86866667513E+01 -0.18228527148E+02  0.21500725875E+02  0.51100000000E-03 0.  1.
         12    1    3    3    0    0  0.50114674220E+01 -0.14735857796E+02  0.31872839585E+02  0.35470244063E+02  0.00000000000E+00 0. -1.
</event>
<event>
 7    1  0.2656097E-013  0.7246146E+02  0.7816164E-02  0.1226708E+00
        -11   -1    0    0    0    0  0.00000000000E+00  0.00000000000E+00  0.45593999997E+02  0.45594000000E+02  0.51100000000E-03 0. -1.
         11   -1    0    0    0    0 -0.00000000000E+00 -0.00000000000E+00 -0.45593999997E+02  0.45594000000E+02  0.51100000000E-03 0.  1.
    9900012    2    1    2    0    0 -0.10174204754E+02 -0.12773658254E+02  0.91652938554E+01  0.72461457366E+02  0.69999852890E+02 0.  0.
        -12    1    1    2    0    0  0.10174204754E+02  0.12773658254E+02 -0.91652938554E+01  0.18726542634E+02  0.00000000000E+00 0.  1.
         11    1    3    3    0    0 -0.23682061285E+02  0.61459949362E+01  0.64224351493E+01  0.25295472994E+02  0.51100000000E-03 0. -1.
        -11    1    3    3    0    0 -0.13357542384E+02 -0.70610052082E+01 -0.64011453110E+01  0.16409033934E+02  0.51100000000E-03 0.  1.
        -12    1    3    3    0    0  0.26865398915E+02 -0.11858647982E+02  0.91440040172E+01  0.30756950439E+02  0.00000000000E+00 0.  1.
</event>
<event>
 7    1  0.2656097E-013  0.7246154E+02  0.7816164E-02  0.1226708E+00
        -11   -1    0    0    0    0  0.00000000000E+00  0.00000000000E+00  0.45593999997E+02  0.45594000000E+02  0.51100000000E-03 0.  1.
         11   -1    0    0    0    0 -0.00000000000E+00 -0.00000000000E+00 -0.45593999997E+02  0.45594000000E+02  0.51100000000E-03 0. -1.
    9900012    2    1    2    0    0  0.69123824340E+01 -0.60247653292E+01 -0.16327940712E+02  0.72461535409E+02  0.69999954556E+02 0.  0.
        -12    1    1    2    0    0 -0.69123824340E+01  0.60247653292E+01  0.16327940712E+02  0.18726464591E+02  0.00000000000E+00 0.  1.
         11    1    3    3    0    0 -0.66775786352E+01 -0.12203729725E+02 -0.14950042727E+02  0.20421186387E+02  0.51100000000E-03 0. -1.
        -11    1    3    3    0    0  0.23863419731E+02 -0.75807845528E+01  0.14260348607E+02  0.28814729538E+02  0.51100000000E-03 0.  1.
        -12    1    3    3    0    0 -0.10273458661E+02  0.13759748949E+02 -0.15638246591E+02  0.23225619485E+02  0.00000000000E+00 0.  1.
</event>
<event>
 7    1  0.2656097E-013  0.7246136E+02  0.7816164E-02  0.1226709E+00
        -11   -1    0    0    0    0  0.00000000000E+00  0.00000000000E+00  0.45593999997E+02  0.45594000000E+02  0.51100000000E-03 0.  1.
         11   -1    0    0    0    0 -0.00000000000E+00 -0.00000000000E+00 -0.45593999997E+02  0.45594000000E+02  0.51100000000E-03 0. -1.
    9900012    2    1    2    0    0  0.54757016839E+01 -0.16670648352E+02 -0.65416577046E+01  0.72461358258E+02  0.69999723783E+02 0.  0.
        -12    1    1    2    0    0 -0.54757016839E+01  0.16670648352E+02  0.65416577046E+01  0.18726641742E+02  0.00000000000E+00 0.  1.
         11    1    3    3    0    0  0.18296964040E+01 -0.12534829235E+00 -0.25150570758E+02  0.25217349402E+02  0.51100000000E-03 0. -1.
        -11    1    3    3    0    0 -0.12260839747E+02  0.67998631593E+00 -0.56404624669E+01  0.13513156175E+02  0.51100000000E-03 0.  1.
        -12    1    3    3    0    0  0.15906845027E+02 -0.17225286376E+02  0.24249375521E+02  0.33730852681E+02  0.00000000000E+00 0.  1.
</event>
<event>
 7    1  0.2656097E-013  0.7246160E+02  0.7816164E-02  0.1226708E+00
        -11   -1    0    0    0    0  0.00000000000E+00  0.00000000000E+00  0.45593999997E+02  0.45594000000E+02  0.51100000000E-03 0. -1.
         11   -1    0    0    0    0 -0.00000000000E+00 -0.00000000000E+00 -0.45593999997E+02  0.45594000000E+02  0.51100000000E-03 0.  1.
    9900012    2    1    2    0    0  0.33217365595E+01 -0.42403267467E+01  0.17934984136E+02  0.72461602571E+02  0.70000042047E+02 0.  0.
        -12    1    1    2    0    0 -0.33217365595E+01  0.42403267467E+01 -0.17934984136E+02  0.18726397429E+02  0.00000000000E+00 0.  1.
         11    1    3    3    0    0  0.21436867945E+01  0.18327365066E+02  0.50570039719E+01  0.19132720475E+02  0.51100000000E-03 0. -1.
        -11    1    3    3    0    0  0.18612417237E+02 -0.67838240692E+01 -0.84906236046E+01  0.21553028415E+02  0.51100000000E-03 0.  1.
        -12    1    3    3    0    0 -0.17434367472E+02 -0.15783867744E+02  0.21368603769E+02  0.31775853681E+02  0.00000000000E+00 0.  1.
</event>
<event>
 7    1  0.2656097E-013  0.7246157E+02  0.7816164E-02  0.1226708E+00
        -11   -1    0    0    0    0  0.00000000000E+00  0.00000000000E+00  0.45593999997E+02  0.45594000000E+02  0.51100000000E-03 0. -1.
         11   -1    0    0    0    0 -0.00000000000E+00 -0.00000000000E+00 -0.45593999997E+02  0.45594000000E+02  0.51100000000E-03 0.  1.
    9900012    2    1    2    0    0  0.15892686387E+02  0.88200859276E+01 -0.45064201682E+01  0.72461568971E+02  0.69999998276E+02 0.  0.
        -12    1    1    2    0    0 -0.15892686387E+02 -0.88200859276E+01  0.45064201682E+01  0.18726431029E+02  0.00000000000E+00 0.  1.
         11    1    3    3    0    0  0.19013443432E+02 -0.19121507072E+02 -0.53211351050E+01  0.27485587913E+02  0.51100000000E-03 0.  1.
        -11    1    3    3    0    0  0.73488902243E+01  0.18681436838E+02  0.15001169036E+02  0.25060673227E+02  0.51100000000E-03 0. -1.
        -12    1    3    3    0    0 -0.10469647270E+02  0.92601561616E+01 -0.14186454099E+02  0.19915307831E+02  0.00000000000E+00 0.  1.
</event>
<event>
 7    1  0.2656097E-013  0.7246155E+02  0.7816164E-02  0.1226708E+00
        -11   -1    0    0    0    0  0.00000000000E+00  0.00000000000E+00  0.45593999997E+02  0.45594000000E+02  0.51100000000E-03 0. -1.
         11   -1    0    0    0    0 -0.00000000000E+00 -0.00000000000E+00 -0.45593999997E+02  0.45594000000E+02  0.51100000000E-03 0.  1.
    9900012    2    1    2    0    0 -0.11932627739E+02  0.58848774917E+01  0.13178031881E+02  0.72461550468E+02  0.69999974172E+02 0.  0.
        -12    1    1    2    0    0  0.11932627739E+02 -0.58848774917E+01 -0.13178031881E+02  0.18726449532E+02  0.00000000000E+00 0.  1.
         11    1    3    3    0    0  0.66896944299E+01  0.19127998384E+02  0.48061208263E+01  0.20826212603E+02  0.51100000000E-03 0. -1.
        -11    1    3    3    0    0  0.10782915528E-01  0.93880003918E+01  0.18396811151E+02  0.20653748532E+02  0.51100000000E-03 0.  1.
        -12    1    3    3    0    0 -0.18633105084E+02 -0.22631121284E+02 -0.10024900096E+02  0.30981589333E+02  0.00000000000E+00 0.  1.
</event>
<event>
 7    1  0.2656097E-013  0.7246157E+02  0.7816164E-02  0.1226708E+00
        -11   -1    0    0    0    0  0.00000000000E+00  0.00000000000E+00  0.45593999997E+02  0.45594000000E+02  0.51100000000E-03 0.  1.
         11   -1    0    0    0    0 -0.00000000000E+00 -0.00000000000E+00 -0.45593999997E+02  0.45594000000E+02  0.51100000000E-03 0. -1.
    9900012    2    1    2    0    0  0.58137109988E+01 -0.33354843739E+01 -0.17485840371E+02  0.72461566675E+02  0.69999995286E+02 0.  0.
        -12    1    1    2    0    0 -0.58137109988E+01  0.33354843739E+01  0.17485840371E+02  0.18726433325E+02  0.00000000000E+00 0.  1.
         11    1    3    3    0    0  0.66629825406E+01  0.17777552649E+02 -0.68631538276E+01  0.20187609944E+02  0.51100000000E-03 0. -1.
        -11    1    3    3    0    0 -0.11029043650E+02  0.15397753757E+01  0.13603167655E+02  0.17580013725E+02  0.51100000000E-03 0.  1.
         12    1    3    3    0    0  0.10179772109E+02 -0.22652812398E+02 -0.24225854198E+02  0.34693943007E+02  0.00000000000E+00 0. -1.
</event>
<event>
 7    1  0.2656097E-013  0.7246161E+02  0.7816164E-02  0.1226708E+00
        -11   -1    0    0    0    0  0.00000000000E+00  0.00000000000E+00  0.45593999997E+02  0.45594000000E+02  0.51100000000E-03 0.  1.
         11   -1    0    0    0    0 -0.00000000000E+00 -0.00000000000E+00 -0.45593999997E+02  0.45594000000E+02  0.51100000000E-03 0. -1.
    9900012    2    1    2    0    0  0.34938890973E+01  0.13604025120E+02 -0.12385513312E+02  0.72461609518E+02  0.70000051095E+02 0.  0.
        -12    1    1    2    0    0 -0.34938890973E+01 -0.13604025120E+02  0.12385513312E+02  0.18726390482E+02  0.00000000000E+00 0.  1.
         11    1    3    3    0    0 -0.44841721282E+01  0.21945163593E+01  0.10251826588E+02  0.11402791341E+02  0.51100000000E-03 0. -1.
        -11    1    3    3    0    0 -0.10083353431E+02 -0.18893968927E+02 -0.91975738376E+01  0.23307754997E+02  0.51100000000E-03 0.  1.
         12    1    3    3    0    0  0.18061414657E+02  0.30303477687E+02 -0.13439766063E+02  0.37751063179E+02  0.00000000000E+00 0. -1.
</event>
<event>
 7    1  0.2656097E-013  0.7246156E+02  0.7816164E-02  0.1226708E+00
        -11   -1    0    0    0    0  0.00000000000E+00  0.00000000000E+00  0.45593999997E+02  0.45594000000E+02  0.51100000000E-03 0.  1.
         11   -1    0    0    0    0 -0.00000000000E+00 -0.00000000000E+00 -0.45593999997E+02  0.45594000000E+02  0.51100000000E-03 0. -1.
    9900012    2    1    2    0    0  0.13295238713E+02  0.80412659445E+01 -0.10452481332E+02  0.72461556226E+02  0.69999981673E+02 0.  0.
        -12    1    1    2    0    0 -0.13295238713E+02 -0.80412659445E+01  0.10452481332E+02  0.18726443774E+02  0.00000000000E+00 0.  1.
         11    1    3    3    0    0  0.37806214771E+01  0.63669328479E+01 -0.12218480403E+02  0.14287133941E+02  0.51100000000E-03 0. -1.
        -11    1    3    3    0    0 -0.17189281447E+02  0.25418117430E+01 -0.17939897214E+02  0.24975430245E+02  0.51100000000E-03 0.  1.
         12    1    3    3    0    0  0.26703898683E+02 -0.86747864648E+00  0.19705896284E+02  0.33198992040E+02  0.00000000000E+00 0. -1.
</event>
<event>
 7    1  0.2656097E-013  0.7246158E+02  0.7816164E-02  0.1226708E+00
        -11   -1    0    0    0    0  0.00000000000E+00  0.00000000000E+00  0.45593999997E+02  0.45594000000E+02  0.51100000000E-03 0. -1.
         11   -1    0    0    0    0 -0.00000000000E+00 -0.00000000000E+00 -0.45593999997E+02  0.45594000000E+02  0.51100000000E-03 0.  1.
    9900012    2    1    2    0    0  0.15739216887E+02  0.53676504083E+01  0.86107103079E+01  0.72461576125E+02  0.70000007596E+02 0.  0.
        -12    1    1    2    0    0 -0.15739216887E+02 -0.53676504083E+01 -0.86107103079E+01  0.18726423875E+02  0.00000000000E+00 0.  1.
         11    1    3    3    0    0 -0.50982145018E+01 -0.88603750111E+01 -0.42824420408E+01  0.11083201096E+02  0.51100000000E-03 0. -1.
        -11    1    3    3    0    0 -0.15276600757E+02 -0.61312470609E+01 -0.34449215246E+01  0.16817675398E+02  0.51100000000E-03 0.  1.
         12    1    3    3    0    0  0.36114032146E+02  0.20359272480E+02  0.16338073873E+02  0.44560699632E+02  0.00000000000E+00 0. -1.
</event>
<event>
 7    1  0.2656097E-013  0.7246139E+02  0.7816164E-02  0.1226708E+00
        -11   -1    0    0    0    0  0.00000000000E+00  0.00000000000E+00  0.45593999997E+02  0.45594000000E+02  0.51100000000E-03 0.  1.
         11   -1    0    0    0    0 -0.00000000000E+00 -0.00000000000E+00 -0.45593999997E+02  0.45594000000E+02  0.51100000000E-03 0. -1.
    9900012    2    1    2    0    0 -0.17505007537E+02 -0.45762271510E+01 -0.48289512918E+01  0.72461390206E+02  0.69999765401E+02 0.  0.
        -12    1    1    2    0    0  0.17505007537E+02  0.45762271510E+01  0.48289512918E+01  0.18726609794E+02  0.00000000000E+00 0.  1.
         11    1    3    3    0    0 -0.22591946550E+02  0.40219251400E+01  0.57473806214E+01  0.23655957284E+02  0.51100000000E-03 0. -1.
        -11    1    3    3    0    0 -0.16631989437E+02  0.63011477918E+01  0.46490586315E+01  0.18383179337E+02  0.51100000000E-03 0.  1.
        -12    1    3    3    0    0  0.21718928449E+02 -0.14899300083E+02 -0.15225390545E+02  0.30422253585E+02  0.00000000000E+00 0.  1.
</event>
<event>
 7    1  0.2656097E-013  0.7246160E+02  0.7816164E-02  0.1226708E+00
        -11   -1    0    0    0    0  0.00000000000E+00  0.00000000000E+00  0.45593999997E+02  0.45594000000E+02  0.51100000000E-03 0.  1.
         11   -1    0    0    0    0 -0.00000000000E+00 -0.00000000000E+00 -0.45593999997E+02  0.45594000000E+02  0.51100000000E-03 0. -1.
    9900012    2    1    2    0    0  0.62082228024E+01  0.17662867752E+02 -0.39911356841E+00  0.72461595667E+02  0.70000033053E+02 0.  0.
        -12    1    1    2    0    0 -0.62082228024E+01 -0.17662867752E+02  0.39911356841E+00  0.18726404333E+02  0.00000000000E+00 0.  1.
         11    1    3    3    0    0  0.89176707550E+01 -0.35898915752E+01 -0.20449934006E+02  0.22596724858E+02  0.51100000000E-03 0. -1.
        -11    1    3    3    0    0  0.17345769671E+02  0.16332728298E+01  0.55632132476E+01  0.18289140153E+02  0.51100000000E-03 0.  1.
        -12    1    3    3    0    0 -0.20055217624E+02  0.19619486498E+02  0.14487607190E+02  0.31575730656E+02  0.00000000000E+00 0.  1.
</event>
<event>
 7    1  0.2656097E-013  0.7246151E+02  0.7816164E-02  0.1226708E+00
        -11   -1    0    0    0    0  0.00000000000E+00  0.00000000000E+00  0.45593999997E+02  0.45594000000E+02  0.51100000000E-03 0. -1.
         11   -1    0    0    0    0 -0.00000000000E+00 -0.00000000000E+00 -0.45593999997E+02  0.45594000000E+02  0.51100000000E-03 0.  1.
    9900012    2    1    2    0    0  0.17971895533E+02 -0.35324399011E+01 -0.39005609587E+01  0.72461507095E+02  0.69999917671E+02 0.  0.
        -12    1    1    2    0    0 -0.17971895533E+02  0.35324399011E+01  0.39005609587E+01  0.18726492905E+02  0.00000000000E+00 0.  1.
         11    1    3    3    0    0  0.71301218134E+01 -0.14868831187E+02 -0.11957823149E+02  0.20369347379E+02  0.51100000000E-03 0. -1.
        -11    1    3    3    0    0 -0.96482688942E+01 -0.13388431446E+02 -0.52714252057E+01  0.17324177129E+02  0.51100000000E-03 0.  1.
        -12    1    3    3    0    0  0.20490042614E+02  0.24724822732E+02  0.13328687396E+02  0.34767982587E+02  0.00000000000E+00 0.  1.
</event>
<event>
 7    1  0.2656097E-013  0.7246157E+02  0.7816164E-02  0.1226708E+00
        -11   -1    0    0    0    0  0.00000000000E+00  0.00000000000E+00  0.45593999997E+02  0.45594000000E+02  0.51100000000E-03 0.  1.
         11   -1    0    0    0    0 -0.00000000000E+00 -0.00000000000E+00 -0.45593999997E+02  0.45594000000E+02  0.51100000000E-03 0. -1.
    9900012    2    1    2    0    0  0.17530324304E+01  0.17318939796E+02  0.69036496627E+01  0.72461570094E+02  0.69999999739E+02 0.  0.
        -12    1    1    2    0    0 -0.17530324304E+01 -0.17318939796E+02 -0.69036496627E+01  0.18726429906E+02  0.00000000000E+00 0.  1.
         11    1    3    3    0    0 -0.19875704461E+02  0.14319691643E+02 -0.14923095008E+01  0.24542293791E+02  0.51100000000E-03 0. -1.
        -11    1    3    3    0    0  0.10132228818E+02  0.12472804745E+01 -0.17089175635E+02  0.19906222483E+02  0.51100000000E-03 0.  1.
        -12    1    3    3    0    0  0.11496508074E+02  0.17519676780E+01  0.25485134799E+02  0.28013053821E+02  0.00000000000E+00 0.  1.
</event>
<event>
 7    1  0.2656097E-013  0.7246158E+02  0.7816164E-02  0.1226708E+00
        -11   -1    0    0    0    0  0.00000000000E+00  0.00000000000E+00  0.45593999997E+02  0.45594000000E+02  0.51100000000E-03 0. -1.
         11   -1    0    0    0    0 -0.00000000000E+00 -0.00000000000E+00 -0.45593999997E+02  0.45594000000E+02  0.51100000000E-03 0.  1.
    9900012    2    1    2    0    0 -0.16240872872E+02 -0.82743604298E+01  0.42950815062E+01  0.72461582369E+02  0.70000015729E+02 0.  0.
        -12    1    1    2    0    0  0.16240872872E+02  0.82743604298E+01 -0.42950815062E+01  0.18726417631E+02  0.00000000000E+00 0.  1.
         11    1    3    3    0    0 -0.15774880676E+01 -0.59124828697E+01 -0.14561945037E+02  0.15795447629E+02  0.51100000000E-03 0. -1.
        -11    1    3    3    0    0  0.27526635632E+01  0.10503164354E+02 -0.13752849034E+02  0.17522399235E+02  0.51100000000E-03 0.  1.
         12    1    3    3    0    0 -0.17416048367E+02 -0.12865041914E+02  0.32609875576E+02  0.39143735505E+02  0.00000000000E+00 0. -1.
</event>
<event>
 7    1  0.2656097E-013  0.7246152E+02  0.7816164E-02  0.1226708E+00
        -11   -1    0    0    0    0  0.00000000000E+00  0.00000000000E+00  0.45593999997E+02  0.45594000000E+02  0.51100000000E-03 0.  1.
         11   -1    0    0    0    0 -0.00000000000E+00 -0.00000000000E+00 -0.45593999997E+02  0.45594000000E+02  0.51100000000E-03 0. -1.
    9900012    2    1    2    0    0 -0.15495140711E+02  0.23013445772E+01 -0.10260867697E+02  0.72461521997E+02  0.69999937084E+02 0.  0.
        -12    1    1    2    0    0  0.15495140711E+02 -0.23013445772E+01  0.10260867697E+02  0.18726478003E+02  0.00000000000E+00 0.  1.
         11    1    3    3    0    0 -0.29041759051E+02 -0.24331565667E+02 -0.77817627079E+01  0.38678219810E+02  0.51100000000E-03 0.  1.
        -11    1    3    3    0    0  0.16024684075E+00  0.16607602930E+02  0.12258349941E+01  0.16653552949E+02  0.51100000000E-03 0. -1.
        -12    1    3    3    0    0  0.13386371499E+02  0.10025307314E+02 -0.37049399829E+01  0.17129749237E+02  0.00000000000E+00 0.  1.
</event>
<event>
 7    1  0.2656097E-013  0.7246168E+02  0.7816164E-02  0.1226708E+00
        -11   -1    0    0    0    0  0.00000000000E+00  0.00000000000E+00  0.45593999997E+02  0.45594000000E+02  0.51100000000E-03 0.  1.
         11   -1    0    0    0    0 -0.00000000000E+00 -0.00000000000E+00 -0.45593999997E+02  0.45594000000E+02  0.51100000000E-03 0. -1.
    9900012    2    1    2    0    0 -0.17481634001E+02 -0.66510855626E+01  0.91144210047E+00  0.72461676463E+02  0.70000138305E+02 0.  0.
        -12    1    1    2    0    0  0.17481634001E+02  0.66510855626E+01 -0.91144210047E+00  0.18726323537E+02  0.00000000000E+00 0.  1.
         11    1    3    3    0    0 -0.22859244065E+02 -0.43794499415E+01  0.24391032874E+02  0.33714197394E+02  0.51100000000E-03 0. -1.
        -11    1    3    3    0    0  0.84242074991E+01 -0.46940628728E+01  0.43981687243E+01  0.10599310668E+02  0.51100000000E-03 0.  1.
         12    1    3    3    0    0 -0.30465974349E+01  0.24224272517E+01 -0.27877759498E+02  0.28148168401E+02  0.00000000000E+00 0. -1.
</event>
<event>
 7    1  0.2656097E-013  0.7246161E+02  0.7816164E-02  0.1226708E+00
        -11   -1    0    0    0    0  0.00000000000E+00  0.00000000000E+00  0.45593999997E+02  0.45594000000E+02  0.51100000000E-03 0.  1.
         11   -1    0    0    0    0 -0.00000000000E+00 -0.00000000000E+00 -0.45593999997E+02  0.45594000000E+02  0.51100000000E-03 0. -1.
    9900012    2    1    2    0    0 -0.43148028236E+01  0.13518948288E+02 -0.12218769809E+02  0.72461606277E+02  0.70000046874E+02 0.  0.
        -12    1    1    2    0    0  0.43148028236E+01 -0.13518948288E+02  0.12218769809E+02  0.18726393723E+02  0.00000000000E+00 0.  1.
         11    1    3    3    0    0  0.66864655719E+01 -0.44291374122E+01 -0.11033111374E+02  0.13640220926E+02  0.51100000000E-03 0. -1.
        -11    1    3    3    0    0  0.18288610170E+02  0.30204170657E+01 -0.14316689292E+02  0.23421438336E+02  0.51100000000E-03 0.  1.
         12    1    3    3    0    0 -0.29289878566E+02  0.14927668634E+02  0.13131030857E+02  0.35399947014E+02  0.00000000000E+00 0. -1.
</event>
<event>
 7    1  0.2656097E-013  0.7246144E+02  0.7816164E-02  0.1226708E+00
        -11   -1    0    0    0    0  0.00000000000E+00  0.00000000000E+00  0.45593999997E+02  0.45594000000E+02  0.51100000000E-03 0.  1.
         11   -1    0    0    0    0 -0.00000000000E+00 -0.00000000000E+00 -0.45593999997E+02  0.45594000000E+02  0.51100000000E-03 0. -1.
    9900012    2    1    2    0    0  0.57652986563E+01 -0.17790073709E+02  0.97911867909E+00  0.72461439597E+02  0.69999829742E+02 0.  0.
        -12    1    1    2    0    0 -0.57652986563E+01  0.17790073709E+02 -0.97911867909E+00  0.18726560403E+02  0.00000000000E+00 0.  1.
         11    1    3    3    0    0  0.84250705832E+01 -0.48348517463E+01  0.13208200483E+02  0.16395553239E+02  0.51100000000E-03 0. -1.
        -11    1    3    3    0    0 -0.12063995988E+02  0.18362735517E+02 -0.37974963849E+01  0.22296883951E+02  0.51100000000E-03 0.  1.
         12    1    3    3    0    0  0.94042240611E+01 -0.31317957480E+02 -0.84315854189E+01  0.33769002407E+02  0.00000000000E+00 0. -1.
</event>
<event>
 7    1  0.2656097E-013  0.7246153E+02  0.7816164E-02  0.1226708E+00
        -11   -1    0    0    0    0  0.00000000000E+00  0.00000000000E+00  0.45593999997E+02  0.45594000000E+02  0.51100000000E-03 0. -1.
         11   -1    0    0    0    0 -0.00000000000E+00 -0.00000000000E+00 -0.45593999997E+02  0.45594000000E+02  0.51100000000E-03 0.  1.
    9900012    2    1    2    0    0 -0.81338437697E+01  0.35635807442E+01  0.16487035421E+02  0.72461525181E+02  0.69999941231E+02 0.  0.
        -12    1    1    2    0    0  0.81338437697E+01 -0.35635807442E+01 -0.16487035421E+02  0.18726474819E+02  0.00000000000E+00 0.  1.
         11    1    3    3    0    0 -0.32519875994E+02  0.17558518456E+02  0.28716680007E+01  0.37068725126E+02  0.51100000000E-03 0. -1.
        -11    1    3    3    0    0  0.39254526443E+01  0.34494934465E+01 -0.62586186673E-01  0.52260980465E+01  0.51100000000E-03 0.  1.
        -12    1    3    3    0    0  0.20460579580E+02 -0.17444431159E+02  0.13677953607E+02  0.30166702009E+02  0.00000000000E+00 0.  1.
</event>
<event>
 7    1  0.2656097E-013  0.7246155E+02  0.7816164E-02  0.1226708E+00
        -11   -1    0    0    0    0  0.00000000000E+00  0.00000000000E+00  0.45593999997E+02  0.45594000000E+02  0.51100000000E-03 0. -1.
         11   -1    0    0    0    0 -0.00000000000E+00 -0.00000000000E+00 -0.45593999997E+02  0.45594000000E+02  0.51100000000E-03 0.  1.
    9900012    2    1    2    0    0  0.18166837368E+01 -0.85466580251E+00  0.18618510976E+02  0.72461554945E+02  0.69999980005E+02 0.  0.
        -12    1    1    2    0    0 -0.18166837368E+01  0.85466580251E+00 -0.18618510976E+02  0.18726445055E+02  0.00000000000E+00 0.  1.
         11    1    3    3    0    0  0.53606397016E+01 -0.44569685325E+01 -0.11704142178E+02  0.13623067602E+02  0.51100000000E-03 0. -1.
        -11    1    3    3    0    0 -0.14245932892E+01  0.32525175930E+01 -0.14010433127E+02  0.14453393145E+02  0.51100000000E-03 0.  1.
         12    1    3    3    0    0 -0.21193626756E+01  0.34978513700E+00  0.44333086281E+02  0.44385094198E+02  0.00000000000E+00 0. -1.
</event>
<event>
 7    1  0.2656097E-013  0.7246166E+02  0.7816164E-02  0.1226708E+00
        -11   -1    0    0    0    0  0.00000000000E+00  0.00000000000E+00  0.45593999997E+02  0.45594000000E+02  0.51100000000E-03 0.  1.
         11   -1    0    0    0    0 -0.00000000000E+00 -0.00000000000E+00 -0.45593999997E+02  0.45594000000E+02  0.51100000000E-03 0. -1.
    9900012    2    1    2    0    0 -0.80082139311E+01 -0.71259160994E+01 -0.15354659010E+02  0.72461662292E+02  0.70000119844E+02 0.  0.
        -12    1    1    2    0    0  0.80082139311E+01  0.71259160994E+01  0.15354659010E+02  0.18726337708E+02  0.00000000000E+00 0.  1.
         11    1    3    3    0    0  0.15499734423E+02 -0.37755509028E+01  0.16822708163E+02  0.23184047576E+02  0.51100000000E-03 0.  1.
        -11    1    3    3    0    0 -0.46887446704E+01 -0.11055970531E+02 -0.99505480556E+00  0.12050267436E+02  0.51100000000E-03 0. -1.
        -12    1    3    3    0    0 -0.18819203684E+02  0.77056053341E+01 -0.31182312368E+02  0.37227347280E+02  0.00000000000E+00 0.  1.
</event>
<event>
 7    1  0.2656097E-013  0.7246166E+02  0.7816164E-02  0.1226708E+00
        -11   -1    0    0    0    0  0.00000000000E+00  0.00000000000E+00  0.45593999997E+02  0.45594000000E+02  0.51100000000E-03 0. -1.
         11   -1    0    0    0    0 -0.00000000000E+00 -0.00000000000E+00 -0.45593999997E+02  0.45594000000E+02  0.51100000000E-03 0.  1.
    9900012    2    1    2    0    0 -0.77271823851E+00 -0.17850182688E+02  0.56080061114E+01  0.72461658979E+02  0.70000115528E+02 0.  0.
        -12    1    1    2    0    0  0.77271823851E+00  0.17850182688E+02 -0.56080061114E+01  0.18726341021E+02  0.00000000000E+00 0.  1.
         11    1    3    3    0    0  0.65817269387E+01 -0.23784221268E+02 -0.20959128573E+01  0.24766936868E+02  0.51100000000E-03 0.  1.
        -11    1    3    3    0    0 -0.10379203244E+02  0.27597738470E+01 -0.18356797414E+02  0.21267727270E+02  0.51100000000E-03 0. -1.
         12    1    3    3    0    0  0.30247580672E+01  0.31742647331E+01  0.26060716383E+02  0.26426994841E+02  0.00000000000E+00 0. -1.
</event>
<event>
 7    1  0.2656097E-013  0.7246156E+02  0.7816164E-02  0.1226708E+00
        -11   -1    0    0    0    0  0.00000000000E+00  0.00000000000E+00  0.45593999997E+02  0.45594000000E+02  0.51100000000E-03 0.  1.
         11   -1    0    0    0    0 -0.00000000000E+00 -0.00000000000E+00 -0.45593999997E+02  0.45594000000E+02  0.51100000000E-03 0. -1.
    9900012    2    1    2    0    0 -0.83354722758E+01  0.47145893640E+01 -0.16092606471E+02  0.72461563234E+02  0.69999990802E+02 0.  0.
        -12    1    1    2    0    0  0.83354722758E+01 -0.47145893640E+01  0.16092606471E+02  0.18726436766E+02  0.00000000000E+00 0.  1.
         11    1    3    3    0    0  0.15072710648E+01  0.16183088095E+02 -0.15461685176E+02  0.22432742033E+02  0.51100000000E-03 0. -1.
        -11    1    3    3    0    0 -0.20933706638E+02  0.82258273718E+01 -0.11143600141E+02  0.25101078342E+02  0.51100000000E-03 0.  1.
        -12    1    3    3    0    0  0.11090963298E+02 -0.19694326103E+02  0.10512678846E+02  0.24927742859E+02  0.00000000000E+00 0.  1.
</event>
<event>
 7    1  0.2656097E-013  0.7246156E+02  0.7816164E-02  0.1226708E+00
        -11   -1    0    0    0    0  0.00000000000E+00  0.00000000000E+00  0.45593999997E+02  0.45594000000E+02  0.51100000000E-03 0.  1.
         11   -1    0    0    0    0 -0.00000000000E+00 -0.00000000000E+00 -0.45593999997E+02  0.45594000000E+02  0.51100000000E-03 0. -1.
    9900012    2    1    2    0    0  0.15309997671E+02 -0.79935981334E+01 -0.72378026918E+01  0.72461563403E+02  0.69999991023E+02 0.  0.
        -12    1    1    2    0    0 -0.15309997671E+02  0.79935981334E+01  0.72378026918E+01  0.18726436597E+02  0.00000000000E+00 0.  1.
         11    1    3    3    0    0  0.30437197468E+02 -0.19834102217E+01 -0.16564989597E+02  0.34709592139E+02  0.51100000000E-03 0. -1.
        -11    1    3    3    0    0  0.10485763783E+01  0.11702504889E+02  0.69403425494E+01  0.13646116226E+02  0.51100000000E-03 0.  1.
        -12    1    3    3    0    0 -0.16175776176E+02 -0.17712692801E+02  0.23868443559E+01  0.24105855038E+02  0.00000000000E+00 0.  1.
</event>
<event>
 7    1  0.2656097E-013  0.7246157E+02  0.7816164E-02  0.1226708E+00
        -11   -1    0    0    0    0  0.00000000000E+00  0.00000000000E+00  0.45593999997E+02  0.45594000000E+02  0.51100000000E-03 0.  1.
         11   -1    0    0    0    0 -0.00000000000E+00 -0.00000000000E+00 -0.45593999997E+02  0.45594000000E+02  0.51100000000E-03 0. -1.
    9900012    2    1    2    0    0 -0.18671740765E+02 -0.33090040811E+00  0.13913068510E+01  0.72461571269E+02  0.70000001270E+02 0.  0.
        -12    1    1    2    0    0  0.18671740765E+02  0.33090040811E+00 -0.13913068510E+01  0.18726428731E+02  0.00000000000E+00 0.  1.
         11    1    3    3    0    0 -0.25465525201E+01 -0.14951342098E+02 -0.14756081215E+02  0.21160564581E+02  0.51100000000E-03 0. -1.
        -11    1    3    3    0    0 -0.22458475905E+02  0.68514692447E+01 -0.82797263945E+01  0.24897382196E+02  0.51100000000E-03 0.  1.
        -12    1    3    3    0    0  0.63332876603E+01  0.77689724455E+01  0.24427114461E+02  0.26403624492E+02  0.00000000000E+00 0.  1.
</event>
<event>
 7    1  0.2656097E-013  0.7246146E+02  0.7816164E-02  0.1226708E+00
        -11   -1    0    0    0    0  0.00000000000E+00  0.00000000000E+00  0.45593999997E+02  0.45594000000E+02  0.51100000000E-03 0.  1.
         11   -1    0    0    0    0 -0.00000000000E+00 -0.00000000000E+00 -0.45593999997E+02  0.45594000000E+02  0.51100000000E-03 0. -1.
    9900012    2    1    2    0    0 -0.13849218729E+01  0.17470705595E+02  0.65984552990E+01  0.72461463350E+02  0.69999860685E+02 0.  0.
        -12    1    1    2    0    0  0.13849218729E+01 -0.17470705595E+02 -0.65984552990E+01  0.18726536650E+02  0.00000000000E+00 0.  1.
         11    1    3    3    0    0 -0.87100180307E+01  0.14253273540E+01 -0.35652505642E+01  0.95187700891E+01  0.51100000000E-03 0. -1.
        -11    1    3    3    0    0 -0.99336573664E+01  0.29500249366E+02  0.21948255948E+02  0.38087638425E+02  0.51100000000E-03 0.  1.
         12    1    3    3    0    0  0.17258753524E+02 -0.13454871125E+02 -0.11784550085E+02  0.24855054836E+02  0.00000000000E+00 0. -1.
</event>
<event>
 7    1  0.2656097E-013  0.7246157E+02  0.7816164E-02  0.1226708E+00
        -11   -1    0    0    0    0  0.00000000000E+00  0.00000000000E+00  0.45593999997E+02  0.45594000000E+02  0.51100000000E-03 0. -1.
         11   -1    0    0    0    0 -0.00000000000E+00 -0.00000000000E+00 -0.45593999997E+02  0.45594000000E+02  0.51100000000E-03 0.  1.
    9900012    2    1    2    0    0 -0.35803964268E+00 -0.11908568720E+02  0.14447726967E+02  0.72461574397E+02  0.70000005345E+02 0.  0.
        -12    1    1    2    0    0  0.35803964268E+00  0.11908568720E+02 -0.14447726967E+02  0.18726425603E+02  0.00000000000E+00 0.  1.
         11    1    3    3    0    0 -0.13602393265E+02  0.14044629549E+02  0.23406368508E+01  0.19691503315E+02  0.51100000000E-03 0. -1.
        -11    1    3    3    0    0 -0.10620957110E+02  0.28224801688E+01 -0.44844069157E+01  0.11869331484E+02  0.51100000000E-03 0.  1.
         12    1    3    3    0    0  0.23865310732E+02 -0.28775678437E+02  0.16591497032E+02  0.40900739598E+02  0.00000000000E+00 0. -1.
</event>
<event>
 7    1  0.2656097E-013  0.7246153E+02  0.7816164E-02  0.1226708E+00
        -11   -1    0    0    0    0  0.00000000000E+00  0.00000000000E+00  0.45593999997E+02  0.45594000000E+02  0.51100000000E-03 0.  1.
         11   -1    0    0    0    0 -0.00000000000E+00 -0.00000000000E+00 -0.45593999997E+02  0.45594000000E+02  0.51100000000E-03 0. -1.
    9900012    2    1    2    0    0  0.94601733092E+01  0.57253855142E+01 -0.15113099804E+02  0.72461529323E+02  0.69999946627E+02 0.  0.
        -12    1    1    2    0    0 -0.94601733092E+01 -0.57253855142E+01  0.15113099804E+02  0.18726470677E+02  0.00000000000E+00 0.  1.
         11    1    3    3    0    0 -0.87696104656E+01 -0.76416269496E+01 -0.97741395553E+01  0.15193233180E+02  0.51100000000E-03 0. -1.
        -11    1    3    3    0    0 -0.11462397753E+02  0.18029367912E+02 -0.14531297368E+02  0.25838019913E+02  0.51100000000E-03 0.  1.
        -12    1    3    3    0    0  0.29692181528E+02 -0.46623554478E+01  0.91923371192E+01  0.31430276230E+02  0.00000000000E+00 0.  1.
</event>
<event>
 7    1  0.2656097E-013  0.7246155E+02  0.7816164E-02  0.1226708E+00
        -11   -1    0    0    0    0  0.00000000000E+00  0.00000000000E+00  0.45593999997E+02  0.45594000000E+02  0.51100000000E-03 0.  1.
         11   -1    0    0    0    0 -0.00000000000E+00 -0.00000000000E+00 -0.45593999997E+02  0.45594000000E+02  0.51100000000E-03 0. -1.
    9900012    2    1    2    0    0 -0.77915297494E+01  0.12645495420E+02 -0.11404530752E+02  0.72461553142E+02  0.69999977656E+02 0.  0.
        -12    1    1    2    0    0  0.77915297494E+01 -0.12645495420E+02  0.11404530752E+02  0.18726446858E+02  0.00000000000E+00 0.  1.
         11    1    3    3    0    0 -0.13304947236E+02  0.76274532850E+01  0.77603242995E+01  0.17187853213E+02  0.51100000000E-03 0. -1.
        -11    1    3    3    0    0 -0.90953916915E+01  0.43454570914E+01  0.15021789043E+02  0.18090419942E+02  0.51100000000E-03 0.  1.
         12    1    3    3    0    0  0.14608809178E+02  0.67258504342E+00 -0.34186644094E+02  0.37183279988E+02  0.00000000000E+00 0. -1.
</event>
<event>
 7    1  0.2656097E-013  0.7246157E+02  0.7816164E-02  0.1226708E+00
        -11   -1    0    0    0    0  0.00000000000E+00  0.00000000000E+00  0.45593999997E+02  0.45594000000E+02  0.51100000000E-03 0. -1.
         11   -1    0    0    0    0 -0.00000000000E+00 -0.00000000000E+00 -0.45593999997E+02  0.45594000000E+02  0.51100000000E-03 0.  1.
    9900012    2    1    2    0    0 -0.13664747252E+02 -0.11070333630E+02 -0.64343972037E+01  0.72461572911E+02  0.70000003409E+02 0.  0.
        -12    1    1    2    0    0  0.13664747252E+02  0.11070333630E+02  0.64343972037E+01  0.18726427089E+02  0.00000000000E+00 0.  1.
         11    1    3    3    0    0 -0.49529216558E+01 -0.72826846995E+01  0.10001818583E+02  0.13326864019E+02  0.51100000000E-03 0. -1.
        -11    1    3    3    0    0 -0.44071404936E+00 -0.13193988323E+01  0.20832810609E+02  0.20879201141E+02  0.51100000000E-03 0.  1.
        -12    1    3    3    0    0 -0.82711115470E+01 -0.24682500979E+01 -0.37269026396E+02  0.38255507751E+02  0.00000000000E+00 0.  1.
</event>
<event>
 7    1  0.2656097E-013  0.7246156E+02  0.7816164E-02  0.1226708E+00
        -11   -1    0    0    0    0  0.00000000000E+00  0.00000000000E+00  0.45593999997E+02  0.45594000000E+02  0.51100000000E-03 0. -1.
         11   -1    0    0    0    0 -0.00000000000E+00 -0.00000000000E+00 -0.45593999997E+02  0.45594000000E+02  0.51100000000E-03 0.  1.
    9900012    2    1    2    0    0 -0.15731110720E+02 -0.67566407215E+01  0.75867963630E+01  0.72461561007E+02  0.69999987901E+02 0.  0.
        -12    1    1    2    0    0  0.15731110720E+02  0.67566407215E+01 -0.75867963630E+01  0.18726438993E+02  0.00000000000E+00 0.  1.
         11    1    3    3    0    0 -0.22354559119E+02 -0.41339298809E+01 -0.33875396192E+01  0.22984584281E+02  0.51100000000E-03 0. -1.
        -11    1    3    3    0    0 -0.12508868969E+00 -0.98409096626E+01 -0.17091409946E+02  0.19722460403E+02  0.51100000000E-03 0.  1.
        -12    1    3    3    0    0  0.67485370886E+01  0.72181988219E+01  0.28065745928E+02  0.29754516322E+02  0.00000000000E+00 0.  1.
</event>
<event>
 7    1  0.2656097E-013  0.7246155E+02  0.7816164E-02  0.1226708E+00
        -11   -1    0    0    0    0  0.00000000000E+00  0.00000000000E+00  0.45593999997E+02  0.45594000000E+02  0.51100000000E-03 0.  1.
         11   -1    0    0    0    0 -0.00000000000E+00 -0.00000000000E+00 -0.45593999997E+02  0.45594000000E+02  0.51100000000E-03 0. -1.
    9900012    2    1    2    0    0  0.61598308291E+01  0.23576680199E+01 -0.17526485517E+02  0.72461553223E+02  0.69999977761E+02 0.  0.
        -12    1    1    2    0    0 -0.61598308291E+01 -0.23576680199E+01  0.17526485517E+02  0.18726446777E+02  0.00000000000E+00 0.  1.
         11    1    3    3    0    0 -0.22553185621E+02 -0.10467651695E+02 -0.32230654147E+01  0.25072017561E+02  0.51100000000E-03 0. -1.
        -11    1    3    3    0    0  0.10527190476E+02  0.63652501851E+01  0.10352734328E+02  0.16078471867E+02  0.51100000000E-03 0.  1.
        -12    1    3    3    0    0  0.18185825974E+02  0.64600695297E+01 -0.24656154430E+02  0.31311063795E+02  0.00000000000E+00 0.  1.
</event>
<event>
 7    1  0.2656097E-013  0.7246167E+02  0.7816164E-02  0.1226708E+00
        -11   -1    0    0    0    0  0.00000000000E+00  0.00000000000E+00  0.45593999997E+02  0.45594000000E+02  0.51100000000E-03 0. -1.
         11   -1    0    0    0    0 -0.00000000000E+00 -0.00000000000E+00 -0.45593999997E+02  0.45594000000E+02  0.51100000000E-03 0.  1.
    9900012    2    1    2    0    0  0.17103019242E+02  0.41122076872E+01 -0.64227636098E+01  0.72461670631E+02  0.70000130707E+02 0.  0.
        -12    1    1    2    0    0 -0.17103019242E+02 -0.41122076872E+01  0.64227636098E+01  0.18726329369E+02  0.00000000000E+00 0.  1.
         11    1    3    3    0    0  0.12985244034E+02 -0.25787341511E+02  0.63057826810E+01  0.29552773818E+02  0.51100000000E-03 0. -1.
        -11    1    3    3    0    0 -0.42610489611E+01 -0.41265192162E+01 -0.20361259795E+01  0.62714040179E+01  0.51100000000E-03 0.  1.
        -12    1    3    3    0    0  0.83788241684E+01  0.34026068415E+02 -0.10692420311E+02  0.36637492795E+02  0.00000000000E+00 0.  1.
</event>
<event>
 7    1  0.2656097E-013  0.7246158E+02  0.7816164E-02  0.1226708E+00
        -11   -1    0    0    0    0  0.00000000000E+00  0.00000000000E+00  0.45593999997E+02  0.45594000000E+02  0.51100000000E-03 0. -1.
         11   -1    0    0    0    0 -0.00000000000E+00 -0.00000000000E+00 -0.45593999997E+02  0.45594000000E+02  0.51100000000E-03 0.  1.
    9900012    2    1    2    0    0 -0.12085702852E+02 -0.53407985064E+01  0.13269908002E+02  0.72461580147E+02  0.70000012836E+02 0.  0.
        -12    1    1    2    0    0  0.12085702852E+02  0.53407985064E+01 -0.13269908002E+02  0.18726419853E+02  0.00000000000E+00 0.  1.
         11    1    3    3    0    0  0.56084066191E+01  0.49418458666E+01 -0.14939066422E+02  0.16704842747E+02  0.51100000000E-03 0.  1.
        -11    1    3    3    0    0 -0.19111916353E+02 -0.47612364228E+01  0.38921836476E+02  0.43621601000E+02  0.51100000000E-03 0. -1.
         12    1    3    3    0    0  0.14178068812E+01 -0.55214079501E+01 -0.10712862052E+02  0.12135136400E+02  0.00000000000E+00 0. -1.
</event>
<event>
 7    1  0.3083556E-013  0.7246155E+02  0.7816164E-02  0.1226708E+00
        -11   -1    0    0    0    0  0.00000000000E+00  0.00000000000E+00  0.45593999997E+02  0.45594000000E+02  0.51100000000E-03 0. -1.
         11   -1    0    0    0    0 -0.00000000000E+00 -0.00000000000E+00 -0.45593999997E+02  0.45594000000E+02  0.51100000000E-03 0.  1.
    9900012    2    1    2    0    0  0.12001339509E+02 -0.17474149066E+01  0.14268652029E+02  0.72461547063E+02  0.69999969737E+02 0.  0.
        -12    1    1    2    0    0 -0.12001339509E+02  0.17474149066E+01 -0.14268652029E+02  0.18726452937E+02  0.00000000000E+00 0.  1.
         11    1    3    3    0    0  0.18098611625E+02 -0.50322149729E+01  0.21188773334E+02  0.28316903891E+02  0.51100000000E-03 0. -1.
        -11    1    3    3    0    0  0.16616233600E+02  0.10619733838E+02 -0.36106910668E+01  0.20047819235E+02  0.51100000000E-03 0.  1.
        -12    1    3    3    0    0 -0.22713505716E+02 -0.73349337715E+01 -0.33094302385E+01  0.24096823937E+02  0.00000000000E+00 0.  1.
</event>
<event>
 7    1  0.2656097E-013  0.7246159E+02  0.7816164E-02  0.1226708E+00
        -11   -1    0    0    0    0  0.00000000000E+00  0.00000000000E+00  0.45593999997E+02  0.45594000000E+02  0.51100000000E-03 0. -1.
         11   -1    0    0    0    0 -0.00000000000E+00 -0.00000000000E+00 -0.45593999997E+02  0.45594000000E+02  0.51100000000E-03 0.  1.
    9900012    2    1    2    0    0 -0.36811830355E+01 -0.14956627530E+02 -0.10650199713E+02  0.72461586314E+02  0.70000020868E+02 0.  0.
        -12    1    1    2    0    0  0.36811830355E+01  0.14956627530E+02  0.10650199713E+02  0.18726413686E+02  0.00000000000E+00 0.  1.
         11    1    3    3    0    0  0.35910130354E+01  0.14023145431E+02 -0.26841286564E+01  0.14722381917E+02  0.51100000000E-03 0. -1.
        -11    1    3    3    0    0 -0.10880119212E+02 -0.13147115939E+01 -0.23411617642E+02  0.25849744709E+02  0.51100000000E-03 0.  1.
         12    1    3    3    0    0  0.36079231411E+01 -0.27665061367E+02  0.15445546586E+02  0.31889459688E+02  0.00000000000E+00 0. -1.
</event>
<event>
 7    1  0.2656097E-013  0.7246157E+02  0.7816164E-02  0.1226708E+00
        -11   -1    0    0    0    0  0.00000000000E+00  0.00000000000E+00  0.45593999997E+02  0.45594000000E+02  0.51100000000E-03 0.  1.
         11   -1    0    0    0    0 -0.00000000000E+00 -0.00000000000E+00 -0.45593999997E+02  0.45594000000E+02  0.51100000000E-03 0. -1.
    9900012    2    1    2    0    0  0.16655286914E+02 -0.23533915516E+01 -0.82305708057E+01  0.72461566016E+02  0.69999994427E+02 0.  0.
        -12    1    1    2    0    0 -0.16655286914E+02  0.23533915516E+01  0.82305708057E+01  0.18726433984E+02  0.00000000000E+00 0.  1.
         11    1    3    3    0    0  0.73134155650E+01 -0.14472938070E+02 -0.18178364386E+02  0.24359903851E+02  0.51100000000E-03 0. -1.
        -11    1    3    3    0    0  0.21028759737E+02 -0.31617599385E+00 -0.87572475108E+01  0.22781529527E+02  0.51100000000E-03 0.  1.
        -12    1    3    3    0    0 -0.11686888389E+02  0.12435722512E+02  0.18705041091E+02  0.25320132638E+02  0.00000000000E+00 0.  1.
</event>
<event>
 7    1  0.2656097E-013  0.7246164E+02  0.7816164E-02  0.1226708E+00
        -11   -1    0    0    0    0  0.00000000000E+00  0.00000000000E+00  0.45593999997E+02  0.45594000000E+02  0.51100000000E-03 0.  1.
         11   -1    0    0    0    0 -0.00000000000E+00 -0.00000000000E+00 -0.45593999997E+02  0.45594000000E+02  0.51100000000E-03 0. -1.
    9900012    2    1    2    0    0  0.16759210768E+02 -0.63757498142E+01 -0.53995519919E+01  0.72461641759E+02  0.70000093096E+02 0.  0.
        -12    1    1    2    0    0 -0.16759210768E+02  0.63757498142E+01  0.53995519919E+01  0.18726358241E+02  0.00000000000E+00 0.  1.
         11    1    3    3    0    0 -0.18390546407E+01  0.72562845431E+00  0.35067024590E+01  0.40256205760E+01  0.51100000000E-03 0. -1.
        -11    1    3    3    0    0 -0.23717853278E+02 -0.32407832103E+00  0.31219527101E+01  0.23924635417E+02  0.51100000000E-03 0.  1.
         12    1    3    3    0    0  0.42316118687E+02 -0.67772999475E+01 -0.12028207161E+02  0.44511385766E+02  0.00000000000E+00 0. -1.
</event>
<event>
 7    1  0.2656097E-013  0.7246156E+02  0.7816164E-02  0.1226708E+00
        -11   -1    0    0    0    0  0.00000000000E+00  0.00000000000E+00  0.45593999997E+02  0.45594000000E+02  0.51100000000E-03 0.  1.
         11   -1    0    0    0    0 -0.00000000000E+00 -0.00000000000E+00 -0.45593999997E+02  0.45594000000E+02  0.51100000000E-03 0. -1.
    9900012    2    1    2    0    0  0.22944966759E+01 -0.39313132685E+01 -0.18164788100E+02  0.72461562385E+02  0.69999989697E+02 0.  0.
        -12    1    1    2    0    0 -0.22944966759E+01  0.39313132685E+01  0.18164788100E+02  0.18726437615E+02  0.00000000000E+00 0.  1.
         11    1    3    3    0    0 -0.28028701528E+02  0.33502666955E+00  0.50316575016E+01  0.28478727670E+02  0.51100000000E-03 0. -1.
        -11    1    3    3    0    0  0.26663273868E+01 -0.77903259837E+01 -0.10510914279E+02  0.13352070997E+02  0.51100000000E-03 0.  1.
        -12    1    3    3    0    0  0.27656870817E+02  0.35239860457E+01 -0.12685531323E+02  0.30630763719E+02  0.00000000000E+00 0.  1.
</event>
<event>
 7    1  0.2656097E-013  0.7246153E+02  0.7816164E-02  0.1226708E+00
        -11   -1    0    0    0    0  0.00000000000E+00  0.00000000000E+00  0.45593999997E+02  0.45594000000E+02  0.51100000000E-03 0.  1.
         11   -1    0    0    0    0 -0.00000000000E+00 -0.00000000000E+00 -0.45593999997E+02  0.45594000000E+02  0.51100000000E-03 0. -1.
    9900012    2    1    2    0    0 -0.17946306676E+02  0.43429924202E+01 -0.31223560734E+01  0.72461531728E+02  0.69999949761E+02 0.  0.
        -12    1    1    2    0    0  0.17946306676E+02 -0.43429924202E+01  0.31223560734E+01  0.18726468272E+02  0.00000000000E+00 0.  1.
         11    1    3    3    0    0 -0.88948262582E+01 -0.16063196084E+02 -0.18325514768E+02  0.25941640164E+02  0.51100000000E-03 0. -1.
        -11    1    3    3    0    0  0.11729652482E+02  0.18292277930E+01 -0.41612957425E+01  0.12579634501E+02  0.51100000000E-03 0.  1.
         12    1    3    3    0    0 -0.20781132900E+02  0.18576960711E+02  0.19364454438E+02  0.33940257063E+02  0.00000000000E+00 0. -1.
</event>
<event>
 7    1  0.2656097E-013  0.7246157E+02  0.7816164E-02  0.1226708E+00
        -11   -1    0    0    0    0  0.00000000000E+00  0.00000000000E+00  0.45593999997E+02  0.45594000000E+02  0.51100000000E-03 0.  1.
         11   -1    0    0    0    0 -0.00000000000E+00 -0.00000000000E+00 -0.45593999997E+02  0.45594000000E+02  0.51100000000E-03 0. -1.
    9900012    2    1    2    0    0 -0.12358620753E+02 -0.75577636152E+01 -0.11866922034E+02  0.72461571180E+02  0.70000001154E+02 0.  0.
        -12    1    1    2    0    0  0.12358620753E+02  0.75577636152E+01  0.11866922034E+02  0.18726428820E+02  0.00000000000E+00 0.  1.
         11    1    3    3    0    0 -0.12760597959E+02 -0.21214069591E+01  0.12919493193E+02  0.18282410465E+02  0.51100000000E-03 0. -1.
        -11    1    3    3    0    0 -0.14426771291E+01  0.15930250713E+02  0.56343426773E+01  0.16958774211E+02  0.51100000000E-03 0.  1.
         12    1    3    3    0    0  0.18446543353E+01 -0.21366607369E+02 -0.30420757904E+02  0.37220386504E+02  0.00000000000E+00 0. -1.
</event>
<event>
 7    1  0.2656097E-013  0.7246159E+02  0.7816164E-02  0.1226708E+00
        -11   -1    0    0    0    0  0.00000000000E+00  0.00000000000E+00  0.45593999997E+02  0.45594000000E+02  0.51100000000E-03 0.  1.
         11   -1    0    0    0    0 -0.00000000000E+00 -0.00000000000E+00 -0.45593999997E+02  0.45594000000E+02  0.51100000000E-03 0. -1.
    9900012    2    1    2    0    0  0.56090624419E+01  0.17861547359E+02  0.42644722575E+00  0.72461593170E+02  0.70000029800E+02 0.  0.
        -12    1    1    2    0    0 -0.56090624419E+01 -0.17861547359E+02 -0.42644722575E+00  0.18726406830E+02  0.00000000000E+00 0.  1.
         11    1    3    3    0    0 -0.20818394362E+02  0.13848836596E+02 -0.22345378160E+02  0.33533740385E+02  0.51100000000E-03 0. -1.
        -11    1    3    3    0    0  0.17754316790E+02 -0.43586316336E+01  0.82551941563E+01  0.20058954739E+02  0.51100000000E-03 0.  1.
        -12    1    3    3    0    0  0.86731400135E+01  0.83713423962E+01  0.14516631229E+02  0.18868898045E+02  0.00000000000E+00 0.  1.
</event>
<event>
 7    1  0.2656097E-013  0.7246158E+02  0.7816164E-02  0.1226708E+00
        -11   -1    0    0    0    0  0.00000000000E+00  0.00000000000E+00  0.45593999997E+02  0.45594000000E+02  0.51100000000E-03 0.  1.
         11   -1    0    0    0    0 -0.00000000000E+00 -0.00000000000E+00 -0.45593999997E+02  0.45594000000E+02  0.51100000000E-03 0. -1.
    9900012    2    1    2    0    0 -0.21541183370E+01 -0.32121761005E+01 -0.18322675330E+02  0.72461581967E+02  0.70000015206E+02 0.  0.
        -12    1    1    2    0    0  0.21541183370E+01  0.32121761005E+01  0.18322675330E+02  0.18726418033E+02  0.00000000000E+00 0.  1.
         11    1    3    3    0    0  0.25125535837E+01  0.12983117443E+01 -0.38627802258E+01  0.47874429742E+01  0.51100000000E-03 0. -1.
        -11    1    3    3    0    0  0.32398627524E+01  0.30257875575E+02 -0.75752661511E+01  0.31359534475E+02  0.51100000000E-03 0.  1.
         12    1    3    3    0    0 -0.79065346731E+01 -0.34768363420E+02 -0.68846289527E+01  0.36314604518E+02  0.00000000000E+00 0. -1.
</event>
<event>
 7    1  0.2656097E-013  0.7246158E+02  0.7816164E-02  0.1226708E+00
        -11   -1    0    0    0    0  0.00000000000E+00  0.00000000000E+00  0.45593999997E+02  0.45594000000E+02  0.51100000000E-03 0.  1.
         11   -1    0    0    0    0 -0.00000000000E+00 -0.00000000000E+00 -0.45593999997E+02  0.45594000000E+02  0.51100000000E-03 0. -1.
    9900012    2    1    2    0    0 -0.12333468232E+02 -0.60554838880E+01 -0.12723822318E+02  0.72461575405E+02  0.70000006657E+02 0.  0.
        -12    1    1    2    0    0  0.12333468232E+02  0.60554838880E+01  0.12723822318E+02  0.18726424595E+02  0.00000000000E+00 0.  1.
         11    1    3    3    0    0 -0.12207088156E+02 -0.21691279758E+02 -0.12604193964E+02  0.27899647391E+02  0.51100000000E-03 0. -1.
        -11    1    3    3    0    0  0.12325029269E+02 -0.23810905114E+01 -0.13866315468E+02  0.18704294786E+02  0.51100000000E-03 0.  1.
         12    1    3    3    0    0 -0.12451409345E+02  0.18016886381E+02  0.13746687115E+02  0.25857633228E+02  0.00000000000E+00 0. -1.
</event>
<event>
 7    1  0.2656097E-013  0.7246156E+02  0.7816164E-02  0.1226708E+00
        -11   -1    0    0    0    0  0.00000000000E+00  0.00000000000E+00  0.45593999997E+02  0.45594000000E+02  0.51100000000E-03 0.  1.
         11   -1    0    0    0    0 -0.00000000000E+00 -0.00000000000E+00 -0.45593999997E+02  0.45594000000E+02  0.51100000000E-03 0. -1.
    9900012    2    1    2    0    0  0.18120767454E+02 -0.46386386306E+01 -0.89462944302E+00  0.72461560315E+02  0.69999987000E+02 0.  0.
        -12    1    1    2    0    0 -0.18120767454E+02  0.46386386306E+01  0.89462944302E+00  0.18726439685E+02  0.00000000000E+00 0.  1.
         11    1    3    3    0    0  0.16495591150E+02 -0.30266926898E+02 -0.11669692256E+01  0.34489900096E+02  0.51100000000E-03 0. -1.
        -11    1    3    3    0    0 -0.24489394036E+01 -0.23698523101E+01  0.79549237584E+01  0.86541502435E+01  0.51100000000E-03 0.  1.
        -12    1    3    3    0    0  0.40741157075E+01  0.27998140577E+02 -0.76825839758E+01  0.29317509975E+02  0.00000000000E+00 0.  1.
</event>
<event>
 7    1  0.2656097E-013  0.7246154E+02  0.7816164E-02  0.1226708E+00
        -11   -1    0    0    0    0  0.00000000000E+00  0.00000000000E+00  0.45593999997E+02  0.45594000000E+02  0.51100000000E-03 0. -1.
         11   -1    0    0    0    0 -0.00000000000E+00 -0.00000000000E+00 -0.45593999997E+02  0.45594000000E+02  0.51100000000E-03 0.  1.
    9900012    2    1    2    0    0 -0.17498761750E+02  0.11780971234E+01  0.65639622522E+01  0.72461543420E+02  0.69999964991E+02 0.  0.
        -12    1    1    2    0    0  0.17498761750E+02 -0.11780971234E+01 -0.65639622522E+01  0.18726456580E+02  0.00000000000E+00 0.  1.
         11    1    3    3    0    0  0.55026504102E+01  0.69712439265E+00  0.19485514846E+02  0.20259576329E+02  0.51100000000E-03 0. -1.
        -11    1    3    3    0    0  0.68813650728E+01  0.99561526724E+01  0.80044893005E+01  0.14510341503E+02  0.51100000000E-03 0.  1.
        -12    1    3    3    0    0 -0.29882777233E+02 -0.94751799416E+01 -0.20926041895E+02  0.37691625588E+02  0.00000000000E+00 0.  1.
</event>
<event>
 7    1  0.2656097E-013  0.7246230E+02  0.7816164E-02  0.1226706E+00
        -11   -1    0    0    0    0  0.00000000000E+00  0.00000000000E+00  0.45593999997E+02  0.45594000000E+02  0.51100000000E-03 0. -1.
         11   -1    0    0    0    0 -0.00000000000E+00 -0.00000000000E+00 -0.45593999997E+02  0.45594000000E+02  0.51100000000E-03 0.  1.
    9900012    2    1    2    0    0 -0.15998134216E+02 -0.88434614565E+01  0.40626122494E+01  0.72462297685E+02  0.70000947554E+02 0.  0.
        -12    1    1    2    0    0  0.15998134216E+02  0.88434614565E+01 -0.40626122494E+01  0.18725702315E+02  0.00000000000E+00 0.  1.
         11    1    3    3    0    0  0.41162544389E+01  0.20301028571E+01 -0.12694659899E+01  0.47619756800E+01  0.51100000000E-03 0. -1.
        -11    1    3    3    0    0  0.19619300454E+02  0.68394959604E+01 -0.79013826733E+01  0.22228978917E+02  0.51100000000E-03 0.  1.
         12    1    3    3    0    0 -0.39733689109E+02 -0.17713060274E+02  0.13233460913E+02  0.45471343087E+02  0.00000000000E+00 0. -1.
</event>
<event>
 7    1  0.2656097E-013  0.7246122E+02  0.7816164E-02  0.1226709E+00
        -11   -1    0    0    0    0  0.00000000000E+00  0.00000000000E+00  0.45593999997E+02  0.45594000000E+02  0.51100000000E-03 0. -1.
         11   -1    0    0    0    0 -0.00000000000E+00 -0.00000000000E+00 -0.45593999997E+02  0.45594000000E+02  0.51100000000E-03 0.  1.
    9900012    2    1    2    0    0  0.47284966392E+01  0.18083850570E+02  0.11437313862E+01  0.72461215615E+02  0.69999537963E+02 0.  0.
        -12    1    1    2    0    0 -0.47284966392E+01 -0.18083850570E+02 -0.11437313862E+01  0.18726784385E+02  0.00000000000E+00 0.  1.
         11    1    3    3    0    0  0.14068087908E+02  0.12863312206E+02  0.84683069074E+01  0.20858766034E+02  0.51100000000E-03 0. -1.
        -11    1    3    3    0    0  0.29575337353E+01 -0.20618811462E+02  0.32759086762E+01  0.21085871332E+02  0.51100000000E-03 0.  1.
        -12    1    3    3    0    0 -0.12297125004E+02  0.25839349827E+02 -0.10600484197E+02  0.30516578249E+02  0.00000000000E+00 0.  1.
</event>
<event>
 7    1  0.2656097E-013  0.7246158E+02  0.7816164E-02  0.1226708E+00
        -11   -1    0    0    0    0  0.00000000000E+00  0.00000000000E+00  0.45593999997E+02  0.45594000000E+02  0.51100000000E-03 0.  1.
         11   -1    0    0    0    0 -0.00000000000E+00 -0.00000000000E+00 -0.45593999997E+02  0.45594000000E+02  0.51100000000E-03 0. -1.
    9900012    2    1    2    0    0  0.17089654862E+02 -0.53767923102E+01  0.54509161137E+01  0.72461583222E+02  0.70000016841E+02 0.  0.
        -12    1    1    2    0    0 -0.17089654862E+02  0.53767923102E+01 -0.54509161137E+01  0.18726416778E+02  0.00000000000E+00 0.  1.
         11    1    3    3    0    0 -0.14364396162E+02  0.22853471760E+01  0.19856913058E+01  0.14679974762E+02  0.51100000000E-03 0. -1.
        -11    1    3    3    0    0  0.23394139460E+02  0.83768038560E+01  0.21114589061E+02  0.32608012442E+02  0.51100000000E-03 0.  1.
         12    1    3    3    0    0  0.80599115638E+01 -0.16038943342E+02 -0.17649364253E+02  0.25173596018E+02  0.00000000000E+00 0. -1.
</event>
<event>
 7    1  0.2656097E-013  0.7246153E+02  0.7816164E-02  0.1226708E+00
        -11   -1    0    0    0    0  0.00000000000E+00  0.00000000000E+00  0.45593999997E+02  0.45594000000E+02  0.51100000000E-03 0. -1.
         11   -1    0    0    0    0 -0.00000000000E+00 -0.00000000000E+00 -0.45593999997E+02  0.45594000000E+02  0.51100000000E-03 0.  1.
    9900012    2    1    2    0    0 -0.66912745565E+01 -0.17138914594E+02 -0.34878407613E+01  0.72461532585E+02  0.69999950877E+02 0.  0.
        -12    1    1    2    0    0  0.66912745565E+01  0.17138914594E+02  0.34878407613E+01  0.18726467415E+02  0.00000000000E+00 0.  1.
         11    1    3    3    0    0  0.11739542892E+02  0.45446165297E+01  0.83118936437E+01  0.15085025121E+02  0.51100000000E-03 0. -1.
        -11    1    3    3    0    0  0.14183241372E+02 -0.17992821799E+02 -0.83012867866E+01  0.24368367501E+02  0.51100000000E-03 0.  1.
         12    1    3    3    0    0 -0.32614058820E+02 -0.36907093252E+01 -0.34984476184E+01  0.33008139963E+02  0.00000000000E+00 0. -1.
</event>
<event>
 7    1  0.2656097E-013  0.7246158E+02  0.7816164E-02  0.1226708E+00
        -11   -1    0    0    0    0  0.00000000000E+00  0.00000000000E+00  0.45593999997E+02  0.45594000000E+02  0.51100000000E-03 0. -1.
         11   -1    0    0    0    0 -0.00000000000E+00 -0.00000000000E+00 -0.45593999997E+02  0.45594000000E+02  0.51100000000E-03 0.  1.
    9900012    2    1    2    0    0  0.63413254051E+01  0.32346735775E+01  0.17320598366E+02  0.72461584197E+02  0.70000018111E+02 0.  0.
        -12    1    1    2    0    0 -0.63413254051E+01 -0.32346735775E+01 -0.17320598366E+02  0.18726415803E+02  0.00000000000E+00 0.  1.
         11    1    3    3    0    0 -0.89262122067E+01 -0.90049154514E+01 -0.47453004905E+01  0.13538228970E+02  0.51100000000E-03 0. -1.
        -11    1    3    3    0    0 -0.34749306658E+01  0.15766937007E+02 -0.11840252144E+02  0.20021563795E+02  0.51100000000E-03 0.  1.
         12    1    3    3    0    0  0.18742468278E+02 -0.35273479782E+01  0.33906151001E+02  0.38901791432E+02  0.00000000000E+00 0. -1.
</event>
<event>
 7    1  0.2656097E-013  0.7246160E+02  0.7816164E-02  0.1226708E+00
        -11   -1    0    0    0    0  0.00000000000E+00  0.00000000000E+00  0.45593999997E+02  0.45594000000E+02  0.51100000000E-03 0.  1.
         11   -1    0    0    0    0 -0.00000000000E+00 -0.00000000000E+00 -0.45593999997E+02  0.45594000000E+02  0.51100000000E-03 0. -1.
    9900012    2    1    2    0    0  0.32528051602E+01 -0.11435466287E+02 -0.14468157028E+02  0.72461596224E+02  0.70000033778E+02 0.  0.
        -12    1    1    2    0    0 -0.32528051602E+01  0.11435466287E+02  0.14468157028E+02  0.18726403776E+02  0.00000000000E+00 0.  1.
         11    1    3    3    0    0 -0.17605608641E+02  0.14636767053E+02 -0.13602471404E+01  0.22935620287E+02  0.51100000000E-03 0. -1.
        -11    1    3    3    0    0  0.24588356991E+02 -0.35012294116E+01 -0.79125014810E+01  0.26066330521E+02  0.51100000000E-03 0.  1.
        -12    1    3    3    0    0 -0.37299431891E+01 -0.22571003928E+02 -0.51954084066E+01  0.23459645416E+02  0.00000000000E+00 0.  1.
</event>
<event>
 7    1  0.2656097E-013  0.7246186E+02  0.7816164E-02  0.1226707E+00
        -11   -1    0    0    0    0  0.00000000000E+00  0.00000000000E+00  0.45593999997E+02  0.45594000000E+02  0.51100000000E-03 0.  1.
         11   -1    0    0    0    0 -0.00000000000E+00 -0.00000000000E+00 -0.45593999997E+02  0.45594000000E+02  0.51100000000E-03 0. -1.
    9900012    2    1    2    0    0 -0.25602079296E+00 -0.86843446023E+01 -0.16588700609E+02  0.72461858494E+02  0.70000375432E+02 0.  0.
        -12    1    1    2    0    0  0.25602079296E+00  0.86843446023E+01  0.16588700609E+02  0.18726141506E+02  0.00000000000E+00 0.  1.
         11    1    3    3    0    0  0.21845589540E+02 -0.77598676398E+01 -0.21637236015E+02  0.31711438169E+02  0.51100000000E-03 0. -1.
        -11    1    3    3    0    0  0.81051422740E+01  0.52627267557E+00 -0.41765280196E+01  0.91331090419E+01  0.51100000000E-03 0.  1.
        -12    1    3    3    0    0 -0.30206752607E+02 -0.14507496380E+01  0.92250634252E+01  0.31617311283E+02  0.00000000000E+00 0.  1.
</event>
<event>
 7    1  0.2656097E-013  0.7246229E+02  0.7816164E-02  0.1226706E+00
        -11   -1    0    0    0    0  0.00000000000E+00  0.00000000000E+00  0.45593999997E+02  0.45594000000E+02  0.51100000000E-03 0. -1.
         11   -1    0    0    0    0 -0.00000000000E+00 -0.00000000000E+00 -0.45593999997E+02  0.45594000000E+02  0.51100000000E-03 0.  1.
    9900012    2    1    2    0    0 -0.66044081910E+01  0.17112101985E+02 -0.37695910934E+01  0.72462294168E+02  0.70000942973E+02 0.  0.
        -12    1    1    2    0    0  0.66044081910E+01 -0.17112101985E+02  0.37695910934E+01  0.18725705832E+02  0.00000000000E+00 0.  1.
         11    1    3    3    0    0  0.94360999931E+00  0.33654893424E+01 -0.99289846958E+01  0.10526236540E+02  0.51100000000E-03 0. -1.
        -11    1    3    3    0    0  0.15897185338E+02  0.29277284146E+02  0.90705041891E+00  0.33327205244E+02  0.51100000000E-03 0.  1.
         12    1    3    3    0    0 -0.23445203529E+02 -0.15530671503E+02  0.52523431835E+01  0.28608852384E+02  0.00000000000E+00 0. -1.
</event>
<event>
 7    1  0.2656097E-013  0.7246164E+02  0.7816164E-02  0.1226708E+00
        -11   -1    0    0    0    0  0.00000000000E+00  0.00000000000E+00  0.45593999997E+02  0.45594000000E+02  0.51100000000E-03 0.  1.
         11   -1    0    0    0    0 -0.00000000000E+00 -0.00000000000E+00 -0.45593999997E+02  0.45594000000E+02  0.51100000000E-03 0. -1.
    9900012    2    1    2    0    0  0.17162193529E+02 -0.20224231700E+01 -0.72142612578E+01  0.72461637627E+02  0.70000087714E+02 0.  0.
        -12    1    1    2    0    0 -0.17162193529E+02  0.20224231700E+01  0.72142612578E+01  0.18726362373E+02  0.00000000000E+00 0.  1.
         11    1    3    3    0    0  0.49710773292E+00  0.16348038302E+02 -0.31495602858E+02  0.35489131746E+02  0.51100000000E-03 0. -1.
        -11    1    3    3    0    0  0.35430150180E+01 -0.32647395514E+01  0.13304797806E+02  0.14150234086E+02  0.51100000000E-03 0.  1.
        -12    1    3    3    0    0  0.13122070778E+02 -0.15105721921E+02  0.10976543794E+02  0.22822271796E+02  0.00000000000E+00 0.  1.
</event>
<event>
 7    1  0.2656097E-013  0.7246158E+02  0.7816164E-02  0.1226708E+00
        -11   -1    0    0    0    0  0.00000000000E+00  0.00000000000E+00  0.45593999997E+02  0.45594000000E+02  0.51100000000E-03 0.  1.
         11   -1    0    0    0    0 -0.00000000000E+00 -0.00000000000E+00 -0.45593999997E+02  0.45594000000E+02  0.51100000000E-03 0. -1.
    9900012    2    1    2    0    0 -0.11794012825E+02 -0.14414466838E+02  0.19501903212E+01  0.72461579225E+02  0.70000011634E+02 0.  0.
        -12    1    1    2    0    0  0.11794012825E+02  0.14414466838E+02 -0.19501903212E+01  0.18726420775E+02  0.00000000000E+00 0.  1.
         11    1    3    3    0    0 -0.66367743134E+01 -0.76183937160E+00  0.96393959275E+01  0.11727963447E+02  0.51100000000E-03 0. -1.
        -11    1    3    3    0    0 -0.77876853610E+01  0.76804648287E+01  0.21712971314E+02  0.24312357080E+02  0.51100000000E-03 0.  1.
         12    1    3    3    0    0  0.26304468492E+01 -0.21333092295E+02 -0.29402176920E+02  0.36421258698E+02  0.00000000000E+00 0. -1.
</event>
<event>
 7    1  0.2656097E-013  0.7246157E+02  0.7816164E-02  0.1226708E+00
        -11   -1    0    0    0    0  0.00000000000E+00  0.00000000000E+00  0.45593999997E+02  0.45594000000E+02  0.51100000000E-03 0.  1.
         11   -1    0    0    0    0 -0.00000000000E+00 -0.00000000000E+00 -0.45593999997E+02  0.45594000000E+02  0.51100000000E-03 0. -1.
    9900012    2    1    2    0    0  0.18501025170E+02  0.27925378656E+01 -0.77003464869E+00  0.72461570724E+02  0.70000000559E+02 0.  0.
        -12    1    1    2    0    0 -0.18501025170E+02 -0.27925378656E+01  0.77003464869E+00  0.18726429276E+02  0.00000000000E+00 0.  1.
         11    1    3    3    0    0  0.23890851897E+01 -0.21933750660E+01  0.43781978243E+01  0.54485996984E+01  0.51100000000E-03 0. -1.
        -11    1    3    3    0    0  0.15838621321E+02 -0.25378068000E+02  0.11893356788E+02  0.32192548776E+02  0.51100000000E-03 0.  1.
         12    1    3    3    0    0  0.27331865941E+00  0.30363980931E+02 -0.17041589261E+02  0.34820422249E+02  0.00000000000E+00 0. -1.
</event>
<event>
 7    1  0.2656097E-013  0.7246156E+02  0.7816164E-02  0.1226708E+00
        -11   -1    0    0    0    0  0.00000000000E+00  0.00000000000E+00  0.45593999997E+02  0.45594000000E+02  0.51100000000E-03 0. -1.
         11   -1    0    0    0    0 -0.00000000000E+00 -0.00000000000E+00 -0.45593999997E+02  0.45594000000E+02  0.51100000000E-03 0.  1.
    9900012    2    1    2    0    0 -0.68670447999E+01  0.11066141022E+02  0.13455996656E+02  0.72461558069E+02  0.69999984074E+02 0.  0.
        -12    1    1    2    0    0  0.68670447999E+01 -0.11066141022E+02 -0.13455996656E+02  0.18726441931E+02  0.00000000000E+00 0.  1.
         11    1    3    3    0    0 -0.11357726676E+01 -0.14462112890E+01  0.89339119260E+01  0.91211999872E+01  0.51100000000E-03 0. -1.
        -11    1    3    3    0    0 -0.17994083139E+02  0.22761681265E+01  0.28944643492E+02  0.34157874004E+02  0.51100000000E-03 0.  1.
        -12    1    3    3    0    0  0.12262811007E+02  0.10236184184E+02 -0.24422558762E+02  0.29182484077E+02  0.00000000000E+00 0.  1.
</event>
<event>
 7    1  0.2656097E-013  0.7246126E+02  0.7816164E-02  0.1226709E+00
        -11   -1    0    0    0    0  0.00000000000E+00  0.00000000000E+00  0.45593999997E+02  0.45594000000E+02  0.51100000000E-03 0. -1.
         11   -1    0    0    0    0 -0.00000000000E+00 -0.00000000000E+00 -0.45593999997E+02  0.45594000000E+02  0.51100000000E-03 0.  1.
    9900012    2    1    2    0    0 -0.81701663851E+01  0.18025309595E+01  0.16753804818E+02  0.72461262097E+02  0.69999598514E+02 0.  0.
        -12    1    1    2    0    0  0.81701663851E+01 -0.18025309595E+01 -0.16753804818E+02  0.18726737903E+02  0.00000000000E+00 0.  1.
         11    1    3    3    0    0  0.32720199372E+01 -0.35641060867E+01 -0.24863031272E+00  0.48446655158E+01  0.51100000000E-03 0. -1.
        -11    1    3    3    0    0  0.18931017316E+02 -0.17367663670E+02  0.14719456893E+02  0.29608808985E+02  0.51100000000E-03 0.  1.
         12    1    3    3    0    0 -0.30373203638E+02  0.22734300717E+02  0.22829782370E+01  0.38007787596E+02  0.00000000000E+00 0. -1.
</event>
<event>
 7    1  0.2656097E-013  0.7246156E+02  0.7816164E-02  0.1226708E+00
        -11   -1    0    0    0    0  0.00000000000E+00  0.00000000000E+00  0.45593999997E+02  0.45594000000E+02  0.51100000000E-03 0.  1.
         11   -1    0    0    0    0 -0.00000000000E+00 -0.00000000000E+00 -0.45593999997E+02  0.45594000000E+02  0.51100000000E-03 0. -1.
    9900012    2    1    2    0    0  0.43483205308E+01 -0.18207755246E+02  0.49944911786E+00  0.72461556345E+02  0.69999981828E+02 0.  0.
        -12    1    1    2    0    0 -0.43483205308E+01  0.18207755246E+02 -0.49944911786E+00  0.18726443655E+02  0.00000000000E+00 0.  1.
         11    1    3    3    0    0  0.46517398032E+01 -0.20844365874E+02 -0.71561395485E+01  0.22524133844E+02  0.51100000000E-03 0. -1.
        -11    1    3    3    0    0  0.43187341879E+01 -0.21251273992E+02 -0.53679676866E+01  0.22340169843E+02  0.51100000000E-03 0.  1.
        -12    1    3    3    0    0 -0.46221534604E+01  0.23887884620E+02  0.13023556353E+02  0.27597252659E+02  0.00000000000E+00 0.  1.
</event>
<event>
 7    1  0.2656097E-013  0.7246148E+02  0.7816164E-02  0.1226708E+00
        -11   -1    0    0    0    0  0.00000000000E+00  0.00000000000E+00  0.45593999997E+02  0.45594000000E+02  0.51100000000E-03 0.  1.
         11   -1    0    0    0    0 -0.00000000000E+00 -0.00000000000E+00 -0.45593999997E+02  0.45594000000E+02  0.51100000000E-03 0. -1.
    9900012    2    1    2    0    0  0.39290498790E+01  0.37571927289E+01 -0.17920063437E+02  0.72461478600E+02  0.69999880551E+02 0.  0.
        -12    1    1    2    0    0 -0.39290498790E+01 -0.37571927289E+01  0.17920063437E+02  0.18726521400E+02  0.00000000000E+00 0.  1.
         11    1    3    3    0    0 -0.66516889908E+01 -0.29840079439E+02 -0.30729887379E+01  0.30726512451E+02  0.51100000000E-03 0. -1.
        -11    1    3    3    0    0  0.19383664820E+01 -0.16368354835E+01 -0.20627055441E+01  0.32697476112E+01  0.51100000000E-03 0.  1.
        -12    1    3    3    0    0  0.86423723878E+01  0.35234107651E+02 -0.12784369155E+02  0.38465218538E+02  0.00000000000E+00 0.  1.
</event>
<event>
 7    1  0.2656097E-013  0.7246152E+02  0.7816164E-02  0.1226708E+00
        -11   -1    0    0    0    0  0.00000000000E+00  0.00000000000E+00  0.45593999997E+02  0.45594000000E+02  0.51100000000E-03 0.  1.
         11   -1    0    0    0    0 -0.00000000000E+00 -0.00000000000E+00 -0.45593999997E+02  0.45594000000E+02  0.51100000000E-03 0. -1.
    9900012    2    1    2    0    0  0.56374788659E+01 -0.99763960650E+01 -0.14811193648E+02  0.72461518652E+02  0.69999932726E+02 0.  0.
        -12    1    1    2    0    0 -0.56374788659E+01  0.99763960650E+01  0.14811193648E+02  0.18726481348E+02  0.00000000000E+00 0.  1.
         11    1    3    3    0    0  0.21075455445E+02  0.87926600145E+01 -0.61020507623E+01  0.23637273872E+02  0.51100000000E-03 0. -1.
        -11    1    3    3    0    0  0.57012449943E+01 -0.10596101247E+02  0.12807552608E+02  0.17573131769E+02  0.51100000000E-03 0.  1.
        -12    1    3    3    0    0 -0.21139221573E+02 -0.81729548328E+01 -0.21516695493E+02  0.31251113010E+02  0.00000000000E+00 0.  1.
</event>
<event>
 7    1  0.2656097E-013  0.7246149E+02  0.7816164E-02  0.1226708E+00
        -11   -1    0    0    0    0  0.00000000000E+00  0.00000000000E+00  0.45593999997E+02  0.45594000000E+02  0.51100000000E-03 0.  1.
         11   -1    0    0    0    0 -0.00000000000E+00 -0.00000000000E+00 -0.45593999997E+02  0.45594000000E+02  0.51100000000E-03 0. -1.
    9900012    2    1    2    0    0  0.70271664259E+01 -0.14674499474E+02 -0.92714611004E+01  0.72461494888E+02  0.69999901769E+02 0.  0.
        -12    1    1    2    0    0 -0.70271664259E+01  0.14674499474E+02  0.92714611004E+01  0.18726505112E+02  0.00000000000E+00 0.  1.
         11    1    3    3    0    0  0.26528674277E+02 -0.60271657382E+01  0.15757041368E+01  0.27250323475E+02  0.51100000000E-03 0. -1.
        -11    1    3    3    0    0  0.69911704625E+01  0.81381644215E+01  0.26756754679E+01  0.11057369672E+02  0.51100000000E-03 0.  1.
        -12    1    3    3    0    0 -0.26492678314E+02 -0.16785498157E+02 -0.13522840705E+02  0.34153801741E+02  0.00000000000E+00 0.  1.
</event>
<event>
 7    1  0.2656097E-013  0.7246154E+02  0.7816164E-02  0.1226708E+00
        -11   -1    0    0    0    0  0.00000000000E+00  0.00000000000E+00  0.45593999997E+02  0.45594000000E+02  0.51100000000E-03 0.  1.
         11   -1    0    0    0    0 -0.00000000000E+00 -0.00000000000E+00 -0.45593999997E+02  0.45594000000E+02  0.51100000000E-03 0. -1.
    9900012    2    1    2    0    0  0.14517193052E+02  0.33699924774E+01  0.11339076666E+02  0.72461537359E+02  0.69999957096E+02 0.  0.
        -12    1    1    2    0    0 -0.14517193052E+02 -0.33699924774E+01 -0.11339076666E+02  0.18726462641E+02  0.00000000000E+00 0.  1.
         11    1    3    3    0    0 -0.11256172361E+01 -0.30813801455E+01 -0.37145779018E+01  0.49558053849E+01  0.51100000000E-03 0. -1.
        -11    1    3    3    0    0  0.85677929398E+01  0.32554072473E+02  0.21186035068E+02  0.39774650125E+02  0.51100000000E-03 0.  1.
         12    1    3    3    0    0  0.70750173480E+01 -0.26102699850E+02 -0.61323805001E+01  0.27731081849E+02  0.00000000000E+00 0. -1.
</event>
<event>
 7    1  0.2656097E-013  0.7246157E+02  0.7816164E-02  0.1226708E+00
        -11   -1    0    0    0    0  0.00000000000E+00  0.00000000000E+00  0.45593999997E+02  0.45594000000E+02  0.51100000000E-03 0.  1.
         11   -1    0    0    0    0 -0.00000000000E+00 -0.00000000000E+00 -0.45593999997E+02  0.45594000000E+02  0.51100000000E-03 0. -1.
    9900012    2    1    2    0    0 -0.10603437586E+02  0.49592828016E+01 -0.14616827515E+02  0.72461574256E+02  0.70000005160E+02 0.  0.
        -12    1    1    2    0    0  0.10603437586E+02 -0.49592828016E+01  0.14616827515E+02  0.18726425744E+02  0.00000000000E+00 0.  1.
         11    1    3    3    0    0 -0.16960804807E+02 -0.51333350979E+01 -0.72019626795E+01  0.19128206806E+02  0.51100000000E-03 0. -1.
        -11    1    3    3    0    0  0.91806671783E+01  0.84285729481E+01  0.21167375110E+02  0.24563860875E+02  0.51100000000E-03 0.  1.
         12    1    3    3    0    0 -0.28232999575E+01  0.16640449513E+01 -0.28582239945E+02  0.28769506574E+02  0.00000000000E+00 0. -1.
</event>
<event>
 7    1  0.2656097E-013  0.7246163E+02  0.7816164E-02  0.1226708E+00
        -11   -1    0    0    0    0  0.00000000000E+00  0.00000000000E+00  0.45593999997E+02  0.45594000000E+02  0.51100000000E-03 0. -1.
         11   -1    0    0    0    0 -0.00000000000E+00 -0.00000000000E+00 -0.45593999997E+02  0.45594000000E+02  0.51100000000E-03 0.  1.
    9900012    2    1    2    0    0  0.10422430547E+01 -0.18599221802E+02 -0.19130565664E+01  0.72461625347E+02  0.70000071716E+02 0.  0.
        -12    1    1    2    0    0 -0.10422430547E+01  0.18599221802E+02  0.19130565664E+01  0.18726374653E+02  0.00000000000E+00 0.  1.
         11    1    3    3    0    0 -0.81367454744E+01 -0.16158980370E+01 -0.73470943121E+01  0.11081405528E+02  0.51100000000E-03 0. -1.
        -11    1    3    3    0    0 -0.75371513624E+01  0.45735307747E+01 -0.21381889976E+02  0.23128144188E+02  0.51100000000E-03 0.  1.
         12    1    3    3    0    0  0.16716139892E+02 -0.21556854540E+02  0.26815927721E+02  0.38252075631E+02  0.00000000000E+00 0. -1.
</event>
<event>
 7    1  0.2656097E-013  0.7246155E+02  0.7816164E-02  0.1226708E+00
        -11   -1    0    0    0    0  0.00000000000E+00  0.00000000000E+00  0.45593999997E+02  0.45594000000E+02  0.51100000000E-03 0.  1.
         11   -1    0    0    0    0 -0.00000000000E+00 -0.00000000000E+00 -0.45593999997E+02  0.45594000000E+02  0.51100000000E-03 0. -1.
    9900012    2    1    2    0    0 -0.14389930638E+02 -0.64675727263E+01 -0.10088630172E+02  0.72461546533E+02  0.69999969046E+02 0.  0.
        -12    1    1    2    0    0  0.14389930638E+02  0.64675727263E+01  0.10088630172E+02  0.18726453467E+02  0.00000000000E+00 0.  1.
         11    1    3    3    0    0 -0.18469634896E+02 -0.19367956723E+02 -0.13201311928E+02  0.29841578338E+02  0.51100000000E-03 0. -1.
        -11    1    3    3    0    0 -0.15302546198E+01 -0.14066341809E+02 -0.28606999286E+01  0.14435624526E+02  0.51100000000E-03 0.  1.
        -12    1    3    3    0    0  0.56099588786E+01  0.26966725806E+02  0.59733816849E+01  0.28184343669E+02  0.00000000000E+00 0.  1.
</event>
<event>
 7    1  0.2656097E-013  0.7246158E+02  0.7816164E-02  0.1226708E+00
        -11   -1    0    0    0    0  0.00000000000E+00  0.00000000000E+00  0.45593999997E+02  0.45594000000E+02  0.51100000000E-03 0.  1.
         11   -1    0    0    0    0 -0.00000000000E+00 -0.00000000000E+00 -0.45593999997E+02  0.45594000000E+02  0.51100000000E-03 0. -1.
    9900012    2    1    2    0    0 -0.96160128823E+01  0.25305393896E+01 -0.15868447228E+02  0.72461576135E+02  0.70000007608E+02 0.  0.
        -12    1    1    2    0    0  0.96160128823E+01 -0.25305393896E+01  0.15868447228E+02  0.18726423865E+02  0.00000000000E+00 0.  1.
         11    1    3    3    0    0 -0.20673401798E+02  0.16242312358E+02 -0.13842187074E+02  0.29712091745E+02  0.51100000000E-03 0. -1.
        -11    1    3    3    0    0  0.10853563366E+02  0.12232296124E+02  0.20682090098E+01  0.16483518889E+02  0.51100000000E-03 0.  1.
        -12    1    3    3    0    0  0.20382554934E+00 -0.25944069093E+02 -0.40944691634E+01  0.26265965500E+02  0.00000000000E+00 0.  1.
</event>
<event>
 7    1  0.2656097E-013  0.7246166E+02  0.7816164E-02  0.1226708E+00
        -11   -1    0    0    0    0  0.00000000000E+00  0.00000000000E+00  0.45593999997E+02  0.45594000000E+02  0.51100000000E-03 0. -1.
         11   -1    0    0    0    0 -0.00000000000E+00 -0.00000000000E+00 -0.45593999997E+02  0.45594000000E+02  0.51100000000E-03 0.  1.
    9900012    2    1    2    0    0  0.94594017657E+01 -0.13735389758E+02  0.85167137531E+01  0.72461664888E+02  0.70000123226E+02 0.  0.
        -12    1    1    2    0    0 -0.94594017657E+01  0.13735389758E+02 -0.85167137531E+01  0.18726335112E+02  0.00000000000E+00 0.  1.
         11    1    3    3    0    0  0.58006456302E+01 -0.40897840960E+01 -0.15907199912E+02  0.17418749467E+02  0.51100000000E-03 0. -1.
        -11    1    3    3    0    0 -0.11807583906E+02 -0.24762197638E+02  0.16483126673E+02  0.32004358059E+02  0.51100000000E-03 0.  1.
         12    1    3    3    0    0  0.15466340042E+02  0.15116591976E+02  0.79407869925E+01  0.23038557362E+02  0.00000000000E+00 0. -1.
</event>
<event>
 7    1  0.2656097E-013  0.7246142E+02  0.7816164E-02  0.1226708E+00
        -11   -1    0    0    0    0  0.00000000000E+00  0.00000000000E+00  0.45593999997E+02  0.45594000000E+02  0.51100000000E-03 0.  1.
         11   -1    0    0    0    0 -0.00000000000E+00 -0.00000000000E+00 -0.45593999997E+02  0.45594000000E+02  0.51100000000E-03 0. -1.
    9900012    2    1    2    0    0  0.14971135123E+02 -0.96901159462E+01  0.57141664816E+01  0.72461416422E+02  0.69999799553E+02 0.  0.
        -12    1    1    2    0    0 -0.14971135123E+02  0.96901159462E+01 -0.57141664816E+01  0.18726583578E+02  0.00000000000E+00 0.  1.
         11    1    3    3    0    0  0.62269131623E+01  0.24952076950E+02 -0.30025123022E+01  0.25892000156E+02  0.51100000000E-03 0. -1.
        -11    1    3    3    0    0 -0.76766884611E+01 -0.40905888561E+01  0.80895615398E+01  0.11878782307E+02  0.51100000000E-03 0.  1.
        -12    1    3    3    0    0  0.16420910422E+02 -0.30551604040E+02  0.62711724403E+00  0.34690633960E+02  0.00000000000E+00 0.  1.
</event>
<event>
 7    1  0.2656097E-013  0.7246159E+02  0.7816164E-02  0.1226708E+00
        -11   -1    0    0    0    0  0.00000000000E+00  0.00000000000E+00  0.45593999997E+02  0.45594000000E+02  0.51100000000E-03 0. -1.
         11   -1    0    0    0    0 -0.00000000000E+00 -0.00000000000E+00 -0.45593999997E+02  0.45594000000E+02  0.51100000000E-03 0.  1.
    9900012    2    1    2    0    0  0.76825500304E+01  0.13663782846E+02 -0.10244899043E+02  0.72461588357E+02  0.70000023530E+02 0.  0.
        -12    1    1    2    0    0 -0.76825500304E+01 -0.13663782846E+02  0.10244899043E+02  0.18726411643E+02  0.00000000000E+00 0.  1.
         11    1    3    3    0    0  0.12460318533E+02  0.77160923123E+01  0.76558630670E+01  0.16535109860E+02  0.51100000000E-03 0. -1.
        -11    1    3    3    0    0  0.17719962252E+01 -0.22897983906E+02 -0.42827763327E+01  0.23362358848E+02  0.51100000000E-03 0.  1.
        -12    1    3    3    0    0 -0.65497647281E+01  0.28845674439E+02 -0.13617985777E+02  0.32564119649E+02  0.00000000000E+00 0.  1.
</event>
<event>
 7    1  0.2656097E-013  0.7246164E+02  0.7816164E-02  0.1226708E+00
        -11   -1    0    0    0    0  0.00000000000E+00  0.00000000000E+00  0.45593999997E+02  0.45594000000E+02  0.51100000000E-03 0.  1.
         11   -1    0    0    0    0 -0.00000000000E+00 -0.00000000000E+00 -0.45593999997E+02  0.45594000000E+02  0.51100000000E-03 0. -1.
    9900012    2    1    2    0    0  0.64445176349E+01  0.13547751371E+02 -0.11207283677E+02  0.72461639378E+02  0.70000089994E+02 0.  0.
        -12    1    1    2    0    0 -0.64445176349E+01 -0.13547751371E+02  0.11207283677E+02  0.18726360622E+02  0.00000000000E+00 0.  1.
         11    1    3    3    0    0  0.51078467440E+01  0.87854973184E+00 -0.41177322524E+01  0.66194914574E+01  0.51100000000E-03 0. -1.
        -11    1    3    3    0    0  0.26657223517E+02 -0.12773645410E+02 -0.35834209600E+01  0.29776072419E+02  0.51100000000E-03 0.  1.
         12    1    3    3    0    0 -0.25320552626E+02  0.25442847049E+02 -0.35061304644E+01  0.36066075501E+02  0.00000000000E+00 0. -1.
</event>
<event>
 7    1  0.2656097E-013  0.7246142E+02  0.7816164E-02  0.1226708E+00
        -11   -1    0    0    0    0  0.00000000000E+00  0.00000000000E+00  0.45593999997E+02  0.45594000000E+02  0.51100000000E-03 0.  1.
         11   -1    0    0    0    0 -0.00000000000E+00 -0.00000000000E+00 -0.45593999997E+02  0.45594000000E+02  0.51100000000E-03 0. -1.
    9900012    2    1    2    0    0  0.11905489254E+02 -0.35758228457E+01 -0.14005629875E+02  0.72461418582E+02  0.69999802367E+02 0.  0.
        -12    1    1    2    0    0 -0.11905489254E+02  0.35758228457E+01  0.14005629875E+02  0.18726581418E+02  0.00000000000E+00 0.  1.
         11    1    3    3    0    0  0.81062917618E+01 -0.84931347994E+00  0.44320784563E+01  0.92777486072E+01  0.51100000000E-03 0. -1.
        -11    1    3    3    0    0  0.20558910042E+02  0.12143490671E+01  0.15064616264E+02  0.25516388640E+02  0.51100000000E-03 0.  1.
         12    1    3    3    0    0 -0.16759712549E+02 -0.39408584328E+01 -0.33502324595E+02  0.37667281335E+02  0.00000000000E+00 0. -1.
</event>
<event>
 7    1  0.2656097E-013  0.7246154E+02  0.7816164E-02  0.1226708E+00
        -11   -1    0    0    0    0  0.00000000000E+00  0.00000000000E+00  0.45593999997E+02  0.45594000000E+02  0.51100000000E-03 0. -1.
         11   -1    0    0    0    0 -0.00000000000E+00 -0.00000000000E+00 -0.45593999997E+02  0.45594000000E+02  0.51100000000E-03 0.  1.
    9900012    2    1    2    0    0 -0.18177367182E+02 -0.38638690603E+01  0.23095815248E+01  0.72461539346E+02  0.69999959684E+02 0.  0.
        -12    1    1    2    0    0  0.18177367182E+02  0.38638690603E+01 -0.23095815248E+01  0.18726460654E+02  0.00000000000E+00 0.  1.
         11    1    3    3    0    0  0.30938947667E+00 -0.28307925184E+02  0.86449836347E+00  0.28322812497E+02  0.51100000000E-03 0. -1.
        -11    1    3    3    0    0  0.24581864192E+01  0.28951126078E+01 -0.10981717449E+02  0.11619917206E+02  0.51100000000E-03 0.  1.
        -12    1    3    3    0    0 -0.20944943078E+02  0.21548943516E+02  0.12426800610E+02  0.32518809643E+02  0.00000000000E+00 0.  1.
</event>
<event>
 7    1  0.2656097E-013  0.7246157E+02  0.7816164E-02  0.1226708E+00
        -11   -1    0    0    0    0  0.00000000000E+00  0.00000000000E+00  0.45593999997E+02  0.45594000000E+02  0.51100000000E-03 0.  1.
         11   -1    0    0    0    0 -0.00000000000E+00 -0.00000000000E+00 -0.45593999997E+02  0.45594000000E+02  0.51100000000E-03 0. -1.
    9900012    2    1    2    0    0  0.10073756132E+01 -0.16982515071E+01 -0.18622040471E+02  0.72461568009E+02  0.69999997023E+02 0.  0.
        -12    1    1    2    0    0 -0.10073756132E+01  0.16982515071E+01  0.18622040471E+02  0.18726431991E+02  0.00000000000E+00 0.  1.
         11    1    3    3    0    0 -0.11070985572E+02  0.17786789822E+01  0.19462763155E+01  0.11380615634E+02  0.51100000000E-03 0. -1.
        -11    1    3    3    0    0  0.19843133820E+01 -0.21191395858E+02  0.10645839477E+02  0.23798038920E+02  0.51100000000E-03 0.  1.
         12    1    3    3    0    0  0.10094047803E+02  0.17714465369E+02 -0.31214156264E+02  0.37282913454E+02  0.00000000000E+00 0. -1.
</event>
<event>
 7    1  0.2656097E-013  0.7246155E+02  0.7816164E-02  0.1226708E+00
        -11   -1    0    0    0    0  0.00000000000E+00  0.00000000000E+00  0.45593999997E+02  0.45594000000E+02  0.51100000000E-03 0.  1.
         11   -1    0    0    0    0 -0.00000000000E+00 -0.00000000000E+00 -0.45593999997E+02  0.45594000000E+02  0.51100000000E-03 0. -1.
    9900012    2    1    2    0    0 -0.60771926753E+01 -0.25467662532E+01 -0.17528885250E+02  0.72461545256E+02  0.69999967383E+02 0.  0.
        -12    1    1    2    0    0  0.60771926753E+01  0.25467662532E+01  0.17528885250E+02  0.18726454744E+02  0.00000000000E+00 0.  1.
         11    1    3    3    0    0 -0.21006065977E+01 -0.16299493729E+02 -0.24204917286E+01  0.16611587051E+02  0.51100000000E-03 0. -1.
        -11    1    3    3    0    0  0.30937456730E+00 -0.16149141706E+02 -0.19504568645E+02  0.25324270745E+02  0.51100000000E-03 0.  1.
        -12    1    3    3    0    0 -0.42859606449E+01  0.29901869181E+02  0.43961751238E+01  0.30525687460E+02  0.00000000000E+00 0.  1.
</event>
<event>
 7    1  0.2656097E-013  0.7246155E+02  0.7816164E-02  0.1226708E+00
        -11   -1    0    0    0    0  0.00000000000E+00  0.00000000000E+00  0.45593999997E+02  0.45594000000E+02  0.51100000000E-03 0.  1.
         11   -1    0    0    0    0 -0.00000000000E+00 -0.00000000000E+00 -0.45593999997E+02  0.45594000000E+02  0.51100000000E-03 0. -1.
    9900012    2    1    2    0    0 -0.94666073475E+01 -0.12421278164E+02 -0.10333213301E+02  0.72461545370E+02  0.69999967531E+02 0.  0.
        -12    1    1    2    0    0  0.94666073475E+01  0.12421278164E+02  0.10333213301E+02  0.18726454630E+02  0.00000000000E+00 0.  1.
         11    1    3    3    0    0  0.17471234150E+02 -0.38502868637E+00 -0.47363878296E+01  0.18105955919E+02  0.51100000000E-03 0.  1.
        -11    1    3    3    0    0 -0.64117679939E+01 -0.22214131692E+02 -0.17063204738E+02  0.28735541961E+02  0.51100000000E-03 0. -1.
        -12    1    3    3    0    0 -0.20526073504E+02  0.10177882214E+02  0.11466379267E+02  0.25620047489E+02  0.00000000000E+00 0.  1.
</event>
<event>
 7    1  0.2656097E-013  0.7246155E+02  0.7816164E-02  0.1226708E+00
        -11   -1    0    0    0    0  0.00000000000E+00  0.00000000000E+00  0.45593999997E+02  0.45594000000E+02  0.51100000000E-03 0.  1.
         11   -1    0    0    0    0 -0.00000000000E+00 -0.00000000000E+00 -0.45593999997E+02  0.45594000000E+02  0.51100000000E-03 0. -1.
    9900012    2    1    2    0    0  0.10390749354E+02  0.95843785835E+01  0.12282176537E+02  0.72461552247E+02  0.69999976490E+02 0.  0.
        -12    1    1    2    0    0 -0.10390749354E+02 -0.95843785835E+01 -0.12282176537E+02  0.18726447753E+02  0.00000000000E+00 0.  1.
         11    1    3    3    0    0 -0.44369032491E+01 -0.41849305739E+00  0.24114536376E+01  0.50671842071E+01  0.51100000000E-03 0. -1.
        -11    1    3    3    0    0  0.11026281053E+02  0.37179799058E+02  0.19356667080E+01  0.38828638113E+02  0.51100000000E-03 0.  1.
         12    1    3    3    0    0  0.38013715503E+01 -0.27176927417E+02  0.79350561915E+01  0.28565729927E+02  0.00000000000E+00 0. -1.
</event>
<event>
 7    1  0.2656097E-013  0.7246163E+02  0.7816164E-02  0.1226708E+00
        -11   -1    0    0    0    0  0.00000000000E+00  0.00000000000E+00  0.45593999997E+02  0.45594000000E+02  0.51100000000E-03 0.  1.
         11   -1    0    0    0    0 -0.00000000000E+00 -0.00000000000E+00 -0.45593999997E+02  0.45594000000E+02  0.51100000000E-03 0. -1.
    9900012    2    1    2    0    0 -0.95725948253E+01 -0.89866867456E+01 -0.13352227449E+02  0.72461625866E+02  0.70000072393E+02 0.  0.
        -12    1    1    2    0    0  0.95725948253E+01  0.89866867456E+01  0.13352227449E+02  0.18726374134E+02  0.00000000000E+00 0.  1.
         11    1    3    3    0    0 -0.11443509829E+02  0.34207250478E+01  0.25255620544E+01  0.12207937623E+02  0.51100000000E-03 0. -1.
        -11    1    3    3    0    0 -0.17339607455E+02  0.56918266954E+01  0.12017192576E+02  0.21851128014E+02  0.51100000000E-03 0.  1.
        -12    1    3    3    0    0  0.19210522458E+02 -0.18099238489E+02 -0.27894982079E+02  0.38402560229E+02  0.00000000000E+00 0.  1.
</event>
<event>
 7    1  0.2656097E-013  0.7246156E+02  0.7816164E-02  0.1226708E+00
        -11   -1    0    0    0    0  0.00000000000E+00  0.00000000000E+00  0.45593999997E+02  0.45594000000E+02  0.51100000000E-03 0. -1.
         11   -1    0    0    0    0 -0.00000000000E+00 -0.00000000000E+00 -0.45593999997E+02  0.45594000000E+02  0.51100000000E-03 0.  1.
    9900012    2    1    2    0    0 -0.13023950148E+02  0.13292865004E+02 -0.20870871352E+01  0.72461562267E+02  0.69999989542E+02 0.  0.
        -12    1    1    2    0    0  0.13023950148E+02 -0.13292865004E+02  0.20870871352E+01  0.18726437733E+02  0.00000000000E+00 0.  1.
         11    1    3    3    0    0 -0.82866751874E+01  0.80604847376E+01 -0.13437410974E+02  0.17725812078E+02  0.51100000000E-03 0. -1.
        -11    1    3    3    0    0 -0.67328931206E+01  0.11408662326E+02 -0.19298198016E+02  0.23407474720E+02  0.51100000000E-03 0.  1.
         12    1    3    3    0    0  0.19956181596E+01 -0.61762820595E+01  0.30648521856E+02  0.31328275469E+02  0.00000000000E+00 0. -1.
</event>
<event>
 7    1  0.2656097E-013  0.7246149E+02  0.7816164E-02  0.1226708E+00
        -11   -1    0    0    0    0  0.00000000000E+00  0.00000000000E+00  0.45593999997E+02  0.45594000000E+02  0.51100000000E-03 0.  1.
         11   -1    0    0    0    0 -0.00000000000E+00 -0.00000000000E+00 -0.45593999997E+02  0.45594000000E+02  0.51100000000E-03 0. -1.
    9900012    2    1    2    0    0  0.36542557168E+01  0.17803980234E+02 -0.45107634731E+01  0.72461487134E+02  0.69999891668E+02 0.  0.
        -12    1    1    2    0    0 -0.36542557168E+01 -0.17803980234E+02  0.45107634731E+01  0.18726512866E+02  0.00000000000E+00 0.  1.
         11    1    3    3    0    0 -0.25610690741E+01 -0.11523636981E+01  0.40226775116E+01  0.49060117731E+01  0.51100000000E-03 0. -1.
        -11    1    3    3    0    0 -0.22898240822E+02 -0.95239795391E+01  0.35980818246E+01  0.25059565282E+02  0.51100000000E-03 0.  1.
         12    1    3    3    0    0  0.29113565613E+02  0.28480323471E+02 -0.12131522809E+02  0.42495910079E+02  0.00000000000E+00 0. -1.
</event>
<event>
 7    1  0.2656097E-013  0.7246153E+02  0.7816164E-02  0.1226708E+00
        -11   -1    0    0    0    0  0.00000000000E+00  0.00000000000E+00  0.45593999997E+02  0.45594000000E+02  0.51100000000E-03 0.  1.
         11   -1    0    0    0    0 -0.00000000000E+00 -0.00000000000E+00 -0.45593999997E+02  0.45594000000E+02  0.51100000000E-03 0. -1.
    9900012    2    1    2    0    0  0.13714566795E+02  0.27883228307E+01 -0.12442528803E+02  0.72461531844E+02  0.69999949912E+02 0.  0.
        -12    1    1    2    0    0 -0.13714566795E+02 -0.27883228307E+01  0.12442528803E+02  0.18726468156E+02  0.00000000000E+00 0.  1.
         11    1    3    3    0    0  0.25095080749E+02 -0.15522227273E+02 -0.11420372132E+02  0.31640599192E+02  0.51100000000E-03 0. -1.
        -11    1    3    3    0    0  0.78944742770E+01 -0.49925097119E+01  0.40071837840E+01  0.10163926381E+02  0.51100000000E-03 0.  1.
        -12    1    3    3    0    0 -0.19274988232E+02  0.23303059816E+02 -0.50293404555E+01  0.30657006271E+02  0.00000000000E+00 0.  1.
</event>
<event>
 7    1  0.2656097E-013  0.7246151E+02  0.7816164E-02  0.1226708E+00
        -11   -1    0    0    0    0  0.00000000000E+00  0.00000000000E+00  0.45593999997E+02  0.45594000000E+02  0.51100000000E-03 0.  1.
         11   -1    0    0    0    0 -0.00000000000E+00 -0.00000000000E+00 -0.45593999997E+02  0.45594000000E+02  0.51100000000E-03 0. -1.
    9900012    2    1    2    0    0  0.82249791857E+01  0.16817934230E+02 -0.43405741677E+00  0.72461505395E+02  0.69999915456E+02 0.  0.
        -12    1    1    2    0    0 -0.82249791857E+01 -0.16817934230E+02  0.43405741677E+00  0.18726494605E+02  0.00000000000E+00 0.  1.
         11    1    3    3    0    0  0.21217956593E+01 -0.92439311414E+01  0.20887304868E+01  0.97115948780E+01  0.51100000000E-03 0. -1.
        -11    1    3    3    0    0  0.31319191392E+02  0.12115104516E+02 -0.44259596888E+01  0.33871176925E+02  0.51100000000E-03 0.  1.
         12    1    3    3    0    0 -0.25216007865E+02  0.13946760855E+02  0.19031717852E+01  0.28878733592E+02  0.00000000000E+00 0. -1.
</event>
<event>
 7    1  0.2656097E-013  0.7246162E+02  0.7816164E-02  0.1226708E+00
        -11   -1    0    0    0    0  0.00000000000E+00  0.00000000000E+00  0.45593999997E+02  0.45594000000E+02  0.51100000000E-03 0.  1.
         11   -1    0    0    0    0 -0.00000000000E+00 -0.00000000000E+00 -0.45593999997E+02  0.45594000000E+02  0.51100000000E-03 0. -1.
    9900012    2    1    2    0    0 -0.14269791361E+02  0.11656652934E+02  0.33425583916E+01  0.72461622889E+02  0.70000068514E+02 0.  0.
        -12    1    1    2    0    0  0.14269791361E+02 -0.11656652934E+02 -0.33425583916E+01  0.18726377111E+02  0.00000000000E+00 0.  1.
         11    1    3    3    0    0 -0.13653273724E+02  0.90073384078E+01 -0.19467227740E+02  0.25426698266E+02  0.51100000000E-03 0. -1.
        -11    1    3    3    0    0 -0.20119285431E+02  0.39272349626E+01  0.62851623715E+01  0.21440897533E+02  0.51100000000E-03 0.  1.
        -12    1    3    3    0    0  0.19502767794E+02 -0.12779204367E+01  0.16524623760E+02  0.25594027090E+02  0.00000000000E+00 0.  1.
</event>
<event>
 7    1  0.2656097E-013  0.7246161E+02  0.7816164E-02  0.1226708E+00
        -11   -1    0    0    0    0  0.00000000000E+00  0.00000000000E+00  0.45593999997E+02  0.45594000000E+02  0.51100000000E-03 0.  1.
         11   -1    0    0    0    0 -0.00000000000E+00 -0.00000000000E+00 -0.45593999997E+02  0.45594000000E+02  0.51100000000E-03 0. -1.
    9900012    2    1    2    0    0  0.23590001060E+01  0.18023318304E+01 -0.18489579027E+02  0.72461606483E+02  0.70000047143E+02 0.  0.
        -12    1    1    2    0    0 -0.23590001060E+01 -0.18023318304E+01  0.18489579027E+02  0.18726393517E+02  0.00000000000E+00 0.  1.
         11    1    3    3    0    0 -0.63111705949E+01 -0.53060222797E+01 -0.33520752824E+02  0.34519930719E+02  0.51100000000E-03 0. -1.
        -11    1    3    3    0    0  0.64127566544E+01 -0.12541047061E+02  0.10714357452E+02  0.17697422557E+02  0.51100000000E-03 0.  1.
        -12    1    3    3    0    0  0.22574140465E+01  0.19649401171E+02  0.43168163438E+01  0.20244253207E+02  0.00000000000E+00 0.  1.
</event>
<event>
 7    1  0.2656097E-013  0.7246153E+02  0.7816164E-02  0.1226708E+00
        -11   -1    0    0    0    0  0.00000000000E+00  0.00000000000E+00  0.45593999997E+02  0.45594000000E+02  0.51100000000E-03 0.  1.
         11   -1    0    0    0    0 -0.00000000000E+00 -0.00000000000E+00 -0.45593999997E+02  0.45594000000E+02  0.51100000000E-03 0. -1.
    9900012    2    1    2    0    0 -0.60701734477E+01  0.90278550835E+01 -0.15242420226E+02  0.72461533503E+02  0.69999952073E+02 0.  0.
        -12    1    1    2    0    0  0.60701734477E+01 -0.90278550835E+01  0.15242420226E+02  0.18726466497E+02  0.00000000000E+00 0.  1.
         11    1    3    3    0    0  0.17503196116E+01  0.27172635734E+02 -0.22753535531E+02  0.35484350507E+02  0.51100000000E-03 0. -1.
        -11    1    3    3    0    0  0.49699865752E+00  0.12078552658E+01  0.14671194769E+02  0.14729218520E+02  0.51100000000E-03 0.  1.
        -12    1    3    3    0    0 -0.83174917168E+01 -0.19352635917E+02 -0.71600794641E+01  0.22247964476E+02  0.00000000000E+00 0.  1.
</event>
<event>
 7    1  0.2656097E-013  0.7246156E+02  0.7816164E-02  0.1226708E+00
        -11   -1    0    0    0    0  0.00000000000E+00  0.00000000000E+00  0.45593999997E+02  0.45594000000E+02  0.51100000000E-03 0. -1.
         11   -1    0    0    0    0 -0.00000000000E+00 -0.00000000000E+00 -0.45593999997E+02  0.45594000000E+02  0.51100000000E-03 0.  1.
    9900012    2    1    2    0    0  0.99216266127E+01 -0.15317823952E+02  0.41958411087E+01  0.72461561794E+02  0.69999988927E+02 0.  0.
        -12    1    1    2    0    0 -0.99216266127E+01  0.15317823952E+02 -0.41958411087E+01  0.18726438206E+02  0.00000000000E+00 0.  1.
         11    1    3    3    0    0  0.90215451429E+01 -0.13220492632E+02  0.29673154980E+01  0.16278042380E+02  0.51100000000E-03 0. -1.
        -11    1    3    3    0    0  0.12394235304E+00 -0.27728792962E+02  0.93852526299E+01  0.29274293980E+02  0.51100000000E-03 0.  1.
         12    1    3    3    0    0  0.77613911680E+00  0.25631461642E+02 -0.81567270192E+01  0.26909225435E+02  0.00000000000E+00 0. -1.
</event>
<event>
 7    1  0.2656097E-013  0.7246154E+02  0.7816164E-02  0.1226708E+00
        -11   -1    0    0    0    0  0.00000000000E+00  0.00000000000E+00  0.45593999997E+02  0.45594000000E+02  0.51100000000E-03 0.  1.
         11   -1    0    0    0    0 -0.00000000000E+00 -0.00000000000E+00 -0.45593999997E+02  0.45594000000E+02  0.51100000000E-03 0. -1.
    9900012    2    1    2    0    0 -0.82954726192E+01 -0.16706221949E+02  0.16636447317E+01  0.72461536598E+02  0.69999956104E+02 0.  0.
        -12    1    1    2    0    0  0.82954726192E+01  0.16706221949E+02 -0.16636447317E+01  0.18726463402E+02  0.00000000000E+00 0.  1.
         11    1    3    3    0    0 -0.44117564499E+01  0.12141576377E+02  0.30995982462E+01  0.13284915560E+02  0.51100000000E-03 0. -1.
        -11    1    3    3    0    0 -0.20047342218E+02 -0.68587160114E+00 -0.13890634077E+02  0.24399099680E+02  0.51100000000E-03 0.  1.
         12    1    3    3    0    0  0.16163626049E+02 -0.28161926724E+02  0.12454680563E+02  0.34777521358E+02  0.00000000000E+00 0. -1.
</event>
<event>
 7    1  0.2656097E-013  0.7246157E+02  0.7816164E-02  0.1226708E+00
        -11   -1    0    0    0    0  0.00000000000E+00  0.00000000000E+00  0.45593999997E+02  0.45594000000E+02  0.51100000000E-03 0.  1.
         11   -1    0    0    0    0 -0.00000000000E+00 -0.00000000000E+00 -0.45593999997E+02  0.45594000000E+02  0.51100000000E-03 0. -1.
    9900012    2    1    2    0    0 -0.14101097708E+02 -0.67421237974E+01 -0.10314173060E+02  0.72461565322E+02  0.69999993522E+02 0.  0.
        -12    1    1    2    0    0  0.14101097708E+02  0.67421237974E+01  0.10314173060E+02  0.18726434678E+02  0.00000000000E+00 0.  1.
         11    1    3    3    0    0  0.10884316521E+02  0.11508626714E+01  0.48635283017E+00  0.10955791635E+02  0.51100000000E-03 0. -1.
        -11    1    3    3    0    0  0.15388900609E+02  0.65297112649E+01 -0.80239365997E+01  0.18542894865E+02  0.51100000000E-03 0.  1.
         12    1    3    3    0    0 -0.40374314838E+02 -0.14422697734E+02 -0.27765892902E+01  0.42962878821E+02  0.00000000000E+00 0. -1.
</event>
<event>
 7    1  0.2656097E-013  0.7246157E+02  0.7816164E-02  0.1226708E+00
        -11   -1    0    0    0    0  0.00000000000E+00  0.00000000000E+00  0.45593999997E+02  0.45594000000E+02  0.51100000000E-03 0. -1.
         11   -1    0    0    0    0 -0.00000000000E+00 -0.00000000000E+00 -0.45593999997E+02  0.45594000000E+02  0.51100000000E-03 0.  1.
    9900012    2    1    2    0    0  0.64760073287E+01 -0.13079728461E+01  0.17522261639E+02  0.72461571701E+02  0.70000001832E+02 0.  0.
        -12    1    1    2    0    0 -0.64760073287E+01  0.13079728461E+01 -0.17522261639E+02  0.18726428299E+02  0.00000000000E+00 0.  1.
         11    1    3    3    0    0  0.12903123744E+02  0.38489875453E+01  0.22914590233E+02  0.26577880903E+02  0.51100000000E-03 0. -1.
        -11    1    3    3    0    0  0.13824235737E+02 -0.80673878179E+01  0.11205341633E+02  0.19538472849E+02  0.51100000000E-03 0.  1.
        -12    1    3    3    0    0 -0.20251352152E+02  0.29104274265E+01 -0.16597670226E+02  0.26345217948E+02  0.00000000000E+00 0.  1.
</event>
<event>
 7    1  0.2656097E-013  0.7246157E+02  0.7816164E-02  0.1226708E+00
        -11   -1    0    0    0    0  0.00000000000E+00  0.00000000000E+00  0.45593999997E+02  0.45594000000E+02  0.51100000000E-03 0.  1.
         11   -1    0    0    0    0 -0.00000000000E+00 -0.00000000000E+00 -0.45593999997E+02  0.45594000000E+02  0.51100000000E-03 0. -1.
    9900012    2    1    2    0    0 -0.14256781332E+02 -0.10601818837E+02 -0.59181844690E+01  0.72461567237E+02  0.69999996018E+02 0.  0.
        -12    1    1    2    0    0  0.14256781332E+02  0.10601818837E+02  0.59181844690E+01  0.18726432763E+02  0.00000000000E+00 0.  1.
         11    1    3    3    0    0  0.17244871270E+02 -0.11104934250E+02  0.16228870103E+02  0.26154949339E+02  0.51100000000E-03 0. -1.
        -11    1    3    3    0    0  0.21915285792E+00  0.68568155412E+01  0.40287538629E+00  0.68721362166E+01  0.51100000000E-03 0.  1.
        -12    1    3    3    0    0 -0.31720805461E+02 -0.63537001281E+01 -0.22549929958E+02  0.39434481682E+02  0.00000000000E+00 0.  1.
</event>
<event>
 7    1  0.2656097E-013  0.7246156E+02  0.7816164E-02  0.1226708E+00
        -11   -1    0    0    0    0  0.00000000000E+00  0.00000000000E+00  0.45593999997E+02  0.45594000000E+02  0.51100000000E-03 0.  1.
         11   -1    0    0    0    0 -0.00000000000E+00 -0.00000000000E+00 -0.45593999997E+02  0.45594000000E+02  0.51100000000E-03 0. -1.
    9900012    2    1    2    0    0  0.15325571271E+02 -0.64290060364E+01 -0.86298423590E+01  0.72461563272E+02  0.69999990852E+02 0.  0.
        -12    1    1    2    0    0 -0.15325571271E+02  0.64290060364E+01  0.86298423590E+01  0.18726436728E+02  0.00000000000E+00 0.  1.
         11    1    3    3    0    0  0.30091656570E+02 -0.14727705814E+02 -0.17036059693E+02  0.37585109336E+02  0.51100000000E-03 0. -1.
        -11    1    3    3    0    0  0.75426795679E+01 -0.37974502610E+01  0.26987978035E+01  0.88654471627E+01  0.51100000000E-03 0.  1.
        -12    1    3    3    0    0 -0.22308764867E+02  0.12096150039E+02  0.57074195301E+01  0.26011006773E+02  0.00000000000E+00 0.  1.
</event>
<event>
 7    1  0.2656097E-013  0.7246158E+02  0.7816164E-02  0.1226708E+00
        -11   -1    0    0    0    0  0.00000000000E+00  0.00000000000E+00  0.45593999997E+02  0.45594000000E+02  0.51100000000E-03 0.  1.
         11   -1    0    0    0    0 -0.00000000000E+00 -0.00000000000E+00 -0.45593999997E+02  0.45594000000E+02  0.51100000000E-03 0. -1.
    9900012    2    1    2    0    0 -0.66093854835E+01 -0.17472290823E+02  0.13092215131E+01  0.72461575247E+02  0.70000006451E+02 0.  0.
        -12    1    1    2    0    0  0.66093854835E+01  0.17472290823E+02 -0.13092215131E+01  0.18726424753E+02  0.00000000000E+00 0.  1.
         11    1    3    3    0    0  0.97493723792E+00 -0.19531519732E+02  0.33706023275E+00  0.19558741665E+02  0.51100000000E-03 0. -1.
        -11    1    3    3    0    0 -0.29921539218E+02 -0.27192128234E+01  0.14307400778E+00  0.30045184273E+02  0.51100000000E-03 0.  1.
         12    1    3    3    0    0  0.22337216497E+02  0.47784417322E+01  0.82908727255E+00  0.22857649309E+02  0.00000000000E+00 0. -1.
</event>
<event>
 7    1  0.2656097E-013  0.7246149E+02  0.7816164E-02  0.1226708E+00
        -11   -1    0    0    0    0  0.00000000000E+00  0.00000000000E+00  0.45593999997E+02  0.45594000000E+02  0.51100000000E-03 0.  1.
         11   -1    0    0    0    0 -0.00000000000E+00 -0.00000000000E+00 -0.45593999997E+02  0.45594000000E+02  0.51100000000E-03 0. -1.
    9900012    2    1    2    0    0  0.15199499088E+02  0.59084438434E+01 -0.92058412892E+01  0.72461494853E+02  0.69999901723E+02 0.  0.
        -12    1    1    2    0    0 -0.15199499088E+02 -0.59084438434E+01  0.92058412892E+01  0.18726505147E+02  0.00000000000E+00 0.  1.
         11    1    3    3    0    0  0.25305998372E+01  0.11340493675E+02 -0.54791135668E+01  0.12846455467E+02  0.51100000000E-03 0. -1.
        -11    1    3    3    0    0 -0.20280713890E+02  0.99126514091E+01  0.25937915478E+01  0.22722142696E+02  0.51100000000E-03 0.  1.
         12    1    3    3    0    0  0.32949613141E+02 -0.15344701241E+02 -0.63205192702E+01  0.36892896690E+02  0.00000000000E+00 0. -1.
</event>
<event>
 7    1  0.2656097E-013  0.7246164E+02  0.7816164E-02  0.1226708E+00
        -11   -1    0    0    0    0  0.00000000000E+00  0.00000000000E+00  0.45593999997E+02  0.45594000000E+02  0.51100000000E-03 0.  1.
         11   -1    0    0    0    0 -0.00000000000E+00 -0.00000000000E+00 -0.45593999997E+02  0.45594000000E+02  0.51100000000E-03 0. -1.
    9900012    2    1    2    0    0  0.36160839612E+01  0.12391765565E+02 -0.13566307828E+02  0.72461638231E+02  0.70000088500E+02 0.  0.
        -12    1    1    2    0    0 -0.36160839612E+01 -0.12391765565E+02  0.13566307828E+02  0.18726361769E+02  0.00000000000E+00 0.  1.
         11    1    3    3    0    0  0.25289862892E+01 -0.11480545333E+02 -0.13843717213E+02  0.18161695938E+02  0.51100000000E-03 0. -1.
        -11    1    3    3    0    0 -0.99885099680E+01  0.21674054700E+02 -0.19969131797E+02  0.31117538519E+02  0.51100000000E-03 0.  1.
        -12    1    3    3    0    0  0.11075607640E+02  0.21982561983E+01  0.20246541182E+02  0.23182403774E+02  0.00000000000E+00 0.  1.
</event>
<event>
 7    1  0.2656097E-013  0.7246150E+02  0.7816164E-02  0.1226708E+00
        -11   -1    0    0    0    0  0.00000000000E+00  0.00000000000E+00  0.45593999997E+02  0.45594000000E+02  0.51100000000E-03 0. -1.
         11   -1    0    0    0    0 -0.00000000000E+00 -0.00000000000E+00 -0.45593999997E+02  0.45594000000E+02  0.51100000000E-03 0.  1.
    9900012    2    1    2    0    0 -0.46859179277E+01 -0.77031976068E+01  0.16412947309E+02  0.72461496868E+02  0.69999904348E+02 0.  0.
        -12    1    1    2    0    0  0.46859179277E+01  0.77031976068E+01 -0.16412947309E+02  0.18726503132E+02  0.00000000000E+00 0.  1.
         11    1    3    3    0    0 -0.15416891532E+02  0.57119705699E+01  0.11250454228E+02  0.19921844113E+02  0.51100000000E-03 0. -1.
        -11    1    3    3    0    0  0.15768240026E+02  0.12384615503E+02 -0.97737556587E+01  0.22305658354E+02  0.51100000000E-03 0.  1.
         12    1    3    3    0    0 -0.50372664215E+01 -0.25799783680E+02  0.14936248740E+02  0.30233994400E+02  0.00000000000E+00 0. -1.
</event>
<event>
 7    1  0.2656097E-013  0.7246160E+02  0.7816164E-02  0.1226708E+00
        -11   -1    0    0    0    0  0.00000000000E+00  0.00000000000E+00  0.45593999997E+02  0.45594000000E+02  0.51100000000E-03 0. -1.
         11   -1    0    0    0    0 -0.00000000000E+00 -0.00000000000E+00 -0.45593999997E+02  0.45594000000E+02  0.51100000000E-03 0.  1.
    9900012    2    1    2    0    0 -0.63106023450E+01  0.34590236680E+01  0.17288416651E+02  0.72461604272E+02  0.70000044262E+02 0.  0.
        -12    1    1    2    0    0  0.63106023450E+01 -0.34590236680E+01 -0.17288416651E+02  0.18726395728E+02  0.00000000000E+00 0.  1.
         11    1    3    3    0    0  0.51185837754E+01 -0.14643896491E+02 -0.44639114107E+01  0.16142184166E+02  0.51100000000E-03 0. -1.
        -11    1    3    3    0    0  0.31117531430E+01 -0.99873048984E+01 -0.77865806694E+01  0.13040709549E+02  0.51100000000E-03 0.  1.
         12    1    3    3    0    0 -0.14540939263E+02  0.28090225057E+02  0.29538908731E+02  0.43278710557E+02  0.00000000000E+00 0. -1.
</event>
<event>
 7    1  0.2656097E-013  0.7246145E+02  0.7816164E-02  0.1226708E+00
        -11   -1    0    0    0    0  0.00000000000E+00  0.00000000000E+00  0.45593999997E+02  0.45594000000E+02  0.51100000000E-03 0.  1.
         11   -1    0    0    0    0 -0.00000000000E+00 -0.00000000000E+00 -0.45593999997E+02  0.45594000000E+02  0.51100000000E-03 0. -1.
    9900012    2    1    2    0    0  0.24443280197E+01  0.70703483211E+01 -0.17167387263E+02  0.72461447987E+02  0.69999840671E+02 0.  0.
        -12    1    1    2    0    0 -0.24443280197E+01 -0.70703483211E+01  0.17167387263E+02  0.18726552013E+02  0.00000000000E+00 0.  1.
         11    1    3    3    0    0 -0.84127776807E+01  0.12165985229E+02 -0.59773335678E+01  0.15953511894E+02  0.51100000000E-03 0. -1.
        -11    1    3    3    0    0 -0.20817038849E+02 -0.80671286931E+01  0.12225447682E+01  0.22358942009E+02  0.51100000000E-03 0.  1.
         12    1    3    3    0    0  0.31674144549E+02  0.29714917847E+01 -0.12412598464E+02  0.34148994084E+02  0.00000000000E+00 0. -1.
</event>
<event>
 7    1  0.2656097E-013  0.7246158E+02  0.7816164E-02  0.1226708E+00
        -11   -1    0    0    0    0  0.00000000000E+00  0.00000000000E+00  0.45593999997E+02  0.45594000000E+02  0.51100000000E-03 0.  1.
         11   -1    0    0    0    0 -0.00000000000E+00 -0.00000000000E+00 -0.45593999997E+02  0.45594000000E+02  0.51100000000E-03 0. -1.
    9900012    2    1    2    0    0 -0.15227488813E+02 -0.10839544652E+02 -0.11431096293E+01  0.72461579001E+02  0.70000011342E+02 0.  0.
        -12    1    1    2    0    0  0.15227488813E+02  0.10839544652E+02  0.11431096293E+01  0.18726420999E+02  0.00000000000E+00 0.  1.
         11    1    3    3    0    0 -0.10225399043E+02 -0.13412067175E+02 -0.21798904179E+02  0.27561468669E+02  0.51100000000E-03 0. -1.
        -11    1    3    3    0    0 -0.10603947284E+02  0.13564151544E+02 -0.36889710086E+01  0.17607907669E+02  0.51100000000E-03 0.  1.
         12    1    3    3    0    0  0.56018575148E+01 -0.10991629021E+02  0.24344765559E+02  0.27292202664E+02  0.00000000000E+00 0. -1.
</event>
<event>
 7    1  0.2656097E-013  0.7246163E+02  0.7816164E-02  0.1226708E+00
        -11   -1    0    0    0    0  0.00000000000E+00  0.00000000000E+00  0.45593999997E+02  0.45594000000E+02  0.51100000000E-03 0. -1.
         11   -1    0    0    0    0 -0.00000000000E+00 -0.00000000000E+00 -0.45593999997E+02  0.45594000000E+02  0.51100000000E-03 0.  1.
    9900012    2    1    2    0    0  0.95359275287E+01  0.59007759143E+01  0.14997467869E+02  0.72461625212E+02  0.70000071540E+02 0.  0.
        -12    1    1    2    0    0 -0.95359275287E+01 -0.59007759143E+01 -0.14997467869E+02  0.18726374788E+02  0.00000000000E+00 0.  1.
         11    1    3    3    0    0 -0.92378265380E+01 -0.10906764500E+02  0.17514230317E+02  0.22606264947E+02  0.51100000000E-03 0. -1.
        -11    1    3    3    0    0  0.19749716547E+02  0.13515227380E+02  0.17435801937E+02  0.29609455657E+02  0.51100000000E-03 0.  1.
        -12    1    3    3    0    0 -0.97596248040E+00  0.32923130347E+01 -0.19952564385E+02  0.20245904608E+02  0.00000000000E+00 0.  1.
</event>
<event>
 7    1  0.2656097E-013  0.7246150E+02  0.7816164E-02  0.1226708E+00
        -11   -1    0    0    0    0  0.00000000000E+00  0.00000000000E+00  0.45593999997E+02  0.45594000000E+02  0.51100000000E-03 0. -1.
         11   -1    0    0    0    0 -0.00000000000E+00 -0.00000000000E+00 -0.45593999997E+02  0.45594000000E+02  0.51100000000E-03 0.  1.
    9900012    2    1    2    0    0  0.17797054975E+02 -0.49014611232E+00  0.58057158427E+01  0.72461501517E+02  0.69999910405E+02 0.  0.
        -12    1    1    2    0    0 -0.17797054975E+02  0.49014611232E+00 -0.58057158427E+01  0.18726498483E+02  0.00000000000E+00 0.  1.
         11    1    3    3    0    0 -0.14074554196E+01 -0.10255634041E+02  0.11814891514E+02  0.15708297874E+02  0.51100000000E-03 0. -1.
        -11    1    3    3    0    0  0.26161857733E+02 -0.14063625500E+02  0.40330724751E+01  0.29974890093E+02  0.51100000000E-03 0.  1.
        -12    1    3    3    0    0 -0.69573473382E+01  0.23829113428E+02 -0.10042248147E+02  0.26778313550E+02  0.00000000000E+00 0.  1.
</event>
<event>
 7    1  0.2656097E-013  0.7246157E+02  0.7816164E-02  0.1226708E+00
        -11   -1    0    0    0    0  0.00000000000E+00  0.00000000000E+00  0.45593999997E+02  0.45594000000E+02  0.51100000000E-03 0.  1.
         11   -1    0    0    0    0 -0.00000000000E+00 -0.00000000000E+00 -0.45593999997E+02  0.45594000000E+02  0.51100000000E-03 0. -1.
    9900012    2    1    2    0    0  0.14592446952E+02 -0.11556509287E+01 -0.11679219749E+02  0.72461569185E+02  0.69999998555E+02 0.  0.
        -12    1    1    2    0    0 -0.14592446952E+02  0.11556509287E+01  0.11679219749E+02  0.18726430815E+02  0.00000000000E+00 0.  1.
         11    1    3    3    0    0  0.26228865268E+02  0.20640499615E+02 -0.34748759417E+01  0.33556793063E+02  0.51100000000E-03 0. -1.
        -11    1    3    3    0    0  0.94304148815E+01 -0.86944884499E+01 -0.54753878084E+01  0.13946566823E+02  0.51100000000E-03 0.  1.
        -12    1    3    3    0    0 -0.21066833197E+02 -0.13101662094E+02 -0.27289559994E+01  0.24958209299E+02  0.00000000000E+00 0.  1.
</event>
<event>
 7    1  0.2656097E-013  0.7246158E+02  0.7816164E-02  0.1226708E+00
        -11   -1    0    0    0    0  0.00000000000E+00  0.00000000000E+00  0.45593999997E+02  0.45594000000E+02  0.51100000000E-03 0.  1.
         11   -1    0    0    0    0 -0.00000000000E+00 -0.00000000000E+00 -0.45593999997E+02  0.45594000000E+02  0.51100000000E-03 0. -1.
    9900012    2    1    2    0    0  0.17882380942E+02  0.39028097375E+01 -0.39581924619E+01  0.72461581241E+02  0.70000014260E+02 0.  0.
        -12    1    1    2    0    0 -0.17882380942E+02 -0.39028097375E+01  0.39581924619E+01  0.18726418759E+02  0.00000000000E+00 0.  1.
         11    1    3    3    0    0  0.10529554134E+01 -0.10221364852E+02 -0.24462382775E+02  0.26532869913E+02  0.51100000000E-03 0. -1.
        -11    1    3    3    0    0 -0.37923760142E+01 -0.79385774896E+01 -0.10007629177E+01  0.88546403129E+01  0.51100000000E-03 0.  1.
        -12    1    3    3    0    0  0.20621801542E+02  0.22062752079E+02  0.21504953231E+02  0.37074071015E+02  0.00000000000E+00 0.  1.
</event>
<event>
 7    1  0.2656097E-013  0.7246157E+02  0.7816164E-02  0.1226708E+00
        -11   -1    0    0    0    0  0.00000000000E+00  0.00000000000E+00  0.45593999997E+02  0.45594000000E+02  0.51100000000E-03 0.  1.
         11   -1    0    0    0    0 -0.00000000000E+00 -0.00000000000E+00 -0.45593999997E+02  0.45594000000E+02  0.51100000000E-03 0. -1.
    9900012    2    1    2    0    0  0.19404015097E+01 -0.16574864095E+02 -0.84963415830E+01  0.72461572201E+02  0.70000002484E+02 0.  0.
        -12    1    1    2    0    0 -0.19404015097E+01  0.16574864095E+02  0.84963415830E+01  0.18726427799E+02  0.00000000000E+00 0.  1.
         11    1    3    3    0    0  0.73798990005E+01 -0.90710977342E+00  0.10011861983E+02  0.12470891629E+02  0.51100000000E-03 0. -1.
        -11    1    3    3    0    0  0.53755397226E+00 -0.25204051131E+02  0.11671661194E+02  0.27780583740E+02  0.51100000000E-03 0.  1.
         12    1    3    3    0    0 -0.59770514630E+01  0.95362968088E+01 -0.30179864760E+02  0.32210096832E+02  0.00000000000E+00 0. -1.
</event>
<event>
 7    1  0.2656097E-013  0.7246157E+02  0.7816164E-02  0.1226708E+00
        -11   -1    0    0    0    0  0.00000000000E+00  0.00000000000E+00  0.45593999997E+02  0.45594000000E+02  0.51100000000E-03 0. -1.
         11   -1    0    0    0    0 -0.00000000000E+00 -0.00000000000E+00 -0.45593999997E+02  0.45594000000E+02  0.51100000000E-03 0.  1.
    9900012    2    1    2    0    0 -0.72781291467E+01 -0.76274539212E+01  0.15476760334E+02  0.72461566073E+02  0.69999994501E+02 0.  0.
        -12    1    1    2    0    0  0.72781291467E+01  0.76274539212E+01 -0.15476760334E+02  0.18726433927E+02  0.00000000000E+00 0.  1.
         11    1    3    3    0    0  0.20250642991E+00  0.11474590877E+02  0.81946679108E+01  0.14101766807E+02  0.51100000000E-03 0. -1.
        -11    1    3    3    0    0 -0.14989275784E+02  0.72337833786E+01 -0.15495307332E+02  0.22740065085E+02  0.51100000000E-03 0.  1.
         12    1    3    3    0    0  0.75086402074E+01 -0.26335828176E+02  0.22777399755E+02  0.35619734181E+02  0.00000000000E+00 0. -1.
</event>
<event>
 7    1  0.2656097E-013  0.7246157E+02  0.7816164E-02  0.1226708E+00
        -11   -1    0    0    0    0  0.00000000000E+00  0.00000000000E+00  0.45593999997E+02  0.45594000000E+02  0.51100000000E-03 0.  1.
         11   -1    0    0    0    0 -0.00000000000E+00 -0.00000000000E+00 -0.45593999997E+02  0.45594000000E+02  0.51100000000E-03 0. -1.
    9900012    2    1    2    0    0 -0.11718593782E+02  0.35161867266E+01 -0.14177102100E+02  0.72461568592E+02  0.69999997783E+02 0.  0.
        -12    1    1    2    0    0  0.11718593782E+02 -0.35161867266E+01  0.14177102100E+02  0.18726431408E+02  0.00000000000E+00 0.  1.
         11    1    3    3    0    0 -0.16123123093E+01 -0.70685317918E+00  0.15804092162E+01  0.23657738589E+01  0.51100000000E-03 0. -1.
        -11    1    3    3    0    0  0.94714420498E+01  0.57273022654E+01  0.23625256029E+02  0.26089517597E+02  0.51100000000E-03 0.  1.
         12    1    3    3    0    0 -0.19577723522E+02 -0.15042623596E+01 -0.39382767346E+02  0.44006277136E+02  0.00000000000E+00 0. -1.
</event>
<event>
 7    1  0.2656097E-013  0.7246161E+02  0.7816164E-02  0.1226708E+00
        -11   -1    0    0    0    0  0.00000000000E+00  0.00000000000E+00  0.45593999997E+02  0.45594000000E+02  0.51100000000E-03 0.  1.
         11   -1    0    0    0    0 -0.00000000000E+00 -0.00000000000E+00 -0.45593999997E+02  0.45594000000E+02  0.51100000000E-03 0. -1.
    9900012    2    1    2    0    0  0.84174383174E+01 -0.12393772975E+02 -0.11234716789E+02  0.72461608524E+02  0.70000049801E+02 0.  0.
        -12    1    1    2    0    0 -0.84174383174E+01  0.12393772975E+02  0.11234716789E+02  0.18726391476E+02  0.00000000000E+00 0.  1.
         11    1    3    3    0    0  0.42158404583E+01 -0.93998630077E+01 -0.25597659619E+02  0.27592950432E+02  0.51100000000E-03 0. -1.
        -11    1    3    3    0    0  0.67347551455E+01 -0.78777407063E+01 -0.13188338259E+02  0.16773431128E+02  0.51100000000E-03 0.  1.
        -12    1    3    3    0    0 -0.25331572864E+01  0.48838307386E+01  0.27551281089E+02  0.28095226964E+02  0.00000000000E+00 0.  1.
</event>
<event>
 7    1  0.2656097E-013  0.7246164E+02  0.7816164E-02  0.1226708E+00
        -11   -1    0    0    0    0  0.00000000000E+00  0.00000000000E+00  0.45593999997E+02  0.45594000000E+02  0.51100000000E-03 0. -1.
         11   -1    0    0    0    0 -0.00000000000E+00 -0.00000000000E+00 -0.45593999997E+02  0.45594000000E+02  0.51100000000E-03 0.  1.
    9900012    2    1    2    0    0 -0.12052962115E+02  0.13436394862E+02  0.49865675005E+01  0.72461642691E+02  0.70000094310E+02 0.  0.
        -12    1    1    2    0    0  0.12052962115E+02 -0.13436394862E+02 -0.49865675005E+01  0.18726357309E+02  0.00000000000E+00 0.  1.
         11    1    3    3    0    0 -0.15279759477E+02 -0.10300939685E+02  0.24335543142E+01  0.18587700098E+02  0.51100000000E-03 0.  1.
        -11    1    3    3    0    0 -0.20339747360E+02  0.53717363848E+01  0.96809350603E+01  0.23157749856E+02  0.51100000000E-03 0. -1.
        -12    1    3    3    0    0  0.23566544722E+02  0.18365598162E+02 -0.71279218739E+01  0.30716192737E+02  0.00000000000E+00 0.  1.
</event>
<event>
 7    1  0.2656097E-013  0.7246159E+02  0.7816164E-02  0.1226708E+00
        -11   -1    0    0    0    0  0.00000000000E+00  0.00000000000E+00  0.45593999997E+02  0.45594000000E+02  0.51100000000E-03 0. -1.
         11   -1    0    0    0    0 -0.00000000000E+00 -0.00000000000E+00 -0.45593999997E+02  0.45594000000E+02  0.51100000000E-03 0.  1.
    9900012    2    1    2    0    0 -0.14329480405E+02 -0.34216806979E+01  0.11560133925E+02  0.72461585398E+02  0.70000019676E+02 0.  0.
        -12    1    1    2    0    0  0.14329480405E+02  0.34216806979E+01 -0.11560133925E+02  0.18726414602E+02  0.00000000000E+00 0.  1.
         11    1    3    3    0    0 -0.45541797074E+00 -0.13308770495E+02 -0.35892025106E+01  0.13791778440E+02  0.51100000000E-03 0. -1.
        -11    1    3    3    0    0 -0.29878611208E+02 -0.41454102231E+01 -0.35042003976E+01  0.30367667910E+02  0.51100000000E-03 0.  1.
         12    1    3    3    0    0  0.16004548774E+02  0.14032500020E+02  0.18653536834E+02  0.28302139048E+02  0.00000000000E+00 0. -1.
</event>
<event>
 7    1  0.2656097E-013  0.7246159E+02  0.7816164E-02  0.1226708E+00
        -11   -1    0    0    0    0  0.00000000000E+00  0.00000000000E+00  0.45593999997E+02  0.45594000000E+02  0.51100000000E-03 0. -1.
         11   -1    0    0    0    0 -0.00000000000E+00 -0.00000000000E+00 -0.45593999997E+02  0.45594000000E+02  0.51100000000E-03 0.  1.
    9900012    2    1    2    0    0 -0.55160993894E+01 -0.17663851315E+02  0.28704534556E+01  0.72461588203E+02  0.70000023329E+02 0.  0.
        -12    1    1    2    0    0  0.55160993894E+01  0.17663851315E+02 -0.28704534556E+01  0.18726411797E+02  0.00000000000E+00 0.  1.
         11    1    3    3    0    0 -0.12917513578E+02 -0.28423097278E+00  0.21446253413E+02  0.25037666225E+02  0.51100000000E-03 0. -1.
        -11    1    3    3    0    0 -0.15624305753E+02 -0.64876523218E+01 -0.13033420018E+02  0.21355996829E+02  0.51100000000E-03 0.  1.
        -12    1    3    3    0    0  0.23025719942E+02 -0.10891968020E+02 -0.55423799388E+01  0.26067925149E+02  0.00000000000E+00 0.  1.
</event>
<event>
 7    1  0.2656097E-013  0.7246157E+02  0.7816164E-02  0.1226708E+00
        -11   -1    0    0    0    0  0.00000000000E+00  0.00000000000E+00  0.45593999997E+02  0.45594000000E+02  0.51100000000E-03 0. -1.
         11   -1    0    0    0    0 -0.00000000000E+00 -0.00000000000E+00 -0.45593999997E+02  0.45594000000E+02  0.51100000000E-03 0.  1.
    9900012    2    1    2    0    0 -0.14973756652E+02  0.57281917663E+01 -0.96774793365E+01  0.72461570135E+02  0.69999999792E+02 0.  0.
        -12    1    1    2    0    0  0.14973756652E+02 -0.57281917663E+01  0.96774793365E+01  0.18726429865E+02  0.00000000000E+00 0.  1.
         11    1    3    3    0    0 -0.21051430948E+01  0.20146081707E+02 -0.19706052089E+02  0.28259949129E+02  0.51100000000E-03 0. -1.
        -11    1    3    3    0    0  0.12939934825E+02 -0.35422836546E+01 -0.22824448923E+01  0.13608792809E+02  0.51100000000E-03 0.  1.
        -12    1    3    3    0    0 -0.25808548382E+02 -0.10875606286E+02  0.12311017645E+02  0.30592828197E+02  0.00000000000E+00 0.  1.
</event>
<event>
 7    1  0.2656097E-013  0.7246156E+02  0.7816164E-02  0.1226708E+00
        -11   -1    0    0    0    0  0.00000000000E+00  0.00000000000E+00  0.45593999997E+02  0.45594000000E+02  0.51100000000E-03 0. -1.
         11   -1    0    0    0    0 -0.00000000000E+00 -0.00000000000E+00 -0.45593999997E+02  0.45594000000E+02  0.51100000000E-03 0.  1.
    9900012    2    1    2    0    0 -0.12917705936E+02  0.74647728330E+01  0.11317669090E+02  0.72461558968E+02  0.69999985245E+02 0.  0.
        -12    1    1    2    0    0  0.12917705936E+02 -0.74647728330E+01 -0.11317669090E+02  0.18726441032E+02  0.00000000000E+00 0.  1.
         11    1    3    3    0    0  0.77414724470E+01  0.11291959634E+02  0.12311723015E+02  0.18412421674E+02  0.51100000000E-03 0. -1.
        -11    1    3    3    0    0 -0.15820399068E+01  0.69310894012E+01 -0.22353371249E+02  0.23456684698E+02  0.51100000000E-03 0.  1.
         12    1    3    3    0    0 -0.19077138477E+02 -0.10758276203E+02  0.21359317323E+02  0.30592452596E+02  0.00000000000E+00 0. -1.
</event>
<event>
 7    1  0.2656097E-013  0.7246174E+02  0.7816164E-02  0.1226708E+00
        -11   -1    0    0    0    0  0.00000000000E+00  0.00000000000E+00  0.45593999997E+02  0.45594000000E+02  0.51100000000E-03 0.  1.
         11   -1    0    0    0    0 -0.00000000000E+00 -0.00000000000E+00 -0.45593999997E+02  0.45594000000E+02  0.51100000000E-03 0. -1.
    9900012    2    1    2    0    0  0.17626221008E+02 -0.39288202724E+01 -0.49551436445E+01  0.72461741850E+02  0.70000223483E+02 0.  0.
        -12    1    1    2    0    0 -0.17626221008E+02  0.39288202724E+01  0.49551436445E+01  0.18726258150E+02  0.00000000000E+00 0.  1.
         11    1    3    3    0    0  0.30626995239E+01  0.90270732940E+01  0.60512624682E+01  0.11290967999E+02  0.51100000000E-03 0. -1.
        -11    1    3    3    0    0 -0.13677212972E+02  0.13461879683E+02  0.41523674551E+01  0.19634930991E+02  0.51100000000E-03 0.  1.
         12    1    3    3    0    0  0.28240734456E+02 -0.26417773250E+02 -0.15158773568E+02  0.41535842861E+02  0.00000000000E+00 0. -1.
</event>
<event>
 7    1  0.2656097E-013  0.7246099E+02  0.7816164E-02  0.1226710E+00
        -11   -1    0    0    0    0  0.00000000000E+00  0.00000000000E+00  0.45593999997E+02  0.45594000000E+02  0.51100000000E-03 0. -1.
         11   -1    0    0    0    0 -0.00000000000E+00 -0.00000000000E+00 -0.45593999997E+02  0.45594000000E+02  0.51100000000E-03 0.  1.
    9900012    2    1    2    0    0  0.60918916894E+01 -0.14211654252E+02  0.10564964523E+02  0.72460994465E+02  0.69999249871E+02 0.  0.
        -12    1    1    2    0    0 -0.60918916894E+01  0.14211654252E+02 -0.10564964523E+02  0.18727005535E+02  0.00000000000E+00 0.  1.
         11    1    3    3    0    0 -0.32555132328E+01  0.42144263254E+01  0.13620978747E+02  0.14625006596E+02  0.51100000000E-03 0. -1.
        -11    1    3    3    0    0  0.18005478143E+02  0.14868967405E+02 -0.10292669180E+01  0.23373977528E+02  0.51100000000E-03 0.  1.
        -12    1    3    3    0    0 -0.86580732210E+01 -0.33295047982E+02 -0.20267473053E+01  0.34462010340E+02  0.00000000000E+00 0.  1.
</event>
<event>
 7    1  0.2656097E-013  0.7246177E+02  0.7816164E-02  0.1226707E+00
        -11   -1    0    0    0    0  0.00000000000E+00  0.00000000000E+00  0.45593999997E+02  0.45594000000E+02  0.51100000000E-03 0.  1.
         11   -1    0    0    0    0 -0.00000000000E+00 -0.00000000000E+00 -0.45593999997E+02  0.45594000000E+02  0.51100000000E-03 0. -1.
    9900012    2    1    2    0    0 -0.88459259623E+01 -0.10091980879E+02 -0.13060371555E+02  0.72461767347E+02  0.70000256698E+02 0.  0.
        -12    1    1    2    0    0  0.88459259623E+01  0.10091980879E+02  0.13060371555E+02  0.18726232653E+02  0.00000000000E+00 0.  1.
         11    1    3    3    0    0 -0.12081400995E+02 -0.10967503067E+01 -0.47115049581E+01  0.13013892210E+02  0.51100000000E-03 0. -1.
        -11    1    3    3    0    0 -0.27386832564E+02 -0.28940384437E+01 -0.55999627405E+01  0.28102911581E+02  0.51100000000E-03 0.  1.
        -12    1    3    3    0    0  0.30622307596E+02 -0.61011921287E+01 -0.27489038568E+01  0.31344963556E+02  0.00000000000E+00 0.  1.
</event>
<event>
 7    1  0.2656097E-013  0.7246158E+02  0.7816164E-02  0.1226708E+00
        -11   -1    0    0    0    0  0.00000000000E+00  0.00000000000E+00  0.45593999997E+02  0.45594000000E+02  0.51100000000E-03 0. -1.
         11   -1    0    0    0    0 -0.00000000000E+00 -0.00000000000E+00 -0.45593999997E+02  0.45594000000E+02  0.51100000000E-03 0.  1.
    9900012    2    1    2    0    0 -0.97541189887E+01  0.15966895481E+02  0.77093605015E+00  0.72461576664E+02  0.70000008298E+02 0.  0.
        -12    1    1    2    0    0  0.97541189887E+01 -0.15966895481E+02 -0.77093605015E+00  0.18726423336E+02  0.00000000000E+00 0.  1.
         11    1    3    3    0    0  0.87089857091E+01  0.23269169941E+01 -0.11058767568E+02  0.14267351372E+02  0.51100000000E-03 0. -1.
        -11    1    3    3    0    0  0.35417774006E+01 -0.21760517399E+01 -0.17660920720E+02  0.18143525272E+02  0.51100000000E-03 0.  1.
         12    1    3    3    0    0 -0.22004882098E+02  0.15816030227E+02  0.29490624338E+02  0.40050700021E+02  0.00000000000E+00 0. -1.
</event>
<event>
 7    1  0.2656097E-013  0.7246174E+02  0.7816164E-02  0.1226708E+00
        -11   -1    0    0    0    0  0.00000000000E+00  0.00000000000E+00  0.45593999997E+02  0.45594000000E+02  0.51100000000E-03 0. -1.
         11   -1    0    0    0    0 -0.00000000000E+00 -0.00000000000E+00 -0.45593999997E+02  0.45594000000E+02  0.51100000000E-03 0.  1.
    9900012    2    1    2    0    0 -0.52233815568E+01 -0.10447503475E+02  0.14636902869E+02  0.72461735842E+02  0.70000215656E+02 0.  0.
        -12    1    1    2    0    0  0.52233815568E+01  0.10447503475E+02 -0.14636902869E+02  0.18726264158E+02  0.00000000000E+00 0.  1.
         11    1    3    3    0    0  0.14869010045E+02 -0.10086452213E+02  0.36378113320E+02  0.40573280703E+02  0.51100000000E-03 0. -1.
        -11    1    3    3    0    0 -0.51895519336E+01  0.21956981796E+01 -0.28827031143E+00  0.56423080208E+01  0.51100000000E-03 0.  1.
        -12    1    3    3    0    0 -0.14902839669E+02 -0.25567494415E+01 -0.21452940140E+02  0.26246147118E+02  0.00000000000E+00 0.  1.
</event>
<event>
 7    1  0.2656097E-013  0.7246141E+02  0.7816164E-02  0.1226708E+00
        -11   -1    0    0    0    0  0.00000000000E+00  0.00000000000E+00  0.45593999997E+02  0.45594000000E+02  0.51100000000E-03 0.  1.
         11   -1    0    0    0    0 -0.00000000000E+00 -0.00000000000E+00 -0.45593999997E+02  0.45594000000E+02  0.51100000000E-03 0. -1.
    9900012    2    1    2    0    0 -0.98047084990E+01 -0.12643460002E+01 -0.15904537136E+02  0.72461409785E+02  0.69999790906E+02 0.  0.
        -12    1    1    2    0    0  0.98047084990E+01  0.12643460002E+01  0.15904537136E+02  0.18726590215E+02  0.00000000000E+00 0.  1.
         11    1    3    3    0    0  0.66623746998E+01 -0.47162261892E+01 -0.10174306448E+01  0.82258854530E+01  0.51100000000E-03 0. -1.
        -11    1    3    3    0    0  0.22778660361E+02 -0.19893996541E+01 -0.53955486059E+01  0.23493339989E+02  0.51100000000E-03 0.  1.
        -12    1    3    3    0    0 -0.39245743560E+02  0.54412798431E+01 -0.94915578858E+01  0.40742184343E+02  0.00000000000E+00 0.  1.
</event>
<event>
 7    1  0.2656097E-013  0.7246153E+02  0.7816164E-02  0.1226708E+00
        -11   -1    0    0    0    0  0.00000000000E+00  0.00000000000E+00  0.45593999997E+02  0.45594000000E+02  0.51100000000E-03 0.  1.
         11   -1    0    0    0    0 -0.00000000000E+00 -0.00000000000E+00 -0.45593999997E+02  0.45594000000E+02  0.51100000000E-03 0. -1.
    9900012    2    1    2    0    0 -0.14505468493E+01  0.80283738300E+01 -0.16855910360E+02  0.72461532459E+02  0.69999950712E+02 0.  0.
        -12    1    1    2    0    0  0.14505468493E+01 -0.80283738300E+01  0.16855910360E+02  0.18726467541E+02  0.00000000000E+00 0.  1.
         11    1    3    3    0    0  0.38632271145E+01 -0.22425033384E+01 -0.15135134330E+02  0.15780546138E+02  0.51100000000E-03 0. -1.
        -11    1    3    3    0    0 -0.16154926582E+02  0.28233864403E+02 -0.10141633059E+02  0.34073236907E+02  0.51100000000E-03 0.  1.
         12    1    3    3    0    0  0.10841152618E+02 -0.17962987234E+02  0.84208570284E+01  0.22607749414E+02  0.00000000000E+00 0. -1.
</event>
<event>
 7    1  0.2656097E-013  0.7246094E+02  0.7816164E-02  0.1226710E+00
        -11   -1    0    0    0    0  0.00000000000E+00  0.00000000000E+00  0.45593999997E+02  0.45594000000E+02  0.51100000000E-03 0. -1.
         11   -1    0    0    0    0 -0.00000000000E+00 -0.00000000000E+00 -0.45593999997E+02  0.45594000000E+02  0.51100000000E-03 0.  1.
    9900012    2    1    2    0    0 -0.14944970483E+02  0.90617009901E+01  0.67257906086E+01  0.72460938648E+02  0.69999177159E+02 0.  0.
        -12    1    1    2    0    0  0.14944970483E+02 -0.90617009901E+01 -0.67257906086E+01  0.18727061352E+02  0.00000000000E+00 0.  1.
         11    1    3    3    0    0 -0.15743401857E+01 -0.20984175629E+01 -0.35006146849E+01  0.43744950248E+01  0.51100000000E-03 0. -1.
        -11    1    3    3    0    0 -0.30857892960E+02 -0.92969975963E+01 -0.10740205727E+02  0.33970512824E+02  0.51100000000E-03 0.  1.
         12    1    3    3    0    0  0.17487262663E+02  0.20457116149E+02  0.20966611021E+02  0.34115930799E+02  0.00000000000E+00 0. -1.
</event>
<event>
 7    1  0.2656097E-013  0.7246155E+02  0.7816164E-02  0.1226708E+00
        -11   -1    0    0    0    0  0.00000000000E+00  0.00000000000E+00  0.45593999997E+02  0.45594000000E+02  0.51100000000E-03 0. -1.
         11   -1    0    0    0    0 -0.00000000000E+00 -0.00000000000E+00 -0.45593999997E+02  0.45594000000E+02  0.51100000000E-03 0.  1.
    9900012    2    1    2    0    0  0.31350941981E+01  0.14075533200E+02  0.11946988541E+02  0.72461548502E+02  0.69999971612E+02 0.  0.
        -12    1    1    2    0    0 -0.31350941981E+01 -0.14075533200E+02 -0.11946988541E+02  0.18726451498E+02  0.00000000000E+00 0.  1.
         11    1    3    3    0    0  0.65767189738E+01  0.27014921235E+01 -0.56476237336E+00  0.71323382528E+01  0.51100000000E-03 0. -1.
        -11    1    3    3    0    0  0.22814207448E+01  0.44940603668E+01 -0.25645764951E+02  0.26136310362E+02  0.51100000000E-03 0.  1.
         12    1    3    3    0    0 -0.57230455205E+01  0.68799807100E+01  0.38157515865E+02  0.39192899887E+02  0.00000000000E+00 0. -1.
</event>
<event>
 7    1  0.2656097E-013  0.7246153E+02  0.7816164E-02  0.1226708E+00
        -11   -1    0    0    0    0  0.00000000000E+00  0.00000000000E+00  0.45593999997E+02  0.45594000000E+02  0.51100000000E-03 0.  1.
         11   -1    0    0    0    0 -0.00000000000E+00 -0.00000000000E+00 -0.45593999997E+02  0.45594000000E+02  0.51100000000E-03 0. -1.
    9900012    2    1    2    0    0 -0.10293217842E+02 -0.93834898491E+01  0.12517209920E+02  0.72461527842E+02  0.69999944698E+02 0.  0.
        -12    1    1    2    0    0  0.10293217842E+02  0.93834898491E+01 -0.12517209920E+02  0.18726472158E+02  0.00000000000E+00 0.  1.
         11    1    3    3    0    0  0.71030785081E+01 -0.10187037014E+02  0.11832834810E+02  0.17153583513E+02  0.51100000000E-03 0. -1.
        -11    1    3    3    0    0  0.14911885687E+02 -0.13259714344E+02 -0.14494827453E+01  0.20007132722E+02  0.51100000000E-03 0.  1.
         12    1    3    3    0    0 -0.32308182038E+02  0.14063261509E+02  0.21338578552E+01  0.35300811608E+02  0.00000000000E+00 0. -1.
</event>
<event>
 7    1  0.2656097E-013  0.7246157E+02  0.7816164E-02  0.1226708E+00
        -11   -1    0    0    0    0  0.00000000000E+00  0.00000000000E+00  0.45593999997E+02  0.45594000000E+02  0.51100000000E-03 0.  1.
         11   -1    0    0    0    0 -0.00000000000E+00 -0.00000000000E+00 -0.45593999997E+02  0.45594000000E+02  0.51100000000E-03 0. -1.
    9900012    2    1    2    0    0 -0.34261289862E+01  0.57712539525E+01 -0.17482375230E+02  0.72461570129E+02  0.69999999785E+02 0.  0.
        -12    1    1    2    0    0  0.34261289862E+01 -0.57712539525E+01  0.17482375230E+02  0.18726429871E+02  0.00000000000E+00 0.  1.
         11    1    3    3    0    0  0.10170112724E+01  0.37420780500E+01 -0.19531118117E+02  0.19912358856E+02  0.51100000000E-03 0. -1.
        -11    1    3    3    0    0  0.23683815038E+02  0.49985106052E+01  0.16760812685E+01  0.24263500401E+02  0.51100000000E-03 0.  1.
        -12    1    3    3    0    0 -0.28126955297E+02 -0.29693347027E+01  0.37266161858E+00  0.28285710872E+02  0.00000000000E+00 0.  1.
</event>
<event>
 7    1  0.2656097E-013  0.7246166E+02  0.7816164E-02  0.1226708E+00
        -11   -1    0    0    0    0  0.00000000000E+00  0.00000000000E+00  0.45593999997E+02  0.45594000000E+02  0.51100000000E-03 0.  1.
         11   -1    0    0    0    0 -0.00000000000E+00 -0.00000000000E+00 -0.45593999997E+02  0.45594000000E+02  0.51100000000E-03 0. -1.
    9900012    2    1    2    0    0  0.13183209146E+02 -0.96173674266E+00 -0.13264756775E+02  0.72461662578E+02  0.70000120216E+02 0.  0.
        -12    1    1    2    0    0 -0.13183209146E+02  0.96173674266E+00  0.13264756775E+02  0.18726337422E+02  0.00000000000E+00 0.  1.
         11    1    3    3    0    0  0.14659840774E+01 -0.93070793435E+01  0.92459168303E+01  0.13200674737E+02  0.51100000000E-03 0. -1.
        -11    1    3    3    0    0  0.28945409223E+01 -0.10878409252E+02  0.13451118351E+02  0.17539975490E+02  0.51100000000E-03 0.  1.
         12    1    3    3    0    0  0.88226841464E+01  0.19223751853E+02 -0.35961791957E+02  0.41721012351E+02  0.00000000000E+00 0. -1.
</event>
<event>
 7    1  0.2656097E-013  0.7246156E+02  0.7816164E-02  0.1226708E+00
        -11   -1    0    0    0    0  0.00000000000E+00  0.00000000000E+00  0.45593999997E+02  0.45594000000E+02  0.51100000000E-03 0. -1.
         11   -1    0    0    0    0 -0.00000000000E+00 -0.00000000000E+00 -0.45593999997E+02  0.45594000000E+02  0.51100000000E-03 0.  1.
    9900012    2    1    2    0    0 -0.41446252753E+01  0.18097487417E+02 -0.24459170710E+01  0.72461562010E+02  0.69999989208E+02 0.  0.
        -12    1    1    2    0    0  0.41446252753E+01 -0.18097487417E+02  0.24459170710E+01  0.18726437990E+02  0.00000000000E+00 0.  1.
         11    1    3    3    0    0 -0.97884499621E+01 -0.71788208867E+01 -0.63291302366E+01  0.13689671720E+02  0.51100000000E-03 0. -1.
        -11    1    3    3    0    0  0.16522704090E+02  0.28680811569E+01 -0.18722055367E+02  0.25134458367E+02  0.51100000000E-03 0.  1.
         12    1    3    3    0    0 -0.10878879403E+02  0.22408227147E+02  0.22605268533E+02  0.33637431923E+02  0.00000000000E+00 0. -1.
</event>
<event>
 7    1  0.2656097E-013  0.7246161E+02  0.7816164E-02  0.1226708E+00
        -11   -1    0    0    0    0  0.00000000000E+00  0.00000000000E+00  0.45593999997E+02  0.45594000000E+02  0.51100000000E-03 0.  1.
         11   -1    0    0    0    0 -0.00000000000E+00 -0.00000000000E+00 -0.45593999997E+02  0.45594000000E+02  0.51100000000E-03 0. -1.
    9900012    2    1    2    0    0 -0.17946718626E+02  0.36363257759E+00 -0.53348776410E+01  0.72461605325E+02  0.70000045634E+02 0.  0.
        -12    1    1    2    0    0  0.17946718626E+02 -0.36363257759E+00  0.53348776410E+01  0.18726394675E+02  0.00000000000E+00 0.  1.
         11    1    3    3    0    0 -0.12786987327E+02 -0.74997246123E+01 -0.34084754482E+01  0.15210871747E+02  0.51100000000E-03 0. -1.
        -11    1    3    3    0    0 -0.19560998040E+02  0.11821031102E+02  0.20235432620E+02  0.30526089730E+02  0.51100000000E-03 0.  1.
         12    1    3    3    0    0  0.14401266741E+02 -0.39576739124E+01 -0.22161834812E+02  0.26724643848E+02  0.00000000000E+00 0. -1.
</event>
<event>
 7    1  0.2656097E-013  0.7246168E+02  0.7816164E-02  0.1226708E+00
        -11   -1    0    0    0    0  0.00000000000E+00  0.00000000000E+00  0.45593999997E+02  0.45594000000E+02  0.51100000000E-03 0.  1.
         11   -1    0    0    0    0 -0.00000000000E+00 -0.00000000000E+00 -0.45593999997E+02  0.45594000000E+02  0.51100000000E-03 0. -1.
    9900012    2    1    2    0    0  0.13131016609E+02 -0.12158940136E+02 -0.55146684451E+01  0.72461681877E+02  0.70000145357E+02 0.  0.
        -12    1    1    2    0    0 -0.13131016609E+02  0.12158940136E+02  0.55146684451E+01  0.18726318123E+02  0.00000000000E+00 0.  1.
         11    1    3    3    0    0  0.15170891297E+02 -0.16146142793E+02 -0.62087206816E+01  0.23008739266E+02  0.51100000000E-03 0. -1.
        -11    1    3    3    0    0  0.18466897620E+02  0.81240901394E+01  0.14093196681E+02  0.24609862682E+02  0.51100000000E-03 0.  1.
         12    1    3    3    0    0 -0.20506772308E+02 -0.41368874820E+01 -0.13399144444E+02  0.24843079929E+02  0.00000000000E+00 0. -1.
</event>
<event>
 7    1  0.2656097E-013  0.7246156E+02  0.7816164E-02  0.1226708E+00
        -11   -1    0    0    0    0  0.00000000000E+00  0.00000000000E+00  0.45593999997E+02  0.45594000000E+02  0.51100000000E-03 0.  1.
         11   -1    0    0    0    0 -0.00000000000E+00 -0.00000000000E+00 -0.45593999997E+02  0.45594000000E+02  0.51100000000E-03 0. -1.
    9900012    2    1    2    0    0  0.28472145397E+01  0.60276256456E+01 -0.17499735511E+02  0.72461557612E+02  0.69999983478E+02 0.  0.
        -12    1    1    2    0    0 -0.28472145397E+01 -0.60276256456E+01  0.17499735511E+02  0.18726442388E+02  0.00000000000E+00 0.  1.
         11    1    3    3    0    0  0.24787955354E+02  0.98980489408E+01 -0.11576495865E+02  0.29093459063E+02  0.51100000000E-03 0. -1.
        -11    1    3    3    0    0  0.98974413364E+01  0.29218256648E+01 -0.26144749165E+01  0.10645745139E+02  0.51100000000E-03 0.  1.
        -12    1    3    3    0    0 -0.31838182151E+02 -0.67922489599E+01 -0.33087647293E+01  0.32722353409E+02  0.00000000000E+00 0.  1.
</event>
<event>
 7    1  0.3627942E-013  0.7246149E+02  0.7816164E-02  0.1226708E+00
        -11   -1    0    0    0    0  0.00000000000E+00  0.00000000000E+00  0.45593999997E+02  0.45594000000E+02  0.51100000000E-03 0. -1.
         11   -1    0    0    0    0 -0.00000000000E+00 -0.00000000000E+00 -0.45593999997E+02  0.45594000000E+02  0.51100000000E-03 0.  1.
    9900012    2    1    2    0    0  0.68365233427E+01 -0.83731939161E+01  0.15291625717E+02  0.72461488183E+02  0.69999893035E+02 0.  0.
        -12    1    1    2    0    0 -0.68365233427E+01  0.83731939161E+01 -0.15291625717E+02  0.18726511817E+02  0.00000000000E+00 0.  1.
         11    1    3    3    0    0  0.72561175567E+01 -0.79361989240E+01  0.27965267522E+02  0.29961486666E+02  0.51100000000E-03 0. -1.
        -11    1    3    3    0    0 -0.13983217760E+02  0.43891318201E+01  0.84647348342E+01  0.16924733177E+02  0.51100000000E-03 0.  1.
        -12    1    3    3    0    0  0.13563623545E+02 -0.48261268122E+01 -0.21138376640E+02  0.25575268340E+02  0.00000000000E+00 0.  1.
</event>
<event>
 7    1  0.2656097E-013  0.7246156E+02  0.7816164E-02  0.1226708E+00
        -11   -1    0    0    0    0  0.00000000000E+00  0.00000000000E+00  0.45593999997E+02  0.45594000000E+02  0.51100000000E-03 0.  1.
         11   -1    0    0    0    0 -0.00000000000E+00 -0.00000000000E+00 -0.45593999997E+02  0.45594000000E+02  0.51100000000E-03 0. -1.
    9900012    2    1    2    0    0  0.18630739831E+02  0.18061289865E+01 -0.55942372660E+00  0.72461560844E+02  0.69999987689E+02 0.  0.
        -12    1    1    2    0    0 -0.18630739831E+02 -0.18061289865E+01  0.55942372660E+00  0.18726439156E+02  0.00000000000E+00 0.  1.
         11    1    3    3    0    0  0.78448040695E+01  0.63626797091E+01 -0.32265819097E+01  0.10603559546E+02  0.51100000000E-03 0. -1.
        -11    1    3    3    0    0  0.20536529452E+02  0.23796295044E+02  0.48114899186E+01  0.31798791412E+02  0.51100000000E-03 0.  1.
         12    1    3    3    0    0 -0.97505936911E+01 -0.28352845766E+02 -0.21443317356E+01  0.30059209886E+02  0.00000000000E+00 0. -1.
</event>
<event>
 7    1  0.2656097E-013  0.7246154E+02  0.7816164E-02  0.1226708E+00
        -11   -1    0    0    0    0  0.00000000000E+00  0.00000000000E+00  0.45593999997E+02  0.45594000000E+02  0.51100000000E-03 0.  1.
         11   -1    0    0    0    0 -0.00000000000E+00 -0.00000000000E+00 -0.45593999997E+02  0.45594000000E+02  0.51100000000E-03 0. -1.
    9900012    2    1    2    0    0 -0.18275397227E+02 -0.25431073680E+00  0.40774270431E+01  0.72461542005E+02  0.69999963148E+02 0.  0.
        -12    1    1    2    0    0  0.18275397227E+02  0.25431073680E+00 -0.40774270431E+01  0.18726457995E+02  0.00000000000E+00 0.  1.
         11    1    3    3    0    0 -0.27772205446E+02 -0.30871103074E+00 -0.30531357727E+01  0.27941230040E+02  0.51100000000E-03 0. -1.
        -11    1    3    3    0    0 -0.77268819748E+01  0.17261879881E+02 -0.75843198825E+00  0.18927557196E+02  0.51100000000E-03 0.  1.
        -12    1    3    3    0    0  0.17223690194E+02 -0.17207479587E+02  0.78889948041E+01  0.25592754769E+02  0.00000000000E+00 0.  1.
</event>
<event>
 7    1  0.2656097E-013  0.7246159E+02  0.7816164E-02  0.1226708E+00
        -11   -1    0    0    0    0  0.00000000000E+00  0.00000000000E+00  0.45593999997E+02  0.45594000000E+02  0.51100000000E-03 0.  1.
         11   -1    0    0    0    0 -0.00000000000E+00 -0.00000000000E+00 -0.45593999997E+02  0.45594000000E+02  0.51100000000E-03 0. -1.
    9900012    2    1    2    0    0 -0.12979282309E+02 -0.24214898879E+01  0.13279794106E+02  0.72461593136E+02  0.70000029755E+02 0.  0.
        -12    1    1    2    0    0  0.12979282309E+02  0.24214898879E+01 -0.13279794106E+02  0.18726406864E+02  0.00000000000E+00 0.  1.
         11    1    3    3    0    0 -0.43313633914E+00 -0.84450517007E+01  0.84576359653E+01  0.11959854167E+02  0.51100000000E-03 0. -1.
        -11    1    3    3    0    0  0.12210074861E+02 -0.16521782294E+02  0.15077064111E+02  0.25482799704E+02  0.51100000000E-03 0.  1.
         12    1    3    3    0    0 -0.24756220831E+02  0.22545344107E+02 -0.10254905970E+02  0.35018939264E+02  0.00000000000E+00 0. -1.
</event>
<event>
 7    1  0.2656097E-013  0.7246159E+02  0.7816164E-02  0.1226708E+00
        -11   -1    0    0    0    0  0.00000000000E+00  0.00000000000E+00  0.45593999997E+02  0.45594000000E+02  0.51100000000E-03 0.  1.
         11   -1    0    0    0    0 -0.00000000000E+00 -0.00000000000E+00 -0.45593999997E+02  0.45594000000E+02  0.51100000000E-03 0. -1.
    9900012    2    1    2    0    0 -0.16154754682E+02  0.74462991791E+01 -0.58527601442E+01  0.72461594269E+02  0.70000031231E+02 0.  0.
        -12    1    1    2    0    0  0.16154754682E+02 -0.74462991791E+01  0.58527601442E+01  0.18726405731E+02  0.00000000000E+00 0.  1.
         11    1    3    3    0    0 -0.25908676519E+01  0.68082085593E+01 -0.58411994652E+00  0.73079063588E+01  0.51100000000E-03 0. -1.
        -11    1    3    3    0    0 -0.34302110196E+02 -0.37958840836E+01  0.13281061997E+02  0.36978779157E+02  0.51100000000E-03 0.  1.
         12    1    3    3    0    0  0.20738223166E+02  0.44339747034E+01 -0.18549702195E+02  0.28174908753E+02  0.00000000000E+00 0. -1.
</event>
<event>
 7    1  0.2656097E-013  0.7246159E+02  0.7816164E-02  0.1226708E+00
        -11   -1    0    0    0    0  0.00000000000E+00  0.00000000000E+00  0.45593999997E+02  0.45594000000E+02  0.51100000000E-03 0. -1.
         11   -1    0    0    0    0 -0.00000000000E+00 -0.00000000000E+00 -0.45593999997E+02  0.45594000000E+02  0.51100000000E-03 0.  1.
    9900012    2    1    2    0    0  0.30988012335E+01  0.17955013737E+02  0.43235990488E+01  0.72461585605E+02  0.70000019944E+02 0.  0.
        -12    1    1    2    0    0 -0.30988012335E+01 -0.17955013737E+02 -0.43235990488E+01  0.18726414395E+02  0.00000000000E+00 0.  1.
         11    1    3    3    0    0  0.75682013037E+01 -0.19827887526E+02  0.59052860461E+01  0.22029416657E+02  0.51100000000E-03 0. -1.
        -11    1    3    3    0    0  0.36839644912E+01 -0.49227071856E+01 -0.31872953510E+01  0.69255680145E+01  0.51100000000E-03 0.  1.
        -12    1    3    3    0    0 -0.81533645614E+01  0.42705608448E+02  0.16056083537E+01  0.43506600933E+02  0.00000000000E+00 0.  1.
</event>
<event>
 7    1  0.2656097E-013  0.7246157E+02  0.7816164E-02  0.1226708E+00
        -11   -1    0    0    0    0  0.00000000000E+00  0.00000000000E+00  0.45593999997E+02  0.45594000000E+02  0.51100000000E-03 0.  1.
         11   -1    0    0    0    0 -0.00000000000E+00 -0.00000000000E+00 -0.45593999997E+02  0.45594000000E+02  0.51100000000E-03 0. -1.
    9900012    2    1    2    0    0  0.10282618062E+02 -0.15067627472E+02 -0.42324580800E+01  0.72461565923E+02  0.69999994306E+02 0.  0.
        -12    1    1    2    0    0 -0.10282618062E+02  0.15067627472E+02  0.42324580800E+01  0.18726434077E+02  0.00000000000E+00 0.  1.
         11    1    3    3    0    0  0.84641064570E+01 -0.24095401025E+02 -0.27502581260E+02  0.37531605680E+02  0.51100000000E-03 0. -1.
        -11    1    3    3    0    0 -0.66429976099E+01 -0.58835730698E+01  0.87569115836E+01  0.12467130787E+02  0.51100000000E-03 0.  1.
        -12    1    3    3    0    0  0.84615092147E+01  0.14911346623E+02  0.14513211597E+02  0.22462829456E+02  0.00000000000E+00 0.  1.
</event>
<event>
 7    1  0.2656097E-013  0.7246157E+02  0.7816164E-02  0.1226708E+00
        -11   -1    0    0    0    0  0.00000000000E+00  0.00000000000E+00  0.45593999997E+02  0.45594000000E+02  0.51100000000E-03 0.  1.
         11   -1    0    0    0    0 -0.00000000000E+00 -0.00000000000E+00 -0.45593999997E+02  0.45594000000E+02  0.51100000000E-03 0. -1.
    9900012    2    1    2    0    0 -0.15917689929E+02 -0.77808019103E+01 -0.60634580444E+01  0.72461568026E+02  0.69999997045E+02 0.  0.
        -12    1    1    2    0    0  0.15917689929E+02  0.77808019103E+01  0.60634580444E+01  0.18726431974E+02  0.00000000000E+00 0.  1.
         11    1    3    3    0    0 -0.27378091681E+02 -0.20700396339E+02  0.41989056521E+01  0.34578853678E+02  0.51100000000E-03 0. -1.
        -11    1    3    3    0    0 -0.63530018651E+01 -0.55402498598E+01  0.30710480252E+01  0.89714178055E+01  0.51100000000E-03 0.  1.
        -12    1    3    3    0    0  0.17813403618E+02  0.18459844289E+02 -0.13333411722E+02  0.28911296542E+02  0.00000000000E+00 0.  1.
</event>
<event>
 7    1  0.2656097E-013  0.7246157E+02  0.7816164E-02  0.1226708E+00
        -11   -1    0    0    0    0  0.00000000000E+00  0.00000000000E+00  0.45593999997E+02  0.45594000000E+02  0.51100000000E-03 0.  1.
         11   -1    0    0    0    0 -0.00000000000E+00 -0.00000000000E+00 -0.45593999997E+02  0.45594000000E+02  0.51100000000E-03 0. -1.
    9900012    2    1    2    0    0  0.72601361233E+01  0.11162166475E+02 -0.13167214318E+02  0.72461572956E+02  0.70000003467E+02 0.  0.
        -12    1    1    2    0    0 -0.72601361233E+01 -0.11162166475E+02  0.13167214318E+02  0.18726427044E+02  0.00000000000E+00 0.  1.
         11    1    3    3    0    0 -0.16793021706E+02 -0.90341371668E+01  0.29580700662E+01  0.19296926987E+02  0.51100000000E-03 0. -1.
        -11    1    3    3    0    0  0.26307105411E+01  0.49323976881E+01  0.12860443967E+02  0.14022845795E+02  0.51100000000E-03 0.  1.
        -12    1    3    3    0    0  0.21422447288E+02  0.15263905953E+02 -0.28985728352E+02  0.39141800174E+02  0.00000000000E+00 0.  1.
</event>
<event>
 7    1  0.2656097E-013  0.7246152E+02  0.7816164E-02  0.1226708E+00
        -11   -1    0    0    0    0  0.00000000000E+00  0.00000000000E+00  0.45593999997E+02  0.45594000000E+02  0.51100000000E-03 0.  1.
         11   -1    0    0    0    0 -0.00000000000E+00 -0.00000000000E+00 -0.45593999997E+02  0.45594000000E+02  0.51100000000E-03 0. -1.
    9900012    2    1    2    0    0  0.33870677568E+01 -0.75385561853E+01 -0.16804132443E+02  0.72461523436E+02  0.69999938959E+02 0.  0.
        -12    1    1    2    0    0 -0.33870677568E+01  0.75385561853E+01  0.16804132443E+02  0.18726476564E+02  0.00000000000E+00 0.  1.
         11    1    3    3    0    0 -0.14109149624E+02 -0.12078282126E+02  0.22595651069E+01  0.18709854007E+02  0.51100000000E-03 0.  1.
        -11    1    3    3    0    0  0.84014220631E+01 -0.74440468596E+01  0.13692802830E+02  0.17705665080E+02  0.51100000000E-03 0. -1.
         12    1    3    3    0    0  0.90947953178E+01  0.11983772801E+02 -0.32756500379E+02  0.36046004349E+02  0.00000000000E+00 0. -1.
</event>
<event>
 7    1  0.2656097E-013  0.7246161E+02  0.7816164E-02  0.1226708E+00
        -11   -1    0    0    0    0  0.00000000000E+00  0.00000000000E+00  0.45593999997E+02  0.45594000000E+02  0.51100000000E-03 0.  1.
         11   -1    0    0    0    0 -0.00000000000E+00 -0.00000000000E+00 -0.45593999997E+02  0.45594000000E+02  0.51100000000E-03 0. -1.
    9900012    2    1    2    0    0 -0.99541259427E+01 -0.83428891349E+01  0.13490346270E+02  0.72461605129E+02  0.70000045378E+02 0.  0.
        -12    1    1    2    0    0  0.99541259427E+01  0.83428891349E+01 -0.13490346270E+02  0.18726394871E+02  0.00000000000E+00 0.  1.
         11    1    3    3    0    0 -0.98051568677E+01  0.21514330567E+02  0.49794190501E+01  0.24161997750E+02  0.51100000000E-03 0. -1.
        -11    1    3    3    0    0  0.52947600946E+01  0.15625911077E+01  0.14801198733E+02  0.15797204171E+02  0.51100000000E-03 0.  1.
        -12    1    3    3    0    0 -0.54437291695E+01 -0.31419810809E+02 -0.62902715131E+01  0.32502403208E+02  0.00000000000E+00 0.  1.
</event>
<event>
 7    1  0.2656097E-013  0.7246158E+02  0.7816164E-02  0.1226708E+00
        -11   -1    0    0    0    0  0.00000000000E+00  0.00000000000E+00  0.45593999997E+02  0.45594000000E+02  0.51100000000E-03 0.  1.
         11   -1    0    0    0    0 -0.00000000000E+00 -0.00000000000E+00 -0.45593999997E+02  0.45594000000E+02  0.51100000000E-03 0. -1.
    9900012    2    1    2    0    0 -0.16835173612E+02 -0.81670629598E+01 -0.74495450947E+00  0.72461576285E+02  0.70000007804E+02 0.  0.
        -12    1    1    2    0    0  0.16835173612E+02  0.81670629598E+01  0.74495450947E+00  0.18726423715E+02  0.00000000000E+00 0.  1.
         11    1    3    3    0    0 -0.14403392745E+02 -0.21106948382E+02 -0.18894866420E+02  0.31780134831E+02  0.51100000000E-03 0. -1.
        -11    1    3    3    0    0 -0.15774659346E+01 -0.86241922740E+01 -0.41053536724E+01  0.96808584428E+01  0.51100000000E-03 0.  1.
        -12    1    3    3    0    0 -0.85431493237E+00  0.21564077696E+02  0.22255265583E+02  0.31000583011E+02  0.00000000000E+00 0.  1.
</event>
<event>
 7    1  0.2656097E-013  0.7246156E+02  0.7816164E-02  0.1226708E+00
        -11   -1    0    0    0    0  0.00000000000E+00  0.00000000000E+00  0.45593999997E+02  0.45594000000E+02  0.51100000000E-03 0. -1.
         11   -1    0    0    0    0 -0.00000000000E+00 -0.00000000000E+00 -0.45593999997E+02  0.45594000000E+02  0.51100000000E-03 0.  1.
    9900012    2    1    2    0    0  0.11293764087E+02 -0.14598322711E+02 -0.31653335781E+01  0.72461562275E+02  0.69999989553E+02 0.  0.
        -12    1    1    2    0    0 -0.11293764087E+02  0.14598322711E+02  0.31653335781E+01  0.18726437725E+02  0.00000000000E+00 0.  1.
         11    1    3    3    0    0 -0.54870015235E+01 -0.20286576336E+02  0.11369238115E+02  0.23893763636E+02  0.51100000000E-03 0. -1.
        -11    1    3    3    0    0 -0.40778684876E+01  0.26602119848E+01  0.13005921454E+02  0.13887394728E+02  0.51100000000E-03 0.  1.
        -12    1    3    3    0    0  0.20858634098E+02  0.30280416404E+01 -0.27540493147E+02  0.34680403910E+02  0.00000000000E+00 0.  1.
</event>
<event>
 7    1  0.2656097E-013  0.7246161E+02  0.7816164E-02  0.1226708E+00
        -11   -1    0    0    0    0  0.00000000000E+00  0.00000000000E+00  0.45593999997E+02  0.45594000000E+02  0.51100000000E-03 0. -1.
         11   -1    0    0    0    0 -0.00000000000E+00 -0.00000000000E+00 -0.45593999997E+02  0.45594000000E+02  0.51100000000E-03 0.  1.
    9900012    2    1    2    0    0  0.15534129139E+02  0.75399220660E+01  0.72469303849E+01  0.72461612392E+02  0.70000054840E+02 0.  0.
        -12    1    1    2    0    0 -0.15534129139E+02 -0.75399220660E+01 -0.72469303849E+01  0.18726387608E+02  0.00000000000E+00 0.  1.
         11    1    3    3    0    0 -0.76420003349E+01 -0.50587660802E+01 -0.19610700479E+01  0.93721437978E+01  0.51100000000E-03 0. -1.
        -11    1    3    3    0    0 -0.18543491298E+02  0.32969207668E-01  0.55940819215E+01  0.19368941873E+02  0.51100000000E-03 0.  1.
         12    1    3    3    0    0  0.41719620771E+02  0.12565718938E+02  0.36139185113E+01  0.43720526721E+02  0.00000000000E+00 0. -1.
</event>
<event>
 7    1  0.2656097E-013  0.7246161E+02  0.7816164E-02  0.1226708E+00
        -11   -1    0    0    0    0  0.00000000000E+00  0.00000000000E+00  0.45593999997E+02  0.45594000000E+02  0.51100000000E-03 0.  1.
         11   -1    0    0    0    0 -0.00000000000E+00 -0.00000000000E+00 -0.45593999997E+02  0.45594000000E+02  0.51100000000E-03 0. -1.
    9900012    2    1    2    0    0 -0.17083429236E+02 -0.96864692892E+00 -0.76089241678E+01  0.72461613314E+02  0.70000056041E+02 0.  0.
        -12    1    1    2    0    0  0.17083429236E+02  0.96864692892E+00  0.76089241678E+01  0.18726386686E+02  0.00000000000E+00 0.  1.
         11    1    3    3    0    0 -0.19394639282E+02  0.61487666965E+01 -0.20352177077E+02  0.28777951227E+02  0.51100000000E-03 0. -1.
        -11    1    3    3    0    0 -0.16973432023E+02 -0.32649443485E+01  0.16231332504E+02  0.23711039862E+02  0.51100000000E-03 0.  1.
        -12    1    3    3    0    0  0.19284642069E+02 -0.38524692769E+01 -0.34880795944E+01  0.19972622225E+02  0.00000000000E+00 0.  1.
</event>
<event>
 7    1  0.2656097E-013  0.7246156E+02  0.7816164E-02  0.1226708E+00
        -11   -1    0    0    0    0  0.00000000000E+00  0.00000000000E+00  0.45593999997E+02  0.45594000000E+02  0.51100000000E-03 0.  1.
         11   -1    0    0    0    0 -0.00000000000E+00 -0.00000000000E+00 -0.45593999997E+02  0.45594000000E+02  0.51100000000E-03 0. -1.
    9900012    2    1    2    0    0 -0.12060112091E+02 -0.51120496462E+01 -0.13382834353E+02  0.72461558518E+02  0.69999984660E+02 0.  0.
        -12    1    1    2    0    0  0.12060112091E+02  0.51120496462E+01  0.13382834353E+02  0.18726441482E+02  0.00000000000E+00 0.  1.
         11    1    3    3    0    0  0.96604614836E+00  0.93037049872E+01  0.61601141840E+01  0.11199963333E+02  0.51100000000E-03 0. -1.
        -11    1    3    3    0    0  0.80506209413E+01  0.16490611853E+02  0.13734948543E+01  0.18402153819E+02  0.51100000000E-03 0.  1.
         12    1    3    3    0    0 -0.21076779181E+02 -0.30906366486E+02 -0.20916443392E+02  0.42859441366E+02  0.00000000000E+00 0. -1.
</event>
<event>
 7    1  0.2656097E-013  0.7246156E+02  0.7816164E-02  0.1226708E+00
        -11   -1    0    0    0    0  0.00000000000E+00  0.00000000000E+00  0.45593999997E+02  0.45594000000E+02  0.51100000000E-03 0.  1.
         11   -1    0    0    0    0 -0.00000000000E+00 -0.00000000000E+00 -0.45593999997E+02  0.45594000000E+02  0.51100000000E-03 0. -1.
    9900012    2    1    2    0    0  0.12002290050E+02  0.13700348014E+02  0.43503130597E+01  0.72461555440E+02  0.69999980649E+02 0.  0.
        -12    1    1    2    0    0 -0.12002290050E+02 -0.13700348014E+02 -0.43503130597E+01  0.18726444560E+02  0.00000000000E+00 0.  1.
         11    1    3    3    0    0 -0.71875419777E+01  0.61230879457E+00  0.22627189849E+01  0.75601308988E+01  0.51100000000E-03 0. -1.
        -11    1    3    3    0    0  0.52900637627E+01  0.26473811136E+01  0.30785542505E+02  0.31348732494E+02  0.51100000000E-03 0.  1.
         12    1    3    3    0    0  0.13899768265E+02  0.10440658106E+02 -0.28697948430E+02  0.33552692047E+02  0.00000000000E+00 0. -1.
</event>
<event>
 7    1  0.2656097E-013  0.7246157E+02  0.7816164E-02  0.1226708E+00
        -11   -1    0    0    0    0  0.00000000000E+00  0.00000000000E+00  0.45593999997E+02  0.45594000000E+02  0.51100000000E-03 0. -1.
         11   -1    0    0    0    0 -0.00000000000E+00 -0.00000000000E+00 -0.45593999997E+02  0.45594000000E+02  0.51100000000E-03 0.  1.
    9900012    2    1    2    0    0 -0.57482999327E+00  0.13528552108E+02  0.12935492332E+02  0.72461571789E+02  0.70000001947E+02 0.  0.
        -12    1    1    2    0    0  0.57482999327E+00 -0.13528552108E+02 -0.12935492332E+02  0.18726428211E+02  0.00000000000E+00 0.  1.
         11    1    3    3    0    0  0.91389682085E+01 -0.15939750882E+02 -0.12621967083E+02  0.22291488317E+02  0.51100000000E-03 0. -1.
        -11    1    3    3    0    0 -0.20102384821E+01  0.77735596949E+01 -0.67565842476E+01  0.10493842006E+02  0.51100000000E-03 0.  1.
         12    1    3    3    0    0 -0.77035597196E+01  0.21694743296E+02  0.32314043662E+02  0.39676241466E+02  0.00000000000E+00 0. -1.
</event>
<event>
 7    1  0.2656097E-013  0.7246163E+02  0.7816164E-02  0.1226708E+00
        -11   -1    0    0    0    0  0.00000000000E+00  0.00000000000E+00  0.45593999997E+02  0.45594000000E+02  0.51100000000E-03 0.  1.
         11   -1    0    0    0    0 -0.00000000000E+00 -0.00000000000E+00 -0.45593999997E+02  0.45594000000E+02  0.51100000000E-03 0. -1.
    9900012    2    1    2    0    0 -0.11592852161E+02  0.97029403646E+01  0.11051500148E+02  0.72461630131E+02  0.70000077949E+02 0.  0.
        -12    1    1    2    0    0  0.11592852161E+02 -0.97029403646E+01 -0.11051500148E+02  0.18726369869E+02  0.00000000000E+00 0.  1.
         11    1    3    3    0    0  0.10235827406E+02 -0.15423728307E+01 -0.20422568165E+02  0.22896121230E+02  0.51100000000E-03 0. -1.
        -11    1    3    3    0    0 -0.45481302324E+01  0.17232089076E+01 -0.56920296871E+01  0.74869312652E+01  0.51100000000E-03 0.  1.
        -12    1    3    3    0    0 -0.17280549335E+02  0.95221042878E+01  0.37166098000E+02  0.42078577637E+02  0.00000000000E+00 0.  1.
</event>
<event>
 7    1  0.2656097E-013  0.7246160E+02  0.7816164E-02  0.1226708E+00
        -11   -1    0    0    0    0  0.00000000000E+00  0.00000000000E+00  0.45593999997E+02  0.45594000000E+02  0.51100000000E-03 0. -1.
         11   -1    0    0    0    0 -0.00000000000E+00 -0.00000000000E+00 -0.45593999997E+02  0.45594000000E+02  0.51100000000E-03 0.  1.
    9900012    2    1    2    0    0 -0.67983823726E+01  0.16705994723E+02 -0.50368440688E+01  0.72461599899E+02  0.70000038565E+02 0.  0.
        -12    1    1    2    0    0  0.67983823726E+01 -0.16705994723E+02  0.50368440688E+01  0.18726400101E+02  0.00000000000E+00 0.  1.
         11    1    3    3    0    0  0.21016178043E+01 -0.30598699480E+01  0.17575815775E+02  0.17963543691E+02  0.51100000000E-03 0. -1.
        -11    1    3    3    0    0 -0.20989949603E+02 -0.11331650992E+01  0.56701996130E+00  0.21028161103E+02  0.51100000000E-03 0.  1.
        -12    1    3    3    0    0  0.12089949426E+02  0.20899029770E+02 -0.23179679806E+02  0.33469895105E+02  0.00000000000E+00 0.  1.
</event>
<event>
 7    1  0.2656097E-013  0.7246157E+02  0.7816164E-02  0.1226708E+00
        -11   -1    0    0    0    0  0.00000000000E+00  0.00000000000E+00  0.45593999997E+02  0.45594000000E+02  0.51100000000E-03 0.  1.
         11   -1    0    0    0    0 -0.00000000000E+00 -0.00000000000E+00 -0.45593999997E+02  0.45594000000E+02  0.51100000000E-03 0. -1.
    9900012    2    1    2    0    0  0.18760040303E+01 -0.12374145276E+02 -0.13929840078E+02  0.72461566623E+02  0.69999995217E+02 0.  0.
        -12    1    1    2    0    0 -0.18760040303E+01  0.12374145276E+02  0.13929840078E+02  0.18726433377E+02  0.00000000000E+00 0.  1.
         11    1    3    3    0    0  0.57192655982E+01 -0.35789460451E+02 -0.30427796631E+01  0.36371059741E+02  0.51100000000E-03 0. -1.
        -11    1    3    3    0    0  0.79081317007E+01  0.30541288146E+00  0.14370001654E+00  0.79153315774E+01  0.51100000000E-03 0.  1.
        -12    1    3    3    0    0 -0.11751393269E+02  0.23109902293E+02 -0.11030760431E+02  0.28175175305E+02  0.00000000000E+00 0.  1.
</event>
<event>
 7    1  0.2656097E-013  0.7246176E+02  0.7816164E-02  0.1226708E+00
        -11   -1    0    0    0    0  0.00000000000E+00  0.00000000000E+00  0.45593999997E+02  0.45594000000E+02  0.51100000000E-03 0. -1.
         11   -1    0    0    0    0 -0.00000000000E+00 -0.00000000000E+00 -0.45593999997E+02  0.45594000000E+02  0.51100000000E-03 0.  1.
    9900012    2    1    2    0    0 -0.16640703905E+02  0.40548509559E+01  0.75708111410E+01  0.72461761080E+02  0.70000248534E+02 0.  0.
        -12    1    1    2    0    0  0.16640703905E+02 -0.40548509559E+01 -0.75708111410E+01  0.18726238920E+02  0.00000000000E+00 0.  1.
         11    1    3    3    0    0 -0.45980512559E+01  0.16943824823E+02  0.15859259150E+02  0.23659065410E+02  0.51100000000E-03 0. -1.
        -11    1    3    3    0    0 -0.24584305907E+02  0.31594549531E+00  0.64001817333E+01  0.25405712841E+02  0.51100000000E-03 0.  1.
        -12    1    3    3    0    0  0.12541653258E+02 -0.13204919363E+02 -0.14688629743E+02  0.23396982830E+02  0.00000000000E+00 0.  1.
</event>
<event>
 7    1  0.2656097E-013  0.7246156E+02  0.7816164E-02  0.1226708E+00
        -11   -1    0    0    0    0  0.00000000000E+00  0.00000000000E+00  0.45593999997E+02  0.45594000000E+02  0.51100000000E-03 0. -1.
         11   -1    0    0    0    0 -0.00000000000E+00 -0.00000000000E+00 -0.45593999997E+02  0.45594000000E+02  0.51100000000E-03 0.  1.
    9900012    2    1    2    0    0  0.79363302358E+01  0.16955190052E+02 -0.46429464495E+00  0.72461564759E+02  0.69999992789E+02 0.  0.
        -12    1    1    2    0    0 -0.79363302358E+01 -0.16955190052E+02  0.46429464495E+00  0.18726435241E+02  0.00000000000E+00 0.  1.
         11    1    3    3    0    0 -0.17531443796E+02  0.19758338302E+02 -0.59415151446E+01  0.27074804828E+02  0.51100000000E-03 0. -1.
        -11    1    3    3    0    0  0.10054541212E+02  0.11770826723E+02 -0.10607092728E+02  0.18765835370E+02  0.51100000000E-03 0.  1.
        -12    1    3    3    0    0  0.15413232820E+02 -0.14573974972E+02  0.16084313228E+02  0.26620924561E+02  0.00000000000E+00 0.  1.
</event>
<event>
 7    1  0.2656097E-013  0.7246155E+02  0.7816164E-02  0.1226708E+00
        -11   -1    0    0    0    0  0.00000000000E+00  0.00000000000E+00  0.45593999997E+02  0.45594000000E+02  0.51100000000E-03 0.  1.
         11   -1    0    0    0    0 -0.00000000000E+00 -0.00000000000E+00 -0.45593999997E+02  0.45594000000E+02  0.51100000000E-03 0. -1.
    9900012    2    1    2    0    0 -0.11394796883E+02  0.39742150000E+01 -0.14319359463E+02  0.72461552491E+02  0.69999976808E+02 0.  0.
        -12    1    1    2    0    0  0.11394796883E+02 -0.39742150000E+01  0.14319359463E+02  0.18726447509E+02  0.00000000000E+00 0.  1.
         11    1    3    3    0    0  0.19776165057E+01  0.25357879080E+02  0.10292212996E+01  0.25455692786E+02  0.51100000000E-03 0. -1.
        -11    1    3    3    0    0 -0.54124059461E+01 -0.87426709596E+01  0.12024773020E+02  0.15821618125E+02  0.51100000000E-03 0.  1.
        -12    1    3    3    0    0 -0.79600074423E+01 -0.12640993121E+02 -0.27373353783E+02  0.31184241580E+02  0.00000000000E+00 0.  1.
</event>
<event>
 7    1  0.2656097E-013  0.7246162E+02  0.7816164E-02  0.1226708E+00
        -11   -1    0    0    0    0  0.00000000000E+00  0.00000000000E+00  0.45593999997E+02  0.45594000000E+02  0.51100000000E-03 0.  1.
         11   -1    0    0    0    0 -0.00000000000E+00 -0.00000000000E+00 -0.45593999997E+02  0.45594000000E+02  0.51100000000E-03 0. -1.
    9900012    2    1    2    0    0 -0.17191891859E+01  0.12712871390E+02 -0.13642019080E+02  0.72461617674E+02  0.70000061721E+02 0.  0.
        -12    1    1    2    0    0  0.17191891859E+01 -0.12712871390E+02  0.13642019080E+02  0.18726382326E+02  0.00000000000E+00 0.  1.
         11    1    3    3    0    0 -0.65769340362E+01  0.14802375385E+02  0.17814370482E+01  0.16295394950E+02  0.51100000000E-03 0. -1.
        -11    1    3    3    0    0 -0.22396578894E+02 -0.11488208025E+02 -0.76251895522E+01  0.26300744965E+02  0.51100000000E-03 0.  1.
         12    1    3    3    0    0  0.27254323744E+02  0.93987040294E+01 -0.77982665760E+01  0.29865477759E+02  0.00000000000E+00 0. -1.
</event>
<event>
 7    1  0.2770171E-013  0.7246157E+02  0.7816164E-02  0.1226708E+00
        -11   -1    0    0    0    0  0.00000000000E+00  0.00000000000E+00  0.45593999997E+02  0.45594000000E+02  0.51100000000E-03 0.  1.
         11   -1    0    0    0    0 -0.00000000000E+00 -0.00000000000E+00 -0.45593999997E+02  0.45594000000E+02  0.51100000000E-03 0. -1.
    9900012    2    1    2    0    0 -0.44623905796E+00 -0.16155299009E+02 -0.94597190027E+01  0.72461572178E+02  0.70000002454E+02 0.  0.
        -12    1    1    2    0    0  0.44623905796E+00  0.16155299009E+02  0.94597190027E+01  0.18726427822E+02  0.00000000000E+00 0.  1.
         11    1    3    3    0    0  0.20025415103E+00 -0.23506756147E+02 -0.24538717050E+02  0.33981705681E+02  0.51100000000E-03 0. -1.
        -11    1    3    3    0    0 -0.63193315093E+01  0.12630408775E+02 -0.65033987699E+01  0.15548484568E+02  0.51100000000E-03 0.  1.
        -12    1    3    3    0    0  0.56728383003E+01 -0.52789516367E+01  0.21582396817E+02  0.22931381928E+02  0.00000000000E+00 0.  1.
</event>
<event>
 7    1  0.2656097E-013  0.7246160E+02  0.7816164E-02  0.1226708E+00
        -11   -1    0    0    0    0  0.00000000000E+00  0.00000000000E+00  0.45593999997E+02  0.45594000000E+02  0.51100000000E-03 0.  1.
         11   -1    0    0    0    0 -0.00000000000E+00 -0.00000000000E+00 -0.45593999997E+02  0.45594000000E+02  0.51100000000E-03 0. -1.
    9900012    2    1    2    0    0  0.84795424078E+01 -0.84166336539E+00 -0.16675344197E+02  0.72461597763E+02  0.70000035782E+02 0.  0.
        -12    1    1    2    0    0 -0.84795424078E+01  0.84166336539E+00  0.16675344197E+02  0.18726402237E+02  0.00000000000E+00 0.  1.
         11    1    3    3    0    0 -0.33918426987E+01  0.18032942724E+02 -0.13227808871E+02  0.22620047479E+02  0.51100000000E-03 0. -1.
        -11    1    3    3    0    0 -0.27634980679E+01 -0.13908915678E+02 -0.21701599536E+02  0.25924009713E+02  0.51100000000E-03 0.  1.
        -12    1    3    3    0    0  0.14634883174E+02 -0.49656904112E+01  0.18254064209E+02  0.23917540571E+02  0.00000000000E+00 0.  1.
</event>
<event>
 7    1  0.2656097E-013  0.7246155E+02  0.7816164E-02  0.1226708E+00
        -11   -1    0    0    0    0  0.00000000000E+00  0.00000000000E+00  0.45593999997E+02  0.45594000000E+02  0.51100000000E-03 0. -1.
         11   -1    0    0    0    0 -0.00000000000E+00 -0.00000000000E+00 -0.45593999997E+02  0.45594000000E+02  0.51100000000E-03 0.  1.
    9900012    2    1    2    0    0 -0.70349885368E+01 -0.17326894075E+02  0.98370695500E+00  0.72461548084E+02  0.69999971066E+02 0.  0.
        -12    1    1    2    0    0  0.70349885368E+01  0.17326894075E+02 -0.98370695500E+00  0.18726451916E+02  0.00000000000E+00 0.  1.
         11    1    3    3    0    0  0.12160094535E+01 -0.35060497378E+01 -0.38925501472E+01  0.53780117762E+01  0.51100000000E-03 0. -1.
        -11    1    3    3    0    0  0.24501521741E+02 -0.45502937721E+01 -0.13561465720E+02  0.28371519060E+02  0.51100000000E-03 0.  1.
         12    1    3    3    0    0 -0.32752519731E+02 -0.92705505653E+01  0.18437722822E+02  0.38712017248E+02  0.00000000000E+00 0. -1.
</event>
<event>
 7    1  0.2656097E-013  0.7246146E+02  0.7816164E-02  0.1226708E+00
        -11   -1    0    0    0    0  0.00000000000E+00  0.00000000000E+00  0.45593999997E+02  0.45594000000E+02  0.51100000000E-03 0. -1.
         11   -1    0    0    0    0 -0.00000000000E+00 -0.00000000000E+00 -0.45593999997E+02  0.45594000000E+02  0.51100000000E-03 0.  1.
    9900012    2    1    2    0    0  0.84219077151E+01 -0.13541045913E+02  0.98180809634E+01  0.72461463541E+02  0.69999860933E+02 0.  0.
        -12    1    1    2    0    0 -0.84219077151E+01  0.13541045913E+02 -0.98180809634E+01  0.18726536459E+02  0.00000000000E+00 0.  1.
         11    1    3    3    0    0  0.92554718298E+01 -0.27550500718E+02 -0.33422492680E+01  0.29255161579E+02  0.51100000000E-03 0. -1.
        -11    1    3    3    0    0  0.65056866830E+01 -0.28056523298E+01 -0.10868560916E+02  0.12973868384E+02  0.51100000000E-03 0.  1.
         12    1    3    3    0    0 -0.73392507977E+01  0.16815107135E+02  0.24028891147E+02  0.30232433577E+02  0.00000000000E+00 0. -1.
</event>
<event>
 7    1  0.3068581E-013  0.7246157E+02  0.7816164E-02  0.1226708E+00
        -11   -1    0    0    0    0  0.00000000000E+00  0.00000000000E+00  0.45593999997E+02  0.45594000000E+02  0.51100000000E-03 0. -1.
         11   -1    0    0    0    0 -0.00000000000E+00 -0.00000000000E+00 -0.45593999997E+02  0.45594000000E+02  0.51100000000E-03 0.  1.
    9900012    2    1    2    0    0  0.68903494505E+01  0.13473982506E+02  0.11029691307E+02  0.72461569201E+02  0.69999998576E+02 0.  0.
        -12    1    1    2    0    0 -0.68903494505E+01 -0.13473982506E+02 -0.11029691307E+02  0.18726430799E+02  0.00000000000E+00 0.  1.
         11    1    3    3    0    0  0.61637686563E+01  0.45951194539E+01  0.31393492059E+02  0.32321177435E+02  0.51100000000E-03 0. -1.
        -11    1    3    3    0    0 -0.96552121573E+01 -0.74890838894E+01 -0.27069899125E+00  0.12222224737E+02  0.51100000000E-03 0.  1.
        -12    1    3    3    0    0  0.10381792952E+02  0.16367946941E+02 -0.20093101760E+02  0.27918167030E+02  0.00000000000E+00 0.  1.
</event>
<event>
 7    1  0.2656097E-013  0.7246154E+02  0.7816164E-02  0.1226708E+00
        -11   -1    0    0    0    0  0.00000000000E+00  0.00000000000E+00  0.45593999997E+02  0.45594000000E+02  0.51100000000E-03 0. -1.
         11   -1    0    0    0    0 -0.00000000000E+00 -0.00000000000E+00 -0.45593999997E+02  0.45594000000E+02  0.51100000000E-03 0.  1.
    9900012    2    1    2    0    0  0.29957081240E+01 -0.14782103360E+02  0.11099342077E+02  0.72461541673E+02  0.69999962716E+02 0.  0.
        -12    1    1    2    0    0 -0.29957081240E+01  0.14782103360E+02 -0.11099342077E+02  0.18726458327E+02  0.00000000000E+00 0.  1.
         11    1    3    3    0    0  0.15675033030E+02  0.59296753463E+01  0.15769176406E+02  0.23011619565E+02  0.51100000000E-03 0. -1.
        -11    1    3    3    0    0 -0.22626687748E+02  0.28331897645E+01  0.24022301201E+01  0.22929558925E+02  0.51100000000E-03 0.  1.
         12    1    3    3    0    0  0.99473628417E+01 -0.23544968471E+02 -0.70720644493E+01  0.26520363183E+02  0.00000000000E+00 0. -1.
</event>
<event>
 7    1  0.2656097E-013  0.7246159E+02  0.7816164E-02  0.1226708E+00
        -11   -1    0    0    0    0  0.00000000000E+00  0.00000000000E+00  0.45593999997E+02  0.45594000000E+02  0.51100000000E-03 0.  1.
         11   -1    0    0    0    0 -0.00000000000E+00 -0.00000000000E+00 -0.45593999997E+02  0.45594000000E+02  0.51100000000E-03 0. -1.
    9900012    2    1    2    0    0  0.16681038247E+02  0.17564583871E+01 -0.83268325860E+01  0.72461592870E+02  0.70000029409E+02 0.  0.
        -12    1    1    2    0    0 -0.16681038247E+02 -0.17564583871E+01  0.83268325860E+01  0.18726407130E+02  0.00000000000E+00 0.  1.
         11    1    3    3    0    0  0.88136533068E+01 -0.96182497638E+01 -0.54223116902E+00  0.13056999197E+02  0.51100000000E-03 0. -1.
        -11    1    3    3    0    0 -0.33744844639E+01  0.41172287309E+00  0.23847980285E+02  0.24089060277E+02  0.51100000000E-03 0.  1.
         12    1    3    3    0    0  0.11241869404E+02  0.10962985278E+02 -0.31632581702E+02  0.35315533396E+02  0.00000000000E+00 0. -1.
</event>
<event>
 7    1  0.2656097E-013  0.7246157E+02  0.7816164E-02  0.1226708E+00
        -11   -1    0    0    0    0  0.00000000000E+00  0.00000000000E+00  0.45593999997E+02  0.45594000000E+02  0.51100000000E-03 0. -1.
         11   -1    0    0    0    0 -0.00000000000E+00 -0.00000000000E+00 -0.45593999997E+02  0.45594000000E+02  0.51100000000E-03 0.  1.
    9900012    2    1    2    0    0 -0.69006221724E+01  0.15967035026E+02 -0.69364635705E+01  0.72461566256E+02  0.69999994740E+02 0.  0.
        -12    1    1    2    0    0  0.69006221724E+01 -0.15967035026E+02  0.69364635705E+01  0.18726433744E+02  0.00000000000E+00 0.  1.
         11    1    3    3    0    0  0.37996637685E+01 -0.94000339240E+01 -0.10565735121E+02  0.14643525581E+02  0.51100000000E-03 0. -1.
        -11    1    3    3    0    0  0.91578830848E+01  0.42635978698E+01 -0.18687383431E+02  0.21242960932E+02  0.51100000000E-03 0.  1.
        -12    1    3    3    0    0 -0.19858169026E+02  0.21103471080E+02  0.22316654982E+02  0.36575079744E+02  0.00000000000E+00 0.  1.
</event>
<event>
 7    1  0.2656097E-013  0.7246150E+02  0.7816164E-02  0.1226708E+00
        -11   -1    0    0    0    0  0.00000000000E+00  0.00000000000E+00  0.45593999997E+02  0.45594000000E+02  0.51100000000E-03 0. -1.
         11   -1    0    0    0    0 -0.00000000000E+00 -0.00000000000E+00 -0.45593999997E+02  0.45594000000E+02  0.51100000000E-03 0.  1.
    9900012    2    1    2    0    0  0.77819936955E+01  0.49488010243E+01  0.16298209998E+02  0.72461502554E+02  0.69999911755E+02 0.  0.
        -12    1    1    2    0    0 -0.77819936955E+01 -0.49488010243E+01 -0.16298209998E+02  0.18726497446E+02  0.00000000000E+00 0.  1.
         11    1    3    3    0    0 -0.20570239173E+02  0.10118415885E+02  0.27060392110E+01  0.23083321428E+02  0.51100000000E-03 0.  1.
        -11    1    3    3    0    0 -0.19949565533E+00  0.39828750575E+01  0.18562631792E+02  0.18986163160E+02  0.51100000000E-03 0. -1.
         12    1    3    3    0    0  0.28551728524E+02 -0.91524899184E+01 -0.49704610046E+01  0.30392017966E+02  0.00000000000E+00 0. -1.
</event>
<event>
 7    1  0.2656097E-013  0.7246152E+02  0.7816164E-02  0.1226708E+00
        -11   -1    0    0    0    0  0.00000000000E+00  0.00000000000E+00  0.45593999997E+02  0.45594000000E+02  0.51100000000E-03 0. -1.
         11   -1    0    0    0    0 -0.00000000000E+00 -0.00000000000E+00 -0.45593999997E+02  0.45594000000E+02  0.51100000000E-03 0.  1.
    9900012    2    1    2    0    0  0.42556527976E+01 -0.14811319427E+02  0.10639328266E+02  0.72461519555E+02  0.69999933902E+02 0.  0.
        -12    1    1    2    0    0 -0.42556527976E+01  0.14811319427E+02 -0.10639328266E+02  0.18726480445E+02  0.00000000000E+00 0.  1.
         11    1    3    3    0    0  0.12322151186E+02  0.94396499251E+01  0.14912098286E+02  0.21524708503E+02  0.51100000000E-03 0. -1.
        -11    1    3    3    0    0  0.18145032699E+02 -0.10504623422E+02 -0.39638518612E+01  0.21337793858E+02  0.51100000000E-03 0.  1.
         12    1    3    3    0    0 -0.26211531088E+02 -0.13746345930E+02 -0.30891815855E+00  0.29599017194E+02  0.00000000000E+00 0. -1.
</event>
<event>
 7    1  0.2656097E-013  0.7246156E+02  0.7816164E-02  0.1226708E+00
        -11   -1    0    0    0    0  0.00000000000E+00  0.00000000000E+00  0.45593999997E+02  0.45594000000E+02  0.51100000000E-03 0. -1.
         11   -1    0    0    0    0 -0.00000000000E+00 -0.00000000000E+00 -0.45593999997E+02  0.45594000000E+02  0.51100000000E-03 0.  1.
    9900012    2    1    2    0    0 -0.34943802894E+01 -0.12504060227E+02  0.13495086687E+02  0.72461559322E+02  0.69999985706E+02 0.  0.
        -12    1    1    2    0    0  0.34943802894E+01  0.12504060227E+02 -0.13495086687E+02  0.18726440678E+02  0.00000000000E+00 0.  1.
         11    1    3    3    0    0  0.12793233498E+02 -0.80548858286E+01  0.20528474282E+02  0.25494435975E+02  0.51100000000E-03 0. -1.
        -11    1    3    3    0    0 -0.19311622478E+02  0.11273805712E+02  0.91873179997E+01  0.24175282217E+02  0.51100000000E-03 0.  1.
        -12    1    3    3    0    0  0.30240086904E+01 -0.15722980111E+02 -0.16220705594E+02  0.22791841130E+02  0.00000000000E+00 0.  1.
</event>
<event>
 7    1  0.2656097E-013  0.7246158E+02  0.7816164E-02  0.1226708E+00
        -11   -1    0    0    0    0  0.00000000000E+00  0.00000000000E+00  0.45593999997E+02  0.45594000000E+02  0.51100000000E-03 0.  1.
         11   -1    0    0    0    0 -0.00000000000E+00 -0.00000000000E+00 -0.45593999997E+02  0.45594000000E+02  0.51100000000E-03 0. -1.
    9900012    2    1    2    0    0 -0.80062344084E+00  0.16635529895E+02 -0.85613648584E+01  0.72461579600E+02  0.70000012122E+02 0.  0.
        -12    1    1    2    0    0  0.80062344084E+00 -0.16635529895E+02  0.85613648584E+01  0.18726420400E+02  0.00000000000E+00 0.  1.
         11    1    3    3    0    0 -0.20722212195E+02 -0.11907680070E+01 -0.13247871240E+02  0.24623852244E+02  0.51100000000E-03 0. -1.
        -11    1    3    3    0    0 -0.14151777306E+01 -0.10388833577E+02  0.66381335791E+01  0.12409488659E+02  0.51100000000E-03 0.  1.
         12    1    3    3    0    0  0.21336766485E+02  0.28215131479E+02 -0.19516271969E+01  0.35428238696E+02  0.00000000000E+00 0. -1.
</event>
<event>
 7    1  0.2656097E-013  0.7246155E+02  0.7816164E-02  0.1226708E+00
        -11   -1    0    0    0    0  0.00000000000E+00  0.00000000000E+00  0.45593999997E+02  0.45594000000E+02  0.51100000000E-03 0. -1.
         11   -1    0    0    0    0 -0.00000000000E+00 -0.00000000000E+00 -0.45593999997E+02  0.45594000000E+02  0.51100000000E-03 0.  1.
    9900012    2    1    2    0    0  0.13238620706E+02  0.99603882646E+00  0.13207079190E+02  0.72461545123E+02  0.69999967210E+02 0.  0.
        -12    1    1    2    0    0 -0.13238620706E+02 -0.99603882646E+00 -0.13207079190E+02  0.18726454877E+02  0.00000000000E+00 0.  1.
         11    1    3    3    0    0  0.13051261608E+02  0.22977205759E+02  0.12209143865E+02  0.29109287319E+02  0.51100000000E-03 0. -1.
        -11    1    3    3    0    0  0.27784788912E+01 -0.34787504017E+00  0.16420967295E+02  0.16658004957E+02  0.51100000000E-03 0.  1.
        -12    1    3    3    0    0 -0.25911197933E+01 -0.21633291892E+02 -0.15423031970E+02  0.26694252847E+02  0.00000000000E+00 0.  1.
</event>
<event>
 7    1  0.2656097E-013  0.7246153E+02  0.7816164E-02  0.1226708E+00
        -11   -1    0    0    0    0  0.00000000000E+00  0.00000000000E+00  0.45593999997E+02  0.45594000000E+02  0.51100000000E-03 0.  1.
         11   -1    0    0    0    0 -0.00000000000E+00 -0.00000000000E+00 -0.45593999997E+02  0.45594000000E+02  0.51100000000E-03 0. -1.
    9900012    2    1    2    0    0 -0.11850347385E+02 -0.34686789874E+01 -0.14078995341E+02  0.72461532718E+02  0.69999951050E+02 0.  0.
        -12    1    1    2    0    0  0.11850347385E+02  0.34686789874E+01  0.14078995341E+02  0.18726467282E+02  0.00000000000E+00 0.  1.
         11    1    3    3    0    0 -0.77620162944E+01 -0.32455901268E+01  0.59492773911E+01  0.10304205644E+02  0.51100000000E-03 0. -1.
        -11    1    3    3    0    0 -0.14090553306E+02 -0.21248350113E+02  0.70430385214E+01  0.26450717700E+02  0.51100000000E-03 0.  1.
         12    1    3    3    0    0  0.10002222216E+02  0.21025261252E+02 -0.27071311253E+02  0.35706609373E+02  0.00000000000E+00 0. -1.
</event>
<event>
 7    1  0.2656097E-013  0.7246158E+02  0.7816164E-02  0.1226708E+00
        -11   -1    0    0    0    0  0.00000000000E+00  0.00000000000E+00  0.45593999997E+02  0.45594000000E+02  0.51100000000E-03 0. -1.
         11   -1    0    0    0    0 -0.00000000000E+00 -0.00000000000E+00 -0.45593999997E+02  0.45594000000E+02  0.51100000000E-03 0.  1.
    9900012    2    1    2    0    0  0.24575174260E+01 -0.54533797463E+01  0.17745425042E+02  0.72461578760E+02  0.70000011028E+02 0.  0.
        -12    1    1    2    0    0 -0.24575174260E+01  0.54533797463E+01 -0.17745425042E+02  0.18726421240E+02  0.00000000000E+00 0.  1.
         11    1    3    3    0    0  0.64348180686E+01 -0.31000689972E+02  0.20315089101E+02  0.37618512833E+02  0.51100000000E-03 0. -1.
        -11    1    3    3    0    0  0.20782306292E+01 -0.18610600415E+01  0.50399434072E+01  0.57605222710E+01  0.51100000000E-03 0.  1.
        -12    1    3    3    0    0 -0.60555312718E+01  0.27408370267E+02 -0.76096074658E+01  0.29082543656E+02  0.00000000000E+00 0.  1.
</event>
<event>
 7    1  0.2656097E-013  0.7246155E+02  0.7816164E-02  0.1226708E+00
        -11   -1    0    0    0    0  0.00000000000E+00  0.00000000000E+00  0.45593999997E+02  0.45594000000E+02  0.51100000000E-03 0.  1.
         11   -1    0    0    0    0 -0.00000000000E+00 -0.00000000000E+00 -0.45593999997E+02  0.45594000000E+02  0.51100000000E-03 0. -1.
    9900012    2    1    2    0    0  0.24330554316E+01 -0.14830273096E+02  0.11172434167E+02  0.72461546944E+02  0.69999969582E+02 0.  0.
        -12    1    1    2    0    0 -0.24330554316E+01  0.14830273096E+02 -0.11172434167E+02  0.18726453056E+02  0.00000000000E+00 0.  1.
         11    1    3    3    0    0  0.87471725458E+01 -0.63284576151E+01  0.27872150246E+01  0.11150379867E+02  0.51100000000E-03 0. -1.
        -11    1    3    3    0    0  0.55579731610E+01  0.19618910122E+02  0.20084952209E+02  0.28621635270E+02  0.51100000000E-03 0.  1.
         12    1    3    3    0    0 -0.11872090275E+02 -0.28120725603E+02 -0.11699733066E+02  0.32689531807E+02  0.00000000000E+00 0. -1.
</event>
<event>
 7    1  0.2656097E-013  0.7246151E+02  0.7816164E-02  0.1226708E+00
        -11   -1    0    0    0    0  0.00000000000E+00  0.00000000000E+00  0.45593999997E+02  0.45594000000E+02  0.51100000000E-03 0.  1.
         11   -1    0    0    0    0 -0.00000000000E+00 -0.00000000000E+00 -0.45593999997E+02  0.45594000000E+02  0.51100000000E-03 0. -1.
    9900012    2    1    2    0    0  0.52056098252E+01  0.54696541899E+00 -0.17980092735E+02  0.72461513956E+02  0.69999926608E+02 0.  0.
        -12    1    1    2    0    0 -0.52056098252E+01 -0.54696541899E+00  0.17980092735E+02  0.18726486044E+02  0.00000000000E+00 0.  1.
         11    1    3    3    0    0  0.89743206595E+01  0.85583462175E+00 -0.14403235088E+02  0.16991882340E+02  0.51100000000E-03 0. -1.
        -11    1    3    3    0    0  0.95129900664E+01  0.24422186755E+02  0.37013642211E+01  0.26469610561E+02  0.51100000000E-03 0.  1.
         12    1    3    3    0    0 -0.13281700901E+02 -0.24731055958E+02 -0.72782218678E+01  0.29000021054E+02  0.00000000000E+00 0. -1.
</event>
<event>
 7    1  0.2656097E-013  0.7246159E+02  0.7816164E-02  0.1226708E+00
        -11   -1    0    0    0    0  0.00000000000E+00  0.00000000000E+00  0.45593999997E+02  0.45594000000E+02  0.51100000000E-03 0.  1.
         11   -1    0    0    0    0 -0.00000000000E+00 -0.00000000000E+00 -0.45593999997E+02  0.45594000000E+02  0.51100000000E-03 0. -1.
    9900012    2    1    2    0    0 -0.15274351233E+02  0.72995915587E+01  0.80055305052E+01  0.72461591877E+02  0.70000028116E+02 0.  0.
        -12    1    1    2    0    0  0.15274351233E+02 -0.72995915587E+01 -0.80055305052E+01  0.18726408123E+02  0.00000000000E+00 0.  1.
         11    1    3    3    0    0  0.63258197178E+01  0.10870152507E+02  0.28560906550E+00  0.12580054985E+02  0.51100000000E-03 0. -1.
        -11    1    3    3    0    0 -0.36546255039E+02  0.52823007228E+01  0.16468201152E+02  0.40431832852E+02  0.51100000000E-03 0.  1.
         12    1    3    3    0    0  0.14946084088E+02 -0.88528616707E+01 -0.87482797124E+01  0.19449704041E+02  0.00000000000E+00 0. -1.
</event>
<event>
 7    1  0.2656097E-013  0.7246158E+02  0.7816164E-02  0.1226708E+00
        -11   -1    0    0    0    0  0.00000000000E+00  0.00000000000E+00  0.45593999997E+02  0.45594000000E+02  0.51100000000E-03 0. -1.
         11   -1    0    0    0    0 -0.00000000000E+00 -0.00000000000E+00 -0.45593999997E+02  0.45594000000E+02  0.51100000000E-03 0.  1.
    9900012    2    1    2    0    0 -0.16396631599E+02  0.45518722327E+01  0.78172801694E+01  0.72461576480E+02  0.70000008058E+02 0.  0.
        -12    1    1    2    0    0  0.16396631599E+02 -0.45518722327E+01 -0.78172801694E+01  0.18726423520E+02  0.00000000000E+00 0.  1.
         11    1    3    3    0    0 -0.28701505984E+02  0.10479847331E+02 -0.10380091114E+01  0.30572554833E+02  0.51100000000E-03 0. -1.
        -11    1    3    3    0    0 -0.38132273355E+01  0.12883857884E+02 -0.39468787498E+01  0.14004011883E+02  0.51100000000E-03 0.  1.
         12    1    3    3    0    0  0.16118101721E+02 -0.18811832983E+02  0.12802168031E+02  0.27885009764E+02  0.00000000000E+00 0. -1.
</event>
<event>
 7    1  0.2656097E-013  0.7246159E+02  0.7816164E-02  0.1226708E+00
        -11   -1    0    0    0    0  0.00000000000E+00  0.00000000000E+00  0.45593999997E+02  0.45594000000E+02  0.51100000000E-03 0.  1.
         11   -1    0    0    0    0 -0.00000000000E+00 -0.00000000000E+00 -0.45593999997E+02  0.45594000000E+02  0.51100000000E-03 0. -1.
    9900012    2    1    2    0    0  0.95733561811E+01 -0.96572517712E+01 -0.12875046071E+02  0.72461588927E+02  0.70000024273E+02 0.  0.
        -12    1    1    2    0    0 -0.95733561811E+01  0.96572517712E+01  0.12875046071E+02  0.18726411073E+02  0.00000000000E+00 0.  1.
         11    1    3    3    0    0 -0.20340443044E+01 -0.14830944389E+02  0.97871171173E+01  0.17885242784E+02  0.51100000000E-03 0. -1.
        -11    1    3    3    0    0 -0.13639713623E+01  0.99986837013E+01  0.12922059993E+02  0.16395539892E+02  0.51100000000E-03 0.  1.
        -12    1    3    3    0    0  0.12971371848E+02 -0.48249910833E+01 -0.35584223181E+02  0.38180806251E+02  0.00000000000E+00 0.  1.
</event>
<event>
 7    1  0.2656097E-013  0.7246148E+02  0.7816164E-02  0.1226708E+00
        -11   -1    0    0    0    0  0.00000000000E+00  0.00000000000E+00  0.45593999997E+02  0.45594000000E+02  0.51100000000E-03 0.  1.
         11   -1    0    0    0    0 -0.00000000000E+00 -0.00000000000E+00 -0.45593999997E+02  0.45594000000E+02  0.51100000000E-03 0. -1.
    9900012    2    1    2    0    0 -0.67632132207E+00 -0.18688534830E+02 -0.98171935679E+00  0.72461480902E+02  0.69999883550E+02 0.  0.
        -12    1    1    2    0    0  0.67632132207E+00  0.18688534830E+02  0.98171935679E+00  0.18726519098E+02  0.00000000000E+00 0.  1.
         11    1    3    3    0    0 -0.18433223226E+02  0.29314224567E+01 -0.21006140982E+02  0.28100443330E+02  0.51100000000E-03 0. -1.
        -11    1    3    3    0    0 -0.24435581922E+01 -0.30167148283E+01 -0.55913639175E+01  0.68069740496E+01  0.51100000000E-03 0.  1.
        -12    1    3    3    0    0  0.20200460096E+02 -0.18603242459E+02  0.25615785543E+02  0.37554063522E+02  0.00000000000E+00 0.  1.
</event>
<event>
 7    1  0.2656097E-013  0.7246139E+02  0.7816164E-02  0.1226708E+00
        -11   -1    0    0    0    0  0.00000000000E+00  0.00000000000E+00  0.45593999997E+02  0.45594000000E+02  0.51100000000E-03 0.  1.
         11   -1    0    0    0    0 -0.00000000000E+00 -0.00000000000E+00 -0.45593999997E+02  0.45594000000E+02  0.51100000000E-03 0. -1.
    9900012    2    1    2    0    0 -0.17906341141E+02  0.27550254138E+01 -0.47390517483E+01  0.72461392470E+02  0.69999768351E+02 0.  0.
        -12    1    1    2    0    0  0.17906341141E+02 -0.27550254138E+01  0.47390517483E+01  0.18726607530E+02  0.00000000000E+00 0.  1.
         11    1    3    3    0    0 -0.11631646559E+01  0.94345016711E+01 -0.83665999465E+00  0.95426816989E+01  0.51100000000E-03 0. -1.
        -11    1    3    3    0    0  0.14446332241E+02 -0.32722979056E+01  0.18987217785E+02  0.24081505108E+02  0.51100000000E-03 0.  1.
         12    1    3    3    0    0 -0.31189508726E+02 -0.34071783516E+01 -0.22889609539E+02  0.38837205663E+02  0.00000000000E+00 0. -1.
</event>
<event>
 7    1  0.2656097E-013  0.7246160E+02  0.7816164E-02  0.1226708E+00
        -11   -1    0    0    0    0  0.00000000000E+00  0.00000000000E+00  0.45593999997E+02  0.45594000000E+02  0.51100000000E-03 0.  1.
         11   -1    0    0    0    0 -0.00000000000E+00 -0.00000000000E+00 -0.45593999997E+02  0.45594000000E+02  0.51100000000E-03 0. -1.
    9900012    2    1    2    0    0 -0.15863482389E+02  0.23916369389E+01 -0.96596073619E+01  0.72461601117E+02  0.70000040152E+02 0.  0.
        -12    1    1    2    0    0  0.15863482389E+02 -0.23916369389E+01  0.96596073619E+01  0.18726398883E+02  0.00000000000E+00 0.  1.
         11    1    3    3    0    0  0.99289354334E+01  0.68705961429E+01 -0.26635847902E+02  0.29244781481E+02  0.51100000000E-03 0. -1.
        -11    1    3    3    0    0 -0.15112650993E+01 -0.33695447563E+01  0.18497730827E+02  0.18862762260E+02  0.51100000000E-03 0.  1.
        -12    1    3    3    0    0 -0.24281152723E+02 -0.11094144477E+01 -0.15214902874E+01  0.24354057376E+02  0.00000000000E+00 0.  1.
</event>
<event>
 7    1  0.2656097E-013  0.7246161E+02  0.7816164E-02  0.1226708E+00
        -11   -1    0    0    0    0  0.00000000000E+00  0.00000000000E+00  0.45593999997E+02  0.45594000000E+02  0.51100000000E-03 0.  1.
         11   -1    0    0    0    0 -0.00000000000E+00 -0.00000000000E+00 -0.45593999997E+02  0.45594000000E+02  0.51100000000E-03 0. -1.
    9900012    2    1    2    0    0 -0.13893302144E+02  0.55162536115E+01 -0.11279395700E+02  0.72461610446E+02  0.70000052305E+02 0.  0.
        -12    1    1    2    0    0  0.13893302144E+02 -0.55162536115E+01  0.11279395700E+02  0.18726389554E+02  0.00000000000E+00 0.  1.
         11    1    3    3    0    0  0.97417747166E+01  0.41374495893E+01 -0.50020044724E+01  0.11706438943E+02  0.51100000000E-03 0. -1.
        -11    1    3    3    0    0 -0.15822234325E+02  0.28205402899E+02 -0.54905831239E+01  0.32802962595E+02  0.51100000000E-03 0.  1.
         12    1    3    3    0    0 -0.78128425361E+01 -0.26826598877E+02 -0.78680810406E+00  0.27952208907E+02  0.00000000000E+00 0. -1.
</event>
<event>
 7    1  0.2656097E-013  0.7246156E+02  0.7816164E-02  0.1226708E+00
        -11   -1    0    0    0    0  0.00000000000E+00  0.00000000000E+00  0.45593999997E+02  0.45594000000E+02  0.51100000000E-03 0.  1.
         11   -1    0    0    0    0 -0.00000000000E+00 -0.00000000000E+00 -0.45593999997E+02  0.45594000000E+02  0.51100000000E-03 0. -1.
    9900012    2    1    2    0    0 -0.11422480834E+01 -0.15631337714E+02 -0.10248703312E+02  0.72461564969E+02  0.69999993062E+02 0.  0.
        -12    1    1    2    0    0  0.11422480834E+01  0.15631337714E+02  0.10248703312E+02  0.18726435031E+02  0.00000000000E+00 0.  1.
         11    1    3    3    0    0  0.21414369978E+02 -0.16375736662E+02 -0.56752723162E+01  0.27549023737E+02  0.51100000000E-03 0. -1.
        -11    1    3    3    0    0  0.63174855076E+01 -0.89127915669E+01 -0.89893723527E+01  0.14147695650E+02  0.51100000000E-03 0.  1.
        -12    1    3    3    0    0 -0.28874103569E+02  0.96571905151E+01  0.44159413564E+01  0.30764845581E+02  0.00000000000E+00 0.  1.
</event>
<event>
 7    1  0.2656097E-013  0.7246154E+02  0.7816164E-02  0.1226708E+00
        -11   -1    0    0    0    0  0.00000000000E+00  0.00000000000E+00  0.45593999997E+02  0.45594000000E+02  0.51100000000E-03 0. -1.
         11   -1    0    0    0    0 -0.00000000000E+00 -0.00000000000E+00 -0.45593999997E+02  0.45594000000E+02  0.51100000000E-03 0.  1.
    9900012    2    1    2    0    0  0.13361373535E+02  0.17442494203E+01  0.13004295865E+02  0.72461536914E+02  0.69999956515E+02 0.  0.
        -12    1    1    2    0    0 -0.13361373535E+02 -0.17442494203E+01 -0.13004295865E+02  0.18726463086E+02  0.00000000000E+00 0.  1.
         11    1    3    3    0    0  0.22377978938E+01  0.25035921109E+00  0.92805428261E+01  0.95498112314E+01  0.51100000000E-03 0. -1.
        -11    1    3    3    0    0 -0.83020421690E+01  0.10936012136E+02 -0.24070927888E+02  0.27711546966E+02  0.51100000000E-03 0.  1.
         12    1    3    3    0    0  0.19425617810E+02 -0.94421219269E+01  0.27794680927E+02  0.35200178716E+02  0.00000000000E+00 0. -1.
</event>
<event>
 7    1  0.2656097E-013  0.7246156E+02  0.7816164E-02  0.1226708E+00
        -11   -1    0    0    0    0  0.00000000000E+00  0.00000000000E+00  0.45593999997E+02  0.45594000000E+02  0.51100000000E-03 0.  1.
         11   -1    0    0    0    0 -0.00000000000E+00 -0.00000000000E+00 -0.45593999997E+02  0.45594000000E+02  0.51100000000E-03 0. -1.
    9900012    2    1    2    0    0 -0.52979660751E+01  0.17757089501E+02 -0.27012421471E+01  0.72461564642E+02  0.69999992637E+02 0.  0.
        -12    1    1    2    0    0  0.52979660751E+01 -0.17757089501E+02  0.27012421471E+01  0.18726435358E+02  0.00000000000E+00 0.  1.
         11    1    3    3    0    0  0.49927091095E+01 -0.11885265982E+01 -0.87153668234E+01  0.10114215682E+02  0.51100000000E-03 0. -1.
        -11    1    3    3    0    0 -0.37342166678E+01  0.54273704730E+01  0.31815460949E+02  0.32490372112E+02  0.51100000000E-03 0.  1.
         12    1    3    3    0    0 -0.65564585168E+01  0.13518245626E+02 -0.25801336272E+02  0.29856976848E+02  0.00000000000E+00 0. -1.
</event>
<event>
 7    1  0.2656097E-013  0.7246158E+02  0.7816164E-02  0.1226708E+00
        -11   -1    0    0    0    0  0.00000000000E+00  0.00000000000E+00  0.45593999997E+02  0.45594000000E+02  0.51100000000E-03 0.  1.
         11   -1    0    0    0    0 -0.00000000000E+00 -0.00000000000E+00 -0.45593999997E+02  0.45594000000E+02  0.51100000000E-03 0. -1.
    9900012    2    1    2    0    0  0.45682124659E+01 -0.11216475184E+01 -0.18126006912E+02  0.72461580565E+02  0.70000013379E+02 0.  0.
        -12    1    1    2    0    0 -0.45682124659E+01  0.11216475184E+01  0.18126006912E+02  0.18726419435E+02  0.00000000000E+00 0.  1.
         11    1    3    3    0    0 -0.11359366336E+02 -0.83926172474E+01  0.10281613356E+02  0.17469481998E+02  0.51100000000E-03 0.  1.
        -11    1    3    3    0    0  0.14832228365E+02  0.33508728859E+00  0.87182661785E+01  0.17208005322E+02  0.51100000000E-03 0. -1.
        -12    1    3    3    0    0  0.10953504372E+01  0.69358824403E+01 -0.37125886447E+02  0.37784093244E+02  0.00000000000E+00 0.  1.
</event>
<event>
 7    1  0.2656097E-013  0.7246173E+02  0.7816164E-02  0.1226708E+00
        -11   -1    0    0    0    0  0.00000000000E+00  0.00000000000E+00  0.45593999997E+02  0.45594000000E+02  0.51100000000E-03 0. -1.
         11   -1    0    0    0    0 -0.00000000000E+00 -0.00000000000E+00 -0.45593999997E+02  0.45594000000E+02  0.51100000000E-03 0.  1.
    9900012    2    1    2    0    0  0.14692825949E+02 -0.10641515927E+02  0.46424194740E+01  0.72461733576E+02  0.70000212705E+02 0.  0.
        -12    1    1    2    0    0 -0.14692825949E+02  0.10641515927E+02 -0.46424194740E+01  0.18726266424E+02  0.00000000000E+00 0.  1.
         11    1    3    3    0    0  0.24646202649E+02 -0.16507318860E+02  0.53181416395E+01  0.30136514591E+02  0.51100000000E-03 0. -1.
        -11    1    3    3    0    0  0.12716570364E+02  0.88411514479E+01 -0.90938820940E+01  0.17960395668E+02  0.51100000000E-03 0.  1.
        -12    1    3    3    0    0 -0.22669947064E+02 -0.29753485153E+01  0.84181599285E+01  0.24364823317E+02  0.00000000000E+00 0.  1.
</event>
<event>
 7    1  0.2656097E-013  0.7246162E+02  0.7816164E-02  0.1226708E+00
        -11   -1    0    0    0    0  0.00000000000E+00  0.00000000000E+00  0.45593999997E+02  0.45594000000E+02  0.51100000000E-03 0.  1.
         11   -1    0    0    0    0 -0.00000000000E+00 -0.00000000000E+00 -0.45593999997E+02  0.45594000000E+02  0.51100000000E-03 0. -1.
    9900012    2    1    2    0    0  0.60045105446E+01 -0.16134319272E+02 -0.73693175853E+01  0.72461621628E+02  0.70000066872E+02 0.  0.
        -12    1    1    2    0    0 -0.60045105446E+01  0.16134319272E+02  0.73693175853E+01  0.18726378372E+02  0.00000000000E+00 0.  1.
         11    1    3    3    0    0 -0.10247040952E+02 -0.10058793088E+00 -0.22927756907E+02  0.25113621867E+02  0.51100000000E-03 0. -1.
        -11    1    3    3    0    0  0.94187158193E+01 -0.13746054474E+02 -0.10909398974E+02  0.19916857370E+02  0.51100000000E-03 0.  1.
        -12    1    3    3    0    0  0.68328356775E+01 -0.22876768671E+01  0.26467838295E+02  0.27431142391E+02  0.00000000000E+00 0.  1.
</event>
<event>
 7    1  0.2656097E-013  0.7246158E+02  0.7816164E-02  0.1226708E+00
        -11   -1    0    0    0    0  0.00000000000E+00  0.00000000000E+00  0.45593999997E+02  0.45594000000E+02  0.51100000000E-03 0.  1.
         11   -1    0    0    0    0 -0.00000000000E+00 -0.00000000000E+00 -0.45593999997E+02  0.45594000000E+02  0.51100000000E-03 0. -1.
    9900012    2    1    2    0    0 -0.74517406113E+01 -0.42789088197E+01 -0.16638553748E+02  0.72461575631E+02  0.70000006952E+02 0.  0.
        -12    1    1    2    0    0  0.74517406113E+01  0.42789088197E+01  0.16638553748E+02  0.18726424369E+02  0.00000000000E+00 0.  1.
         11    1    3    3    0    0 -0.21681889709E+02 -0.12738104203E+01 -0.14516745118E+02  0.26123989424E+02  0.51100000000E-03 0. -1.
        -11    1    3    3    0    0  0.76098457610E+01 -0.42145565980E+01  0.20748170224E+02  0.22497973414E+02  0.51100000000E-03 0.  1.
         12    1    3    3    0    0  0.66203033366E+01  0.12094581987E+01 -0.22869978853E+02  0.23839612794E+02  0.00000000000E+00 0. -1.
</event>
<event>
 7    1  0.2656097E-013  0.7246157E+02  0.7816164E-02  0.1226708E+00
        -11   -1    0    0    0    0  0.00000000000E+00  0.00000000000E+00  0.45593999997E+02  0.45594000000E+02  0.51100000000E-03 0. -1.
         11   -1    0    0    0    0 -0.00000000000E+00 -0.00000000000E+00 -0.45593999997E+02  0.45594000000E+02  0.51100000000E-03 0.  1.
    9900012    2    1    2    0    0 -0.97647108121E+01 -0.12739446363E+02 -0.96455146654E+01  0.72461574179E+02  0.70000005060E+02 0.  0.
        -12    1    1    2    0    0  0.97647108121E+01  0.12739446363E+02  0.96455146654E+01  0.18726425821E+02  0.00000000000E+00 0.  1.
         11    1    3    3    0    0  0.57423176260E+01  0.50491459985E+01  0.44169756326E+01  0.88305017430E+01  0.51100000000E-03 0. -1.
        -11    1    3    3    0    0  0.36817386636E+01  0.41119849786E+01 -0.29954527542E+02  0.30458781010E+02  0.51100000000E-03 0.  1.
         12    1    3    3    0    0 -0.19188767102E+02 -0.21900577340E+02  0.15892037244E+02  0.33172291426E+02  0.00000000000E+00 0. -1.
</event>
<event>
 7    1  0.2656097E-013  0.7246155E+02  0.7816164E-02  0.1226708E+00
        -11   -1    0    0    0    0  0.00000000000E+00  0.00000000000E+00  0.45593999997E+02  0.45594000000E+02  0.51100000000E-03 0.  1.
         11   -1    0    0    0    0 -0.00000000000E+00 -0.00000000000E+00 -0.45593999997E+02  0.45594000000E+02  0.51100000000E-03 0. -1.
    9900012    2    1    2    0    0  0.74041084930E+01 -0.17200067215E+02 -0.12964487623E+00  0.72461549654E+02  0.69999973112E+02 0.  0.
        -12    1    1    2    0    0 -0.74041084930E+01  0.17200067215E+02  0.12964487623E+00  0.18726450346E+02  0.00000000000E+00 0.  1.
         11    1    3    3    0    0 -0.30362066171E+01  0.28501364693E+01 -0.47722596961E+01  0.63337422890E+01  0.51100000000E-03 0. -1.
        -11    1    3    3    0    0 -0.15344378994E+02  0.90002376694E+01 -0.14382357337E+02  0.22875892281E+02  0.51100000000E-03 0.  1.
         12    1    3    3    0    0  0.25784694104E+02 -0.29050441353E+02  0.19024972157E+02  0.43251915084E+02  0.00000000000E+00 0. -1.
</event>
<event>
 7    1  0.2656097E-013  0.7246164E+02  0.7816164E-02  0.1226708E+00
        -11   -1    0    0    0    0  0.00000000000E+00  0.00000000000E+00  0.45593999997E+02  0.45594000000E+02  0.51100000000E-03 0. -1.
         11   -1    0    0    0    0 -0.00000000000E+00 -0.00000000000E+00 -0.45593999997E+02  0.45594000000E+02  0.51100000000E-03 0.  1.
    9900012    2    1    2    0    0 -0.62922601929E+01  0.10169542572E+02 -0.14410572401E+02  0.72461635393E+02  0.70000084804E+02 0.  0.
        -12    1    1    2    0    0  0.62922601929E+01 -0.10169542572E+02  0.14410572401E+02  0.18726364607E+02  0.00000000000E+00 0.  1.
         11    1    3    3    0    0 -0.67297076606E+01 -0.95376070315E+01  0.12384249473E+02  0.17018359156E+02  0.51100000000E-03 0. -1.
        -11    1    3    3    0    0 -0.19165093523E+02 -0.85469197618E+00 -0.55542405170E+01  0.19972002807E+02  0.51100000000E-03 0.  1.
         12    1    3    3    0    0  0.19602540991E+02  0.20561841580E+02 -0.21240581357E+02  0.35471273431E+02  0.00000000000E+00 0. -1.
</event>
<event>
 7    1  0.2656097E-013  0.7246153E+02  0.7816164E-02  0.1226708E+00
        -11   -1    0    0    0    0  0.00000000000E+00  0.00000000000E+00  0.45593999997E+02  0.45594000000E+02  0.51100000000E-03 0. -1.
         11   -1    0    0    0    0 -0.00000000000E+00 -0.00000000000E+00 -0.45593999997E+02  0.45594000000E+02  0.51100000000E-03 0.  1.
    9900012    2    1    2    0    0 -0.18711413874E+01  0.11098698035E+01  0.18599669410E+02  0.72461529878E+02  0.69999947350E+02 0.  0.
        -12    1    1    2    0    0  0.18711413874E+01 -0.11098698035E+01 -0.18599669410E+02  0.18726470122E+02  0.00000000000E+00 0.  1.
         11    1    3    3    0    0 -0.78571328227E+00  0.52334561132E+01  0.40203246328E+01  0.66460077239E+01  0.51100000000E-03 0. -1.
        -11    1    3    3    0    0  0.30872038061E+02  0.35599684159E+01  0.42707775351E+01  0.31368704949E+02  0.51100000000E-03 0.  1.
         12    1    3    3    0    0 -0.31957466166E+02 -0.76835547256E+01  0.10308567242E+02  0.34446817205E+02  0.00000000000E+00 0. -1.
</event>
<event>
 7    1  0.2656097E-013  0.7246175E+02  0.7816164E-02  0.1226708E+00
        -11   -1    0    0    0    0  0.00000000000E+00  0.00000000000E+00  0.45593999997E+02  0.45594000000E+02  0.51100000000E-03 0. -1.
         11   -1    0    0    0    0 -0.00000000000E+00 -0.00000000000E+00 -0.45593999997E+02  0.45594000000E+02  0.51100000000E-03 0.  1.
    9900012    2    1    2    0    0 -0.66263336752E+01 -0.15899126575E+02 -0.73472394487E+01  0.72461749672E+02  0.70000233672E+02 0.  0.
        -12    1    1    2    0    0  0.66263336752E+01  0.15899126575E+02  0.73472394487E+01  0.18726250328E+02  0.00000000000E+00 0.  1.
         11    1    3    3    0    0 -0.72332898233E+01 -0.25019718905E+01  0.26374831703E+02  0.27462922143E+02  0.51100000000E-03 0. -1.
        -11    1    3    3    0    0  0.78327951242E+01 -0.12359620300E+02 -0.51554502244E+01  0.15514237354E+02  0.51100000000E-03 0.  1.
        -12    1    3    3    0    0 -0.72258389761E+01 -0.10375343853E+01 -0.28566620928E+02  0.29484590174E+02  0.00000000000E+00 0.  1.
</event>
<event>
 7    1  0.2656097E-013  0.7246169E+02  0.7816164E-02  0.1226708E+00
        -11   -1    0    0    0    0  0.00000000000E+00  0.00000000000E+00  0.45593999997E+02  0.45594000000E+02  0.51100000000E-03 0.  1.
         11   -1    0    0    0    0 -0.00000000000E+00 -0.00000000000E+00 -0.45593999997E+02  0.45594000000E+02  0.51100000000E-03 0. -1.
    9900012    2    1    2    0    0 -0.35752394685E+01  0.20988813158E+01 -0.18261627928E+02  0.72461689776E+02  0.70000155647E+02 0.  0.
        -12    1    1    2    0    0  0.35752394685E+01 -0.20988813158E+01  0.18261627928E+02  0.18726310224E+02  0.00000000000E+00 0.  1.
         11    1    3    3    0    0 -0.81110261091E-02 -0.22136355000E+01 -0.33903394196E+02  0.33975585149E+02  0.51100000000E-03 0. -1.
        -11    1    3    3    0    0 -0.12132065752E+02 -0.27882797827E+01 -0.62501547099E+01  0.13929320074E+02  0.51100000000E-03 0.  1.
        -12    1    3    3    0    0  0.85649373099E+01  0.71007965985E+01  0.21891920979E+02  0.24556784553E+02  0.00000000000E+00 0.  1.
</event>
<event>
 7    1  0.2656097E-013  0.7246152E+02  0.7816164E-02  0.1226708E+00
        -11   -1    0    0    0    0  0.00000000000E+00  0.00000000000E+00  0.45593999997E+02  0.45594000000E+02  0.51100000000E-03 0.  1.
         11   -1    0    0    0    0 -0.00000000000E+00 -0.00000000000E+00 -0.45593999997E+02  0.45594000000E+02  0.51100000000E-03 0. -1.
    9900012    2    1    2    0    0  0.63198383125E+01 -0.14442580319E+02  0.10107047522E+02  0.72461524299E+02  0.69999940083E+02 0.  0.
        -12    1    1    2    0    0 -0.63198383125E+01  0.14442580319E+02 -0.10107047522E+02  0.18726475701E+02  0.00000000000E+00 0.  1.
         11    1    3    3    0    0  0.15357738360E+02  0.40847251974E+01  0.11160086513E+02  0.19418873260E+02  0.51100000000E-03 0. -1.
        -11    1    3    3    0    0  0.11478229046E+01  0.12621196114E+02  0.12294698325E+02  0.17657057963E+02  0.51100000000E-03 0.  1.
         12    1    3    3    0    0 -0.10185722952E+02 -0.31148501630E+02 -0.13347737315E+02  0.35385593075E+02  0.00000000000E+00 0. -1.
</event>
<event>
 7    1  0.2783454E-013  0.7246153E+02  0.7816164E-02  0.1226708E+00
        -11   -1    0    0    0    0  0.00000000000E+00  0.00000000000E+00  0.45593999997E+02  0.45594000000E+02  0.51100000000E-03 0. -1.
         11   -1    0    0    0    0 -0.00000000000E+00 -0.00000000000E+00 -0.45593999997E+02  0.45594000000E+02  0.51100000000E-03 0.  1.
    9900012    2    1    2    0    0 -0.29427841562E+01  0.88607657245E+01  0.16232916385E+02  0.72461528838E+02  0.69999945995E+02 0.  0.
        -12    1    1    2    0    0  0.29427841562E+01 -0.88607657245E+01 -0.16232916385E+02  0.18726471162E+02  0.00000000000E+00 0.  1.
         11    1    3    3    0    0 -0.17592619125E+02 -0.24234610537E+01  0.20031475483E+02  0.26770009740E+02  0.51100000000E-03 0. -1.
        -11    1    3    3    0    0 -0.11526786347E+02  0.24378913190E+01 -0.12052070442E+02  0.16854154377E+02  0.51100000000E-03 0.  1.
         12    1    3    3    0    0  0.26176621316E+02  0.88463354592E+01  0.82535113433E+01  0.28837364721E+02  0.00000000000E+00 0. -1.
</event>
<event>
 7    1  0.2656097E-013  0.7246151E+02  0.7816164E-02  0.1226708E+00
        -11   -1    0    0    0    0  0.00000000000E+00  0.00000000000E+00  0.45593999997E+02  0.45594000000E+02  0.51100000000E-03 0.  1.
         11   -1    0    0    0    0 -0.00000000000E+00 -0.00000000000E+00 -0.45593999997E+02  0.45594000000E+02  0.51100000000E-03 0. -1.
    9900012    2    1    2    0    0 -0.17588012429E+02  0.64260300551E+01 -0.22220479945E+00  0.72461510248E+02  0.69999921779E+02 0.  0.
        -12    1    1    2    0    0  0.17588012429E+02 -0.64260300551E+01  0.22220479945E+00  0.18726489752E+02  0.00000000000E+00 0.  1.
         11    1    3    3    0    0 -0.11478069612E+02  0.19263350882E+02 -0.21265256527E+01  0.22524317544E+02  0.51100000000E-03 0. -1.
        -11    1    3    3    0    0 -0.70087467202E+01 -0.21570619967E+01 -0.22295279782E+02  0.23470299271E+02  0.51100000000E-03 0.  1.
        -12    1    3    3    0    0  0.89880390387E+00 -0.10680258830E+02  0.24199600635E+02  0.26466893433E+02  0.00000000000E+00 0.  1.
</event>
<event>
 7    1  0.2656097E-013  0.7246167E+02  0.7816164E-02  0.1226708E+00
        -11   -1    0    0    0    0  0.00000000000E+00  0.00000000000E+00  0.45593999997E+02  0.45594000000E+02  0.51100000000E-03 0.  1.
         11   -1    0    0    0    0 -0.00000000000E+00 -0.00000000000E+00 -0.45593999997E+02  0.45594000000E+02  0.51100000000E-03 0. -1.
    9900012    2    1    2    0    0 -0.83599579088E+01  0.16445166315E+02  0.32160865300E+01  0.72461665497E+02  0.70000124019E+02 0.  0.
        -12    1    1    2    0    0  0.83599579088E+01 -0.16445166315E+02 -0.32160865300E+01  0.18726334503E+02  0.00000000000E+00 0.  1.
         11    1    3    3    0    0  0.13771766450E+02  0.41833112890E+01  0.91528333639E+01  0.17056846231E+02  0.51100000000E-03 0. -1.
        -11    1    3    3    0    0  0.10190116506E+02  0.14056149421E+01  0.12862049467E+02  0.16469564188E+02  0.51100000000E-03 0.  1.
         12    1    3    3    0    0 -0.32321840865E+02  0.10856240084E+02 -0.18798796301E+02  0.38935255078E+02  0.00000000000E+00 0. -1.
</event>
<event>
 7    1  0.2656097E-013  0.7246146E+02  0.7816164E-02  0.1226708E+00
        -11   -1    0    0    0    0  0.00000000000E+00  0.00000000000E+00  0.45593999997E+02  0.45594000000E+02  0.51100000000E-03 0.  1.
         11   -1    0    0    0    0 -0.00000000000E+00 -0.00000000000E+00 -0.45593999997E+02  0.45594000000E+02  0.51100000000E-03 0. -1.
    9900012    2    1    2    0    0  0.14134649244E+01  0.16402212994E+02 -0.89248382051E+01  0.72461462381E+02  0.69999859423E+02 0.  0.
        -12    1    1    2    0    0 -0.14134649244E+01 -0.16402212994E+02  0.89248382051E+01  0.18726537619E+02  0.00000000000E+00 0.  1.
         11    1    3    3    0    0 -0.43950326278E+01  0.11335648705E+02 -0.59598308493E+01  0.13540045324E+02  0.51100000000E-03 0. -1.
        -11    1    3    3    0    0 -0.83398119265E+01  0.20986211581E+02  0.18118566876E+02  0.28952651094E+02  0.51100000000E-03 0.  1.
         12    1    3    3    0    0  0.14148309479E+02 -0.15919647292E+02 -0.21083574231E+02  0.29968765963E+02  0.00000000000E+00 0. -1.
</event>
<event>
 7    1  0.2656097E-013  0.7246157E+02  0.7816164E-02  0.1226708E+00
        -11   -1    0    0    0    0  0.00000000000E+00  0.00000000000E+00  0.45593999997E+02  0.45594000000E+02  0.51100000000E-03 0. -1.
         11   -1    0    0    0    0 -0.00000000000E+00 -0.00000000000E+00 -0.45593999997E+02  0.45594000000E+02  0.51100000000E-03 0.  1.
    9900012    2    1    2    0    0 -0.93867235118E+01 -0.16001220326E+02 -0.25552860245E+01  0.72461571700E+02  0.70000001831E+02 0.  0.
        -12    1    1    2    0    0  0.93867235118E+01  0.16001220326E+02  0.25552860245E+01  0.18726428300E+02  0.00000000000E+00 0.  1.
         11    1    3    3    0    0 -0.58175637026E+01 -0.38418054286E+02  0.12717052245E+02  0.40884157819E+02  0.51100000000E-03 0. -1.
        -11    1    3    3    0    0 -0.16544081039E+01  0.14531534669E+01  0.29869526868E+01  0.37108769566E+01  0.51100000000E-03 0.  1.
        -12    1    3    3    0    0 -0.19147517054E+01  0.20963680493E+02 -0.18259290956E+02  0.27866536924E+02  0.00000000000E+00 0.  1.
</event>
<event>
 7    1  0.2656097E-013  0.7246162E+02  0.7816164E-02  0.1226708E+00
        -11   -1    0    0    0    0  0.00000000000E+00  0.00000000000E+00  0.45593999997E+02  0.45594000000E+02  0.51100000000E-03 0.  1.
         11   -1    0    0    0    0 -0.00000000000E+00 -0.00000000000E+00 -0.45593999997E+02  0.45594000000E+02  0.51100000000E-03 0. -1.
    9900012    2    1    2    0    0 -0.74638619559E+01 -0.13176872801E+02 -0.11015359460E+02  0.72461618712E+02  0.70000063073E+02 0.  0.
        -12    1    1    2    0    0  0.74638619559E+01  0.13176872801E+02  0.11015359460E+02  0.18726381288E+02  0.00000000000E+00 0.  1.
         11    1    3    3    0    0  0.54083126702E+01  0.49133098402E+01 -0.24839452800E+01  0.77175413144E+01  0.51100000000E-03 0. -1.
        -11    1    3    3    0    0  0.10487323341E+02  0.17994808402E+02  0.43760695938E+00  0.20832392575E+02  0.51100000000E-03 0.  1.
         12    1    3    3    0    0 -0.23359497967E+02 -0.36084991043E+02 -0.89690211393E+01  0.43911684823E+02  0.00000000000E+00 0. -1.
</event>
<event>
 7    1  0.2656097E-013  0.7246165E+02  0.7816164E-02  0.1226708E+00
        -11   -1    0    0    0    0  0.00000000000E+00  0.00000000000E+00  0.45593999997E+02  0.45594000000E+02  0.51100000000E-03 0. -1.
         11   -1    0    0    0    0 -0.00000000000E+00 -0.00000000000E+00 -0.45593999997E+02  0.45594000000E+02  0.51100000000E-03 0.  1.
    9900012    2    1    2    0    0 -0.10389099991E+02  0.10598002601E+02  0.11420375921E+02  0.72461653749E+02  0.70000108715E+02 0.  0.
        -12    1    1    2    0    0  0.10389099991E+02 -0.10598002601E+02 -0.11420375921E+02  0.18726346251E+02  0.00000000000E+00 0.  1.
         11    1    3    3    0    0 -0.28812278054E+00  0.28700040101E+01 -0.70602563029E+01  0.76267396100E+01  0.51100000000E-03 0. -1.
        -11    1    3    3    0    0  0.14449265275E+02 -0.18338508719E+02 -0.22570313648E+01  0.23455838503E+02  0.51100000000E-03 0.  1.
         12    1    3    3    0    0 -0.24550242485E+02  0.26066507310E+02  0.20737663588E+02  0.41379075636E+02  0.00000000000E+00 0. -1.
</event>
<event>
 7    1  0.2656097E-013  0.7246157E+02  0.7816164E-02  0.1226708E+00
        -11   -1    0    0    0    0  0.00000000000E+00  0.00000000000E+00  0.45593999997E+02  0.45594000000E+02  0.51100000000E-03 0.  1.
         11   -1    0    0    0    0 -0.00000000000E+00 -0.00000000000E+00 -0.45593999997E+02  0.45594000000E+02  0.51100000000E-03 0. -1.
    9900012    2    1    2    0    0  0.75952623526E+01  0.73642783041E+01 -0.15451811844E+02  0.72461572300E+02  0.70000002613E+02 0.  0.
        -12    1    1    2    0    0 -0.75952623526E+01 -0.73642783041E+01  0.15451811844E+02  0.18726427700E+02  0.00000000000E+00 0.  1.
         11    1    3    3    0    0 -0.11913719954E+02  0.11191928307E+02 -0.46150413472E+01  0.16985128473E+02  0.51100000000E-03 0. -1.
        -11    1    3    3    0    0 -0.13867219897E+02 -0.10593146620E+02  0.46591988038E+01  0.18061635495E+02  0.51100000000E-03 0.  1.
        -12    1    3    3    0    0  0.33376202203E+02  0.67654966174E+01 -0.15495969300E+02  0.37414808332E+02  0.00000000000E+00 0.  1.
</event>
<event>
 7    1  0.2656097E-013  0.7246153E+02  0.7816164E-02  0.1226708E+00
        -11   -1    0    0    0    0  0.00000000000E+00  0.00000000000E+00  0.45593999997E+02  0.45594000000E+02  0.51100000000E-03 0.  1.
         11   -1    0    0    0    0 -0.00000000000E+00 -0.00000000000E+00 -0.45593999997E+02  0.45594000000E+02  0.51100000000E-03 0. -1.
    9900012    2    1    2    0    0  0.60249154370E+00  0.18373018062E+02 -0.35706856523E+01  0.72461532507E+02  0.69999950774E+02 0.  0.
        -12    1    1    2    0    0 -0.60249154370E+00 -0.18373018062E+02  0.35706856523E+01  0.18726467493E+02  0.00000000000E+00 0.  1.
         11    1    3    3    0    0 -0.97404407755E+00  0.17613935298E+01  0.25435486117E+01  0.32435950476E+01  0.51100000000E-03 0. -1.
        -11    1    3    3    0    0 -0.21790594059E+02  0.60956042983E+01  0.21733995831E+02  0.31374399695E+02  0.51100000000E-03 0.  1.
         12    1    3    3    0    0  0.23367129680E+02  0.10516020234E+02 -0.27848230095E+02  0.37843537764E+02  0.00000000000E+00 0. -1.
</event>
<event>
 7    1  0.2656097E-013  0.7246154E+02  0.7816164E-02  0.1226708E+00
        -11   -1    0    0    0    0  0.00000000000E+00  0.00000000000E+00  0.45593999997E+02  0.45594000000E+02  0.51100000000E-03 0.  1.
         11   -1    0    0    0    0 -0.00000000000E+00 -0.00000000000E+00 -0.45593999997E+02  0.45594000000E+02  0.51100000000E-03 0. -1.
    9900012    2    1    2    0    0 -0.82183190632E+01 -0.16541631785E+01 -0.16745243056E+02  0.72461543072E+02  0.69999964538E+02 0.  0.
        -12    1    1    2    0    0  0.82183190632E+01  0.16541631785E+01  0.16745243056E+02  0.18726456928E+02  0.00000000000E+00 0.  1.
         11    1    3    3    0    0 -0.85295464157E+01 -0.64713035063E+01 -0.28449504273E+02  0.30397454248E+02  0.51100000000E-03 0. -1.
        -11    1    3    3    0    0  0.28800269003E+01 -0.43504479819E+01 -0.13846676019E+02  0.14797006103E+02  0.51100000000E-03 0.  1.
        -12    1    3    3    0    0 -0.25687995479E+01  0.91675883097E+01  0.25550937235E+02  0.27267082721E+02  0.00000000000E+00 0.  1.
</event>
<event>
 7    1  0.2656097E-013  0.7246151E+02  0.7816164E-02  0.1226708E+00
        -11   -1    0    0    0    0  0.00000000000E+00  0.00000000000E+00  0.45593999997E+02  0.45594000000E+02  0.51100000000E-03 0. -1.
         11   -1    0    0    0    0 -0.00000000000E+00 -0.00000000000E+00 -0.45593999997E+02  0.45594000000E+02  0.51100000000E-03 0.  1.
    9900012    2    1    2    0    0  0.71179276548E+01  0.48104633894E+01  0.16639586623E+02  0.72461513541E+02  0.69999926069E+02 0.  0.
        -12    1    1    2    0    0 -0.71179276548E+01 -0.48104633894E+01 -0.16639586623E+02  0.18726486459E+02  0.00000000000E+00 0.  1.
         11    1    3    3    0    0 -0.10424062496E+02 -0.15446736869E+02  0.29571780983E+02  0.34953583358E+02  0.51100000000E-03 0.  1.
        -11    1    3    3    0    0  0.99348019952E+01  0.17787504080E+00  0.34304742453E+01  0.10511902017E+02  0.51100000000E-03 0. -1.
        -12    1    3    3    0    0  0.76071881552E+01  0.20079325218E+02 -0.16362668605E+02  0.26996028166E+02  0.00000000000E+00 0.  1.
</event>
<event>
 7    1  0.2656097E-013  0.7246151E+02  0.7816164E-02  0.1226708E+00
        -11   -1    0    0    0    0  0.00000000000E+00  0.00000000000E+00  0.45593999997E+02  0.45594000000E+02  0.51100000000E-03 0. -1.
         11   -1    0    0    0    0 -0.00000000000E+00 -0.00000000000E+00 -0.45593999997E+02  0.45594000000E+02  0.51100000000E-03 0.  1.
    9900012    2    1    2    0    0 -0.18545505796E+02 -0.49491740927E-01  0.25967860831E+01  0.72461507199E+02  0.69999917807E+02 0.  0.
        -12    1    1    2    0    0  0.18545505796E+02  0.49491740927E-01 -0.25967860831E+01  0.18726492801E+02  0.00000000000E+00 0.  1.
         11    1    3    3    0    0  0.12348571116E+02 -0.60446797803E+01  0.14196982619E+02  0.19763088776E+02  0.51100000000E-03 0. -1.
        -11    1    3    3    0    0  0.52821560148E+01  0.13665883397E+01 -0.15104107541E+02  0.16059352438E+02  0.51100000000E-03 0.  1.
         12    1    3    3    0    0 -0.36176232926E+02  0.46285996996E+01  0.35039110052E+01  0.36639065985E+02  0.00000000000E+00 0. -1.
</event>
<event>
 7    1  0.2656097E-013  0.7246144E+02  0.7816164E-02  0.1226708E+00
        -11   -1    0    0    0    0  0.00000000000E+00  0.00000000000E+00  0.45593999997E+02  0.45594000000E+02  0.51100000000E-03 0.  1.
         11   -1    0    0    0    0 -0.00000000000E+00 -0.00000000000E+00 -0.45593999997E+02  0.45594000000E+02  0.51100000000E-03 0. -1.
    9900012    2    1    2    0    0  0.14705293849E+02  0.11156405439E+02  0.31580203420E+01  0.72461437529E+02  0.69999827048E+02 0.  0.
        -12    1    1    2    0    0 -0.14705293849E+02 -0.11156405439E+02 -0.31580203420E+01  0.18726562471E+02  0.00000000000E+00 0.  1.
         11    1    3    3    0    0  0.10062359641E+02 -0.13252865546E+01 -0.51692011372E+01  0.11389824698E+02  0.51100000000E-03 0. -1.
        -11    1    3    3    0    0 -0.21793952248E+01 -0.17051060682E+02 -0.15007646636E+02  0.22819243891E+02  0.51100000000E-03 0.  1.
         12    1    3    3    0    0  0.68223294332E+01  0.29532752676E+02  0.23334868116E+02  0.38252368940E+02  0.00000000000E+00 0. -1.
</event>
<event>
 7    1  0.2656097E-013  0.7246158E+02  0.7816164E-02  0.1226708E+00
        -11   -1    0    0    0    0  0.00000000000E+00  0.00000000000E+00  0.45593999997E+02  0.45594000000E+02  0.51100000000E-03 0.  1.
         11   -1    0    0    0    0 -0.00000000000E+00 -0.00000000000E+00 -0.45593999997E+02  0.45594000000E+02  0.51100000000E-03 0. -1.
    9900012    2    1    2    0    0 -0.15860069230E+02  0.30862510347E+01 -0.94663557734E+01  0.72461584618E+02  0.70000018659E+02 0.  0.
        -12    1    1    2    0    0  0.15860069230E+02 -0.30862510347E+01  0.94663557734E+01  0.18726415382E+02  0.00000000000E+00 0.  1.
         11    1    3    3    0    0 -0.75824282507E+01 -0.11947563542E+02 -0.74454714093E+01  0.15989763523E+02  0.51100000000E-03 0.  1.
        -11    1    3    3    0    0 -0.42527498258E+01  0.37162478171E+01  0.25672066314E+02  0.26285953815E+02  0.51100000000E-03 0. -1.
         12    1    3    3    0    0 -0.40248911536E+01  0.11317566760E+02 -0.27692950678E+02  0.30185867279E+02  0.00000000000E+00 0. -1.
</event>
<event>
 7    1  0.2656097E-013  0.7246155E+02  0.7816164E-02  0.1226708E+00
        -11   -1    0    0    0    0  0.00000000000E+00  0.00000000000E+00  0.45593999997E+02  0.45594000000E+02  0.51100000000E-03 0.  1.
         11   -1    0    0    0    0 -0.00000000000E+00 -0.00000000000E+00 -0.45593999997E+02  0.45594000000E+02  0.51100000000E-03 0. -1.
    9900012    2    1    2    0    0  0.66703106714E+01 -0.17493408417E+02  0.40934825458E+00  0.72461549496E+02  0.69999972906E+02 0.  0.
        -12    1    1    2    0    0 -0.66703106714E+01  0.17493408417E+02 -0.40934825458E+00  0.18726450504E+02  0.00000000000E+00 0.  1.
         11    1    3    3    0    0 -0.15500601503E+02  0.58003642012E+01  0.95085510023E-01  0.16550586496E+02  0.51100000000E-03 0. -1.
        -11    1    3    3    0    0  0.13224715203E+02 -0.36958980104E+02  0.29586114010E+01  0.39365120147E+02  0.51100000000E-03 0.  1.
         12    1    3    3    0    0  0.89461969720E+01  0.13665207486E+02 -0.26443486564E+01  0.16545842853E+02  0.00000000000E+00 0. -1.
</event>
<event>
 7    1  0.2656097E-013  0.7246149E+02  0.7816164E-02  0.1226708E+00
        -11   -1    0    0    0    0  0.00000000000E+00  0.00000000000E+00  0.45593999997E+02  0.45594000000E+02  0.51100000000E-03 0.  1.
         11   -1    0    0    0    0 -0.00000000000E+00 -0.00000000000E+00 -0.45593999997E+02  0.45594000000E+02  0.51100000000E-03 0. -1.
    9900012    2    1    2    0    0 -0.21402746331E+01 -0.12254655427E+02 -0.13997319198E+02  0.72461486713E+02  0.69999891120E+02 0.  0.
        -12    1    1    2    0    0  0.21402746331E+01  0.12254655427E+02  0.13997319198E+02  0.18726513287E+02  0.00000000000E+00 0.  1.
         11    1    3    3    0    0 -0.83078454175E+01 -0.78964924610E+01 -0.14751092238E+02  0.18680728335E+02  0.51100000000E-03 0. -1.
        -11    1    3    3    0    0  0.12329027096E+02  0.19598872179E+02 -0.11858553882E+02  0.26014342203E+02  0.51100000000E-03 0.  1.
        -12    1    3    3    0    0 -0.61614563117E+01 -0.23957035145E+02  0.12612326921E+02  0.27766416175E+02  0.00000000000E+00 0.  1.
</event>
<event>
 7    1  0.2656097E-013  0.7246154E+02  0.7816164E-02  0.1226708E+00
        -11   -1    0    0    0    0  0.00000000000E+00  0.00000000000E+00  0.45593999997E+02  0.45594000000E+02  0.51100000000E-03 0. -1.
         11   -1    0    0    0    0 -0.00000000000E+00 -0.00000000000E+00 -0.45593999997E+02  0.45594000000E+02  0.51100000000E-03 0.  1.
    9900012    2    1    2    0    0 -0.16052054778E+01  0.18573141228E+02  0.17725954684E+01  0.72461538658E+02  0.69999958788E+02 0.  0.
        -12    1    1    2    0    0  0.16052054778E+01 -0.18573141228E+02 -0.17725954684E+01  0.18726461342E+02  0.00000000000E+00 0.  1.
         11    1    3    3    0    0  0.45300684558E+01  0.59759337307E+01  0.12163433996E+02  0.14289241793E+02  0.51100000000E-03 0. -1.
        -11    1    3    3    0    0 -0.97456196197E+01 -0.19381176823E+02  0.53557721292E+01  0.22344829652E+02  0.51100000000E-03 0.  1.
         12    1    3    3    0    0  0.36103456861E+01  0.31978384321E+02 -0.15746610657E+02  0.35827467213E+02  0.00000000000E+00 0. -1.
</event>
<event>
 7    1  0.2656097E-013  0.7246160E+02  0.7816164E-02  0.1226708E+00
        -11   -1    0    0    0    0  0.00000000000E+00  0.00000000000E+00  0.45593999997E+02  0.45594000000E+02  0.51100000000E-03 0.  1.
         11   -1    0    0    0    0 -0.00000000000E+00 -0.00000000000E+00 -0.45593999997E+02  0.45594000000E+02  0.51100000000E-03 0. -1.
    9900012    2    1    2    0    0 -0.13454595744E+02 -0.87620708847E+01 -0.96373216595E+01  0.72461601478E+02  0.70000040623E+02 0.  0.
        -12    1    1    2    0    0  0.13454595744E+02  0.87620708847E+01  0.96373216595E+01  0.18726398522E+02  0.00000000000E+00 0.  1.
         11    1    3    3    0    0 -0.48053235684E+01 -0.10890867416E+02  0.73053397989E+01  0.13966750428E+02  0.51100000000E-03 0. -1.
        -11    1    3    3    0    0 -0.16312476964E+02 -0.14731759818E+02  0.11305196480E+02  0.24716980393E+02  0.51100000000E-03 0.  1.
         12    1    3    3    0    0  0.76632047879E+01  0.16860556350E+02 -0.28247857939E+02  0.33777870658E+02  0.00000000000E+00 0. -1.
</event>
<event>
 7    1  0.2656097E-013  0.7246156E+02  0.7816164E-02  0.1226708E+00
        -11   -1    0    0    0    0  0.00000000000E+00  0.00000000000E+00  0.45593999997E+02  0.45594000000E+02  0.51100000000E-03 0.  1.
         11   -1    0    0    0    0 -0.00000000000E+00 -0.00000000000E+00 -0.45593999997E+02  0.45594000000E+02  0.51100000000E-03 0. -1.
    9900012    2    1    2    0    0  0.17298381008E+02 -0.56059442982E+01 -0.44742531290E+01  0.72461560455E+02  0.69999987182E+02 0.  0.
        -12    1    1    2    0    0 -0.17298381008E+02  0.56059442982E+01  0.44742531290E+01  0.18726439545E+02  0.00000000000E+00 0.  1.
         11    1    3    3    0    0 -0.10213342837E+02 -0.19717979277E+01 -0.52308121788E+01  0.11643099042E+02  0.51100000000E-03 0. -1.
        -11    1    3    3    0    0  0.28542464844E+01 -0.10327768839E+02  0.23996596363E+02  0.26280147820E+02  0.51100000000E-03 0.  1.
         12    1    3    3    0    0  0.24657477361E+02  0.66936224687E+01 -0.23240037313E+02  0.34538313593E+02  0.00000000000E+00 0. -1.
</event>
<event>
 7    1  0.2656097E-013  0.7246158E+02  0.7816164E-02  0.1226708E+00
        -11   -1    0    0    0    0  0.00000000000E+00  0.00000000000E+00  0.45593999997E+02  0.45594000000E+02  0.51100000000E-03 0.  1.
         11   -1    0    0    0    0 -0.00000000000E+00 -0.00000000000E+00 -0.45593999997E+02  0.45594000000E+02  0.51100000000E-03 0. -1.
    9900012    2    1    2    0    0 -0.11636971527E+02 -0.14665437169E+02 -0.42966668713E+00  0.72461581039E+02  0.70000013996E+02 0.  0.
        -12    1    1    2    0    0  0.11636971527E+02  0.14665437169E+02  0.42966668713E+00  0.18726418961E+02  0.00000000000E+00 0.  1.
         11    1    3    3    0    0 -0.40952161268E+01 -0.80754302743E+00  0.65837785902E+01  0.77954513437E+01  0.51100000000E-03 0. -1.
        -11    1    3    3    0    0 -0.49545257975E+00  0.82003946342E+01  0.24339672949E+02  0.25688745103E+02  0.51100000000E-03 0.  1.
         12    1    3    3    0    0 -0.70463028200E+01 -0.22058288776E+02 -0.31353118226E+02  0.38977384592E+02  0.00000000000E+00 0. -1.
</event>
<event>
 7    1  0.2656097E-013  0.7246160E+02  0.7816164E-02  0.1226708E+00
        -11   -1    0    0    0    0  0.00000000000E+00  0.00000000000E+00  0.45593999997E+02  0.45594000000E+02  0.51100000000E-03 0.  1.
         11   -1    0    0    0    0 -0.00000000000E+00 -0.00000000000E+00 -0.45593999997E+02  0.45594000000E+02  0.51100000000E-03 0. -1.
    9900012    2    1    2    0    0  0.10825005205E+02 -0.14202570791E+02 -0.56377688102E+01  0.72461596397E+02  0.70000034003E+02 0.  0.
        -12    1    1    2    0    0 -0.10825005205E+02  0.14202570791E+02  0.56377688102E+01  0.18726403603E+02  0.00000000000E+00 0.  1.
         11    1    3    3    0    0 -0.15575097016E+01 -0.70400899227E+01  0.40188282467E+01  0.82546764520E+01  0.51100000000E-03 0. -1.
        -11    1    3    3    0    0  0.22553517304E+01 -0.25621018736E+02  0.16554378815E+02  0.30587099743E+02  0.51100000000E-03 0.  1.
         12    1    3    3    0    0  0.10127163176E+02  0.18458537867E+02 -0.26210975872E+02  0.33619820201E+02  0.00000000000E+00 0. -1.
</event>
<event>
 7    1  0.2656097E-013  0.7246157E+02  0.7816164E-02  0.1226708E+00
        -11   -1    0    0    0    0  0.00000000000E+00  0.00000000000E+00  0.45593999997E+02  0.45594000000E+02  0.51100000000E-03 0.  1.
         11   -1    0    0    0    0 -0.00000000000E+00 -0.00000000000E+00 -0.45593999997E+02  0.45594000000E+02  0.51100000000E-03 0. -1.
    9900012    2    1    2    0    0 -0.83099212786E+01 -0.13445485606E+02 -0.10042074036E+02  0.72461571463E+02  0.70000001522E+02 0.  0.
        -12    1    1    2    0    0  0.83099212786E+01  0.13445485606E+02  0.10042074036E+02  0.18726428537E+02  0.00000000000E+00 0.  1.
         11    1    3    3    0    0 -0.52252290538E+01 -0.18174620260E+02  0.13907808134E+02  0.23474389611E+02  0.51100000000E-03 0. -1.
        -11    1    3    3    0    0  0.28524401710E+01 -0.11306286023E+02  0.70198315601E+01  0.13610530994E+02  0.51100000000E-03 0.  1.
         12    1    3    3    0    0 -0.59371323957E+01  0.16035420677E+02 -0.30969713730E+02  0.35376650857E+02  0.00000000000E+00 0. -1.
</event>
<event>
 7    1  0.2656097E-013  0.7246165E+02  0.7816164E-02  0.1226708E+00
        -11   -1    0    0    0    0  0.00000000000E+00  0.00000000000E+00  0.45593999997E+02  0.45594000000E+02  0.51100000000E-03 0.  1.
         11   -1    0    0    0    0 -0.00000000000E+00 -0.00000000000E+00 -0.45593999997E+02  0.45594000000E+02  0.51100000000E-03 0. -1.
    9900012    2    1    2    0    0  0.50008191936E+01 -0.91280869938E+01 -0.15567462436E+02  0.72461653547E+02  0.70000108452E+02 0.  0.
        -12    1    1    2    0    0 -0.50008191936E+01  0.91280869938E+01  0.15567462436E+02  0.18726346453E+02  0.00000000000E+00 0.  1.
         11    1    3    3    0    0  0.16453641306E+02  0.77530302720E+01 -0.21280563767E+02  0.27994538487E+02  0.51100000000E-03 0.  1.
        -11    1    3    3    0    0 -0.13292693527E+02 -0.52336114507E+01 -0.14948654683E+02  0.20677249989E+02  0.51100000000E-03 0. -1.
        -12    1    3    3    0    0  0.18398714145E+01 -0.11647505815E+02  0.20661756013E+02  0.23789865071E+02  0.00000000000E+00 0.  1.
</event>
<event>
 7    1  0.2656097E-013  0.7246166E+02  0.7816164E-02  0.1226708E+00
        -11   -1    0    0    0    0  0.00000000000E+00  0.00000000000E+00  0.45593999997E+02  0.45594000000E+02  0.51100000000E-03 0.  1.
         11   -1    0    0    0    0 -0.00000000000E+00 -0.00000000000E+00 -0.45593999997E+02  0.45594000000E+02  0.51100000000E-03 0. -1.
    9900012    2    1    2    0    0 -0.15676121220E+02 -0.97609832731E+01 -0.31077462301E+01  0.72461664064E+02  0.70000122153E+02 0.  0.
        -12    1    1    2    0    0  0.15676121220E+02  0.97609832731E+01  0.31077462301E+01  0.18726335936E+02  0.00000000000E+00 0.  1.
         11    1    3    3    0    0 -0.14699581513E+02 -0.60943781537E+01 -0.11355183161E+02  0.19548895790E+02  0.51100000000E-03 0. -1.
        -11    1    3    3    0    0  0.12272460707E+01  0.19197248464E+01 -0.21978372246E+02  0.22096160826E+02  0.51100000000E-03 0.  1.
        -12    1    3    3    0    0 -0.22037857773E+01 -0.55863299657E+01  0.30225809177E+02  0.30816607448E+02  0.00000000000E+00 0.  1.
</event>
<event>
 7    1  0.2656097E-013  0.7246179E+02  0.7816164E-02  0.1226707E+00
        -11   -1    0    0    0    0  0.00000000000E+00  0.00000000000E+00  0.45593999997E+02  0.45594000000E+02  0.51100000000E-03 0. -1.
         11   -1    0    0    0    0 -0.00000000000E+00 -0.00000000000E+00 -0.45593999997E+02  0.45594000000E+02  0.51100000000E-03 0.  1.
    9900012    2    1    2    0    0  0.11238279108E+02 -0.10008611969E+01  0.14945581066E+02  0.72461787520E+02  0.70000282976E+02 0.  0.
        -12    1    1    2    0    0 -0.11238279108E+02  0.10008611969E+01 -0.14945581066E+02  0.18726212480E+02  0.00000000000E+00 0.  1.
         11    1    3    3    0    0  0.30718320713E+01 -0.34038512201E+01 -0.81157329345E+01  0.93213452210E+01  0.51100000000E-03 0. -1.
        -11    1    3    3    0    0 -0.18447021375E+02 -0.11519658578E+02  0.24885658323E+02  0.33049827863E+02  0.51100000000E-03 0.  1.
        -12    1    3    3    0    0  0.26613468412E+02  0.13922648601E+02 -0.18243443223E+01  0.30090614436E+02  0.00000000000E+00 0.  1.
</event>
<event>
 7    1  0.2656097E-013  0.7246160E+02  0.7816164E-02  0.1226708E+00
        -11   -1    0    0    0    0  0.00000000000E+00  0.00000000000E+00  0.45593999997E+02  0.45594000000E+02  0.51100000000E-03 0.  1.
         11   -1    0    0    0    0 -0.00000000000E+00 -0.00000000000E+00 -0.45593999997E+02  0.45594000000E+02  0.51100000000E-03 0. -1.
    9900012    2    1    2    0    0  0.10133867052E+02 -0.15395321850E+00 -0.15746713226E+02  0.72461603111E+02  0.70000042750E+02 0.  0.
        -12    1    1    2    0    0 -0.10133867052E+02  0.15395321850E+00  0.15746713226E+02  0.18726396889E+02  0.00000000000E+00 0.  1.
         11    1    3    3    0    0 -0.10645911440E+02 -0.48935771277E+01  0.88277228226E+01  0.14670079004E+02  0.51100000000E-03 0.  1.
        -11    1    3    3    0    0 -0.64120830424E+01  0.24967451909E+01 -0.29303463054E+02  0.30100523130E+02  0.51100000000E-03 0. -1.
        -12    1    3    3    0    0  0.27191861535E+02  0.22428787183E+01  0.47290270050E+01  0.27691000977E+02  0.00000000000E+00 0.  1.
</event>
<event>
 7    1  0.2656097E-013  0.7246158E+02  0.7816164E-02  0.1226708E+00
        -11   -1    0    0    0    0  0.00000000000E+00  0.00000000000E+00  0.45593999997E+02  0.45594000000E+02  0.51100000000E-03 0. -1.
         11   -1    0    0    0    0 -0.00000000000E+00 -0.00000000000E+00 -0.45593999997E+02  0.45594000000E+02  0.51100000000E-03 0.  1.
    9900012    2    1    2    0    0 -0.44051908073E+01  0.18103349775E+02  0.18819727652E+01  0.72461580145E+02  0.70000012832E+02 0.  0.
        -12    1    1    2    0    0  0.44051908073E+01 -0.18103349775E+02 -0.18819727652E+01  0.18726419855E+02  0.00000000000E+00 0.  1.
         11    1    3    3    0    0  0.18333850065E+02  0.25536617647E+02  0.12947586706E+02  0.33998366149E+02  0.51100000000E-03 0. -1.
        -11    1    3    3    0    0  0.42236252199E+01 -0.82940792168E+01 -0.55311158780E-02  0.93075663257E+01  0.51100000000E-03 0.  1.
        -12    1    3    3    0    0 -0.26962666092E+02  0.86081134491E+00 -0.11060082825E+02  0.29155647670E+02  0.00000000000E+00 0.  1.
</event>
<event>
 7    1  0.2656097E-013  0.7246159E+02  0.7816164E-02  0.1226708E+00
        -11   -1    0    0    0    0  0.00000000000E+00  0.00000000000E+00  0.45593999997E+02  0.45594000000E+02  0.51100000000E-03 0.  1.
         11   -1    0    0    0    0 -0.00000000000E+00 -0.00000000000E+00 -0.45593999997E+02  0.45594000000E+02  0.51100000000E-03 0. -1.
    9900012    2    1    2    0    0 -0.16208557841E+02 -0.72175241016E+01 -0.59890404035E+01  0.72461585330E+02  0.70000019586E+02 0.  0.
        -12    1    1    2    0    0  0.16208557841E+02  0.72175241016E+01  0.59890404035E+01  0.18726414670E+02  0.00000000000E+00 0.  1.
         11    1    3    3    0    0 -0.22500831909E+00  0.41225611537E+01 -0.19720158793E+02  0.20147724494E+02  0.51100000000E-03 0. -1.
        -11    1    3    3    0    0 -0.13991402576E+01  0.11101436700E+02 -0.11131614622E+02  0.15783292895E+02  0.51100000000E-03 0.  1.
        -12    1    3    3    0    0 -0.14584409265E+02 -0.22441521956E+02  0.24862733011E+02  0.36530567940E+02  0.00000000000E+00 0.  1.
</event>
<event>
 7    1  0.2656097E-013  0.7246175E+02  0.7816164E-02  0.1226708E+00
        -11   -1    0    0    0    0  0.00000000000E+00  0.00000000000E+00  0.45593999997E+02  0.45594000000E+02  0.51100000000E-03 0.  1.
         11   -1    0    0    0    0 -0.00000000000E+00 -0.00000000000E+00 -0.45593999997E+02  0.45594000000E+02  0.51100000000E-03 0. -1.
    9900012    2    1    2    0    0 -0.16676809857E+02 -0.70271888899E+01 -0.48140526681E+01  0.72461749073E+02  0.70000232892E+02 0.  0.
        -12    1    1    2    0    0  0.16676809857E+02  0.70271888899E+01  0.48140526681E+01  0.18726250927E+02  0.00000000000E+00 0.  1.
         11    1    3    3    0    0 -0.12309056597E+02 -0.14431469125E+02 -0.35194978771E+01  0.19291631372E+02  0.51100000000E-03 0. -1.
        -11    1    3    3    0    0 -0.49316080557E+00  0.19017635517E+02  0.20627745427E+02  0.28060961315E+02  0.51100000000E-03 0.  1.
         12    1    3    3    0    0 -0.38745924542E+01 -0.11613355281E+02 -0.21922300218E+02  0.25109156386E+02  0.00000000000E+00 0. -1.
</event>
<event>
 7    1  0.2656097E-013  0.7246156E+02  0.7816164E-02  0.1226708E+00
        -11   -1    0    0    0    0  0.00000000000E+00  0.00000000000E+00  0.45593999997E+02  0.45594000000E+02  0.51100000000E-03 0. -1.
         11   -1    0    0    0    0 -0.00000000000E+00 -0.00000000000E+00 -0.45593999997E+02  0.45594000000E+02  0.51100000000E-03 0.  1.
    9900012    2    1    2    0    0 -0.17686581088E+02  0.18261978279E+01  0.58761727405E+01  0.72461559998E+02  0.69999986587E+02 0.  0.
        -12    1    1    2    0    0  0.17686581088E+02 -0.18261978279E+01 -0.58761727405E+01  0.18726440002E+02  0.00000000000E+00 0.  1.
         11    1    3    3    0    0 -0.69954450807E+01 -0.40655507608E+01  0.14349510455E+02  0.16473415111E+02  0.51100000000E-03 0. -1.
        -11    1    3    3    0    0 -0.32306791820E+02  0.52782303153E+01  0.75686187887E-01  0.32735214092E+02  0.51100000000E-03 0.  1.
        -12    1    3    3    0    0  0.21615655813E+02  0.61351827347E+00 -0.85490239020E+01  0.23252930795E+02  0.00000000000E+00 0.  1.
</event>
<event>
 7    1  0.2656097E-013  0.7246150E+02  0.7816164E-02  0.1226708E+00
        -11   -1    0    0    0    0  0.00000000000E+00  0.00000000000E+00  0.45593999997E+02  0.45594000000E+02  0.51100000000E-03 0. -1.
         11   -1    0    0    0    0 -0.00000000000E+00 -0.00000000000E+00 -0.45593999997E+02  0.45594000000E+02  0.51100000000E-03 0.  1.
    9900012    2    1    2    0    0 -0.11132304342E+02 -0.12414871683E+02  0.85220084208E+01  0.72461498287E+02  0.69999906198E+02 0.  0.
        -12    1    1    2    0    0  0.11132304342E+02  0.12414871683E+02 -0.85220084208E+01  0.18726501713E+02  0.00000000000E+00 0.  1.
         11    1    3    3    0    0 -0.61640213666E+01 -0.13864723455E+01  0.16887119609E+02  0.18030315414E+02  0.51100000000E-03 0. -1.
        -11    1    3    3    0    0 -0.24678873766E+02 -0.20340865656E+02 -0.52831263310E+01  0.32414642526E+02  0.51100000000E-03 0.  1.
         12    1    3    3    0    0  0.19710590791E+02  0.93124663181E+01 -0.30819848572E+01  0.22016540348E+02  0.00000000000E+00 0. -1.
</event>
<event>
 7    1  0.2656097E-013  0.7246145E+02  0.7816164E-02  0.1226708E+00
        -11   -1    0    0    0    0  0.00000000000E+00  0.00000000000E+00  0.45593999997E+02  0.45594000000E+02  0.51100000000E-03 0.  1.
         11   -1    0    0    0    0 -0.00000000000E+00 -0.00000000000E+00 -0.45593999997E+02  0.45594000000E+02  0.51100000000E-03 0. -1.
    9900012    2    1    2    0    0 -0.22215164855E+01  0.17738502169E+02 -0.55762019172E+01  0.72461451399E+02  0.69999845117E+02 0.  0.
        -12    1    1    2    0    0  0.22215164855E+01 -0.17738502169E+02  0.55762019172E+01  0.18726548601E+02  0.00000000000E+00 0.  1.
         11    1    3    3    0    0  0.49400288975E+01  0.30850998853E+01 -0.17317342512E+02  0.18270524863E+02  0.51100000000E-03 0. -1.
        -11    1    3    3    0    0 -0.29350160606E+01 -0.95463377573E+01 -0.14909369125E+02  0.17945366305E+02  0.51100000000E-03 0.  1.
        -12    1    3    3    0    0 -0.42265293224E+01  0.24199740041E+02  0.26650509720E+02  0.36245560231E+02  0.00000000000E+00 0.  1.
</event>
<event>
 7    1  0.2656097E-013  0.7246157E+02  0.7816164E-02  0.1226708E+00
        -11   -1    0    0    0    0  0.00000000000E+00  0.00000000000E+00  0.45593999997E+02  0.45594000000E+02  0.51100000000E-03 0. -1.
         11   -1    0    0    0    0 -0.00000000000E+00 -0.00000000000E+00 -0.45593999997E+02  0.45594000000E+02  0.51100000000E-03 0.  1.
    9900012    2    1    2    0    0 -0.14055952354E+01 -0.17843986471E+02 -0.55041430916E+01  0.72461571020E+02  0.70000000946E+02 0.  0.
        -12    1    1    2    0    0  0.14055952354E+01  0.17843986471E+02  0.55041430916E+01  0.18726428980E+02  0.00000000000E+00 0.  1.
         11    1    3    3    0    0 -0.20122772044E+02 -0.53022972557E+01 -0.11803347736E+01  0.20843068425E+02  0.51100000000E-03 0. -1.
        -11    1    3    3    0    0 -0.44885835092E+01  0.13603911057E+02  0.54378124222E+01  0.15322649319E+02  0.51100000000E-03 0.  1.
        -12    1    3    3    0    0  0.23205760318E+02 -0.26145600273E+02 -0.97616207403E+01  0.36295853276E+02  0.00000000000E+00 0.  1.
</event>
<event>
 7    1  0.2656097E-013  0.7246160E+02  0.7816164E-02  0.1226708E+00
        -11   -1    0    0    0    0  0.00000000000E+00  0.00000000000E+00  0.45593999997E+02  0.45594000000E+02  0.51100000000E-03 0.  1.
         11   -1    0    0    0    0 -0.00000000000E+00 -0.00000000000E+00 -0.45593999997E+02  0.45594000000E+02  0.51100000000E-03 0. -1.
    9900012    2    1    2    0    0  0.67497272514E+01 -0.12971065905E+02 -0.11699178123E+02  0.72461597851E+02  0.70000035898E+02 0.  0.
        -12    1    1    2    0    0 -0.67497272514E+01  0.12971065905E+02  0.11699178123E+02  0.18726402149E+02  0.00000000000E+00 0.  1.
         11    1    3    3    0    0  0.29343490696E+02  0.30417381476E+01 -0.72566531133E+01  0.30380119023E+02  0.51100000000E-03 0. -1.
        -11    1    3    3    0    0 -0.35721363809E+01 -0.20316354964E+02 -0.82398906095E+01  0.22212839415E+02  0.51100000000E-03 0.  1.
        -12    1    3    3    0    0 -0.19021627064E+02  0.43035509117E+01  0.37973655994E+01  0.19868639413E+02  0.00000000000E+00 0.  1.
</event>
<event>
 7    1  0.2656097E-013  0.7246155E+02  0.7816164E-02  0.1226708E+00
        -11   -1    0    0    0    0  0.00000000000E+00  0.00000000000E+00  0.45593999997E+02  0.45594000000E+02  0.51100000000E-03 0.  1.
         11   -1    0    0    0    0 -0.00000000000E+00 -0.00000000000E+00 -0.45593999997E+02  0.45594000000E+02  0.51100000000E-03 0. -1.
    9900012    2    1    2    0    0  0.55798060432E+01  0.12701691921E+02 -0.12578268832E+02  0.72461546520E+02  0.69999969029E+02 0.  0.
        -12    1    1    2    0    0 -0.55798060432E+01 -0.12701691921E+02  0.12578268832E+02  0.18726453480E+02  0.00000000000E+00 0.  1.
         11    1    3    3    0    0 -0.75499893029E-01  0.15070276371E+02 -0.13094755190E+02  0.19964757546E+02  0.51100000000E-03 0. -1.
        -11    1    3    3    0    0 -0.66432457095E+01  0.22266104990E+02  0.68874863405E+01  0.24235296848E+02  0.51100000000E-03 0.  1.
         12    1    3    3    0    0  0.12298551646E+02 -0.24634689439E+02 -0.63709999822E+01  0.28261492125E+02  0.00000000000E+00 0. -1.
</event>
<event>
 7    1  0.2656097E-013  0.7246171E+02  0.7816164E-02  0.1226708E+00
        -11   -1    0    0    0    0  0.00000000000E+00  0.00000000000E+00  0.45593999997E+02  0.45594000000E+02  0.51100000000E-03 0. -1.
         11   -1    0    0    0    0 -0.00000000000E+00 -0.00000000000E+00 -0.45593999997E+02  0.45594000000E+02  0.51100000000E-03 0.  1.
    9900012    2    1    2    0    0 -0.90019582213E+00 -0.16923536992E+02  0.79660193994E+01  0.72461710407E+02  0.70000182523E+02 0.  0.
        -12    1    1    2    0    0  0.90019582213E+00  0.16923536992E+02 -0.79660193994E+01  0.18726289593E+02  0.00000000000E+00 0.  1.
         11    1    3    3    0    0  0.12665044521E+02 -0.28600911181E+02 -0.97931219535E+01  0.32776831924E+02  0.51100000000E-03 0. -1.
        -11    1    3    3    0    0  0.60572185345E+01 -0.55399514848E+01  0.17618087696E+00  0.82104810329E+01  0.51100000000E-03 0.  1.
        -12    1    3    3    0    0 -0.19622458878E+02  0.17217325674E+02  0.17582960476E+02  0.31474397450E+02  0.00000000000E+00 0.  1.
</event>
<event>
 7    1  0.2656097E-013  0.7246126E+02  0.7816164E-02  0.1226709E+00
        -11   -1    0    0    0    0  0.00000000000E+00  0.00000000000E+00  0.45593999997E+02  0.45594000000E+02  0.51100000000E-03 0.  1.
         11   -1    0    0    0    0 -0.00000000000E+00 -0.00000000000E+00 -0.45593999997E+02  0.45594000000E+02  0.51100000000E-03 0. -1.
    9900012    2    1    2    0    0  0.16358703533E+02  0.82060557598E+01 -0.39678991995E+01  0.72461260923E+02  0.69999596985E+02 0.  0.
        -12    1    1    2    0    0 -0.16358703533E+02 -0.82060557598E+01  0.39678991995E+01  0.18726739077E+02  0.00000000000E+00 0.  1.
         11    1    3    3    0    0 -0.13903551029E+01  0.87331116160E+01  0.51615315799E+01  0.10239225279E+02  0.51100000000E-03 0. -1.
        -11    1    3    3    0    0 -0.64747350429E+00  0.14244604399E+02  0.20109165168E+02  0.24651703804E+02  0.51100000000E-03 0.  1.
         12    1    3    3    0    0  0.18396532140E+02 -0.14771660255E+02 -0.29238595948E+02  0.37570331839E+02  0.00000000000E+00 0. -1.
</event>
<event>
 7    1  0.2656097E-013  0.7246154E+02  0.7816164E-02  0.1226708E+00
        -11   -1    0    0    0    0  0.00000000000E+00  0.00000000000E+00  0.45593999997E+02  0.45594000000E+02  0.51100000000E-03 0.  1.
         11   -1    0    0    0    0 -0.00000000000E+00 -0.00000000000E+00 -0.45593999997E+02  0.45594000000E+02  0.51100000000E-03 0. -1.
    9900012    2    1    2    0    0  0.16424456682E+02 -0.88480255957E+01 -0.16217250284E+01  0.72461539408E+02  0.69999959764E+02 0.  0.
        -12    1    1    2    0    0 -0.16424456682E+02  0.88480255957E+01  0.16217250284E+01  0.18726460592E+02  0.00000000000E+00 0.  1.
         11    1    3    3    0    0 -0.50391450712E+01 -0.21885250025E+01 -0.88154620877E+00  0.55641485166E+01  0.51100000000E-03 0. -1.
        -11    1    3    3    0    0  0.24877315683E+02 -0.10062610221E+02  0.27397109222E+02  0.38350209309E+02  0.51100000000E-03 0.  1.
         12    1    3    3    0    0 -0.34137139291E+01  0.34031096283E+01 -0.28137288042E+02  0.28547181582E+02  0.00000000000E+00 0. -1.
</event>
<event>
 7    1  0.2656097E-013  0.7246157E+02  0.7816164E-02  0.1226708E+00
        -11   -1    0    0    0    0  0.00000000000E+00  0.00000000000E+00  0.45593999997E+02  0.45594000000E+02  0.51100000000E-03 0. -1.
         11   -1    0    0    0    0 -0.00000000000E+00 -0.00000000000E+00 -0.45593999997E+02  0.45594000000E+02  0.51100000000E-03 0.  1.
    9900012    2    1    2    0    0  0.16157165740E+02 -0.84556297343E+01  0.42576563235E+01  0.72461566375E+02  0.69999994894E+02 0.  0.
        -12    1    1    2    0    0 -0.16157165740E+02  0.84556297343E+01 -0.42576563235E+01  0.18726433625E+02  0.00000000000E+00 0.  1.
         11    1    3    3    0    0  0.16340676361E+02  0.11799736428E+02  0.15680611265E+00  0.20156291130E+02  0.51100000000E-03 0. -1.
        -11    1    3    3    0    0 -0.93402750958E+01  0.12048175459E+02 -0.72252342952E+01  0.16870189141E+02  0.51100000000E-03 0.  1.
         12    1    3    3    0    0  0.91567644749E+01 -0.32303541622E+02  0.11326084506E+02  0.35435086104E+02  0.00000000000E+00 0. -1.
</event>
<event>
 7    1  0.2656097E-013  0.7246160E+02  0.7816164E-02  0.1226708E+00
        -11   -1    0    0    0    0  0.00000000000E+00  0.00000000000E+00  0.45593999997E+02  0.45594000000E+02  0.51100000000E-03 0.  1.
         11   -1    0    0    0    0 -0.00000000000E+00 -0.00000000000E+00 -0.45593999997E+02  0.45594000000E+02  0.51100000000E-03 0. -1.
    9900012    2    1    2    0    0 -0.72334632296E+01  0.10434064947E+02 -0.13765374637E+02  0.72461595099E+02  0.70000032313E+02 0.  0.
        -12    1    1    2    0    0  0.72334632296E+01 -0.10434064947E+02  0.13765374637E+02  0.18726404901E+02  0.00000000000E+00 0.  1.
         11    1    3    3    0    0 -0.56677623086E+01 -0.57859482953E+01  0.11554397525E+01  0.81814282705E+01  0.51100000000E-03 0. -1.
        -11    1    3    3    0    0  0.18302233720E+01 -0.22700486153E+02 -0.10107783467E+02  0.24916441882E+02  0.51100000000E-03 0.  1.
         12    1    3    3    0    0 -0.33959242930E+01  0.38920499396E+02 -0.48130309227E+01  0.39363724947E+02  0.00000000000E+00 0. -1.
</event>
<event>
 7    1  0.2656097E-013  0.7246160E+02  0.7816164E-02  0.1226708E+00
        -11   -1    0    0    0    0  0.00000000000E+00  0.00000000000E+00  0.45593999997E+02  0.45594000000E+02  0.51100000000E-03 0.  1.
         11   -1    0    0    0    0 -0.00000000000E+00 -0.00000000000E+00 -0.45593999997E+02  0.45594000000E+02  0.51100000000E-03 0. -1.
    9900012    2    1    2    0    0 -0.17006777128E+02 -0.71325227353E+01 -0.32519062019E+01  0.72461595038E+02  0.70000032234E+02 0.  0.
        -12    1    1    2    0    0  0.17006777128E+02  0.71325227353E+01  0.32519062019E+01  0.18726404962E+02  0.00000000000E+00 0.  1.
         11    1    3    3    0    0 -0.77199044515E+01  0.13454143024E+02 -0.15289477950E+02  0.21780243927E+02  0.51100000000E-03 0. -1.
        -11    1    3    3    0    0  0.16397898197E+02 -0.98660161295E+01  0.12477522606E+02  0.22845522760E+02  0.51100000000E-03 0.  1.
        -12    1    3    3    0    0 -0.25684770873E+02 -0.10720649630E+02 -0.43995085743E+00  0.27835828352E+02  0.00000000000E+00 0.  1.
</event>
<event>
 7    1  0.2656097E-013  0.7246158E+02  0.7816164E-02  0.1226708E+00
        -11   -1    0    0    0    0  0.00000000000E+00  0.00000000000E+00  0.45593999997E+02  0.45594000000E+02  0.51100000000E-03 0.  1.
         11   -1    0    0    0    0 -0.00000000000E+00 -0.00000000000E+00 -0.45593999997E+02  0.45594000000E+02  0.51100000000E-03 0. -1.
    9900012    2    1    2    0    0  0.58564927179E+01 -0.15908489795E+02 -0.79561346015E+01  0.72461584638E+02  0.70000018685E+02 0.  0.
        -12    1    1    2    0    0 -0.58564927179E+01  0.15908489795E+02  0.79561346015E+01  0.18726415362E+02  0.00000000000E+00 0.  1.
         11    1    3    3    0    0 -0.14332351162E+02  0.78687678598E+01 -0.12474335167E+02  0.20565574040E+02  0.51100000000E-03 0. -1.
        -11    1    3    3    0    0 -0.11235164071E+02  0.96832746788E+00  0.37735176663E+01  0.11891425719E+02  0.51100000000E-03 0.  1.
        -12    1    3    3    0    0  0.31424007951E+02 -0.24745585123E+02  0.74468289908E+00  0.40004584880E+02  0.00000000000E+00 0.  1.
</event>
<event>
 7    1  0.2656097E-013  0.7246158E+02  0.7816164E-02  0.1226708E+00
        -11   -1    0    0    0    0  0.00000000000E+00  0.00000000000E+00  0.45593999997E+02  0.45594000000E+02  0.51100000000E-03 0.  1.
         11   -1    0    0    0    0 -0.00000000000E+00 -0.00000000000E+00 -0.45593999997E+02  0.45594000000E+02  0.51100000000E-03 0. -1.
    9900012    2    1    2    0    0  0.19521861486E+01  0.30780963299E+01 -0.18368260991E+02  0.72461582307E+02  0.70000015648E+02 0.  0.
        -12    1    1    2    0    0 -0.19521861486E+01 -0.30780963299E+01  0.18368260991E+02  0.18726417693E+02  0.00000000000E+00 0.  1.
         11    1    3    3    0    0  0.41221957492E+01 -0.54041476816E+01  0.69411624035E+01  0.97147849040E+01  0.51100000000E-03 0. -1.
        -11    1    3    3    0    0 -0.47202801279E+01  0.10050270439E+02  0.17014545438E+02  0.20317079935E+02  0.51100000000E-03 0.  1.
         12    1    3    3    0    0  0.25502705274E+01 -0.15680264276E+01 -0.42323968832E+02  0.42429717467E+02  0.00000000000E+00 0. -1.
</event>
<event>
 7    1  0.2656097E-013  0.7246158E+02  0.7816164E-02  0.1226708E+00
        -11   -1    0    0    0    0  0.00000000000E+00  0.00000000000E+00  0.45593999997E+02  0.45594000000E+02  0.51100000000E-03 0.  1.
         11   -1    0    0    0    0 -0.00000000000E+00 -0.00000000000E+00 -0.45593999997E+02  0.45594000000E+02  0.51100000000E-03 0. -1.
    9900012    2    1    2    0    0 -0.76984183539E+01 -0.15425276039E+02 -0.73125962354E+01  0.72461578833E+02  0.70000011123E+02 0.  0.
        -12    1    1    2    0    0  0.76984183539E+01  0.15425276039E+02  0.73125962354E+01  0.18726421167E+02  0.00000000000E+00 0.  1.
         11    1    3    3    0    0 -0.56906479913E+01  0.10826459741E+02 -0.76670899303E+01  0.14435372297E+02  0.51100000000E-03 0. -1.
        -11    1    3    3    0    0 -0.81236367352E+01  0.10135980794E+02 -0.13386192019E+02  0.18652659797E+02  0.51100000000E-03 0.  1.
         12    1    3    3    0    0  0.61158663726E+01 -0.36387716574E+02  0.13740685714E+02  0.39373546739E+02  0.00000000000E+00 0. -1.
</event>
<event>
 7    1  0.2656097E-013  0.7246140E+02  0.7816164E-02  0.1226708E+00
        -11   -1    0    0    0    0  0.00000000000E+00  0.00000000000E+00  0.45593999997E+02  0.45594000000E+02  0.51100000000E-03 0. -1.
         11   -1    0    0    0    0 -0.00000000000E+00 -0.00000000000E+00 -0.45593999997E+02  0.45594000000E+02  0.51100000000E-03 0.  1.
    9900012    2    1    2    0    0  0.82394789852E+01 -0.41895499685E+01  0.16286321925E+02  0.72461397940E+02  0.69999775476E+02 0.  0.
        -12    1    1    2    0    0 -0.82394789852E+01  0.41895499685E+01 -0.16286321925E+02  0.18726602060E+02  0.00000000000E+00 0.  1.
         11    1    3    3    0    0  0.26101282156E+02 -0.11075285631E+02 -0.12424529316E+02  0.30956547143E+02  0.51100000000E-03 0. -1.
        -11    1    3    3    0    0  0.49411554468E+00  0.89571373394E+01  0.22753943346E+01  0.92548300432E+01  0.51100000000E-03 0.  1.
        -12    1    3    3    0    0 -0.18355918716E+02 -0.20714016770E+01  0.26435456906E+02  0.32250020754E+02  0.00000000000E+00 0.  1.
</event>
<event>
 7    1  0.2656097E-013  0.7246119E+02  0.7816164E-02  0.1226709E+00
        -11   -1    0    0    0    0  0.00000000000E+00  0.00000000000E+00  0.45593999997E+02  0.45594000000E+02  0.51100000000E-03 0.  1.
         11   -1    0    0    0    0 -0.00000000000E+00 -0.00000000000E+00 -0.45593999997E+02  0.45594000000E+02  0.51100000000E-03 0. -1.
    9900012    2    1    2    0    0 -0.17104927856E+01  0.13413372222E+02 -0.12955658870E+02  0.72461189361E+02  0.69999503762E+02 0.  0.
        -12    1    1    2    0    0  0.17104927856E+01 -0.13413372222E+02  0.12955658870E+02  0.18726810639E+02  0.00000000000E+00 0.  1.
         11    1    3    3    0    0 -0.25328073714E+02  0.10459480651E+02 -0.12713511730E+02  0.30208366959E+02  0.51100000000E-03 0. -1.
        -11    1    3    3    0    0  0.15071814296E+02  0.18891219149E+02 -0.30408474051E+00  0.24168785962E+02  0.51100000000E-03 0.  1.
        -12    1    3    3    0    0  0.85457666332E+01 -0.15937327578E+02  0.61937600474E-01  0.18084036440E+02  0.00000000000E+00 0.  1.
</event>
<event>
 7    1  0.2656097E-013  0.7246156E+02  0.7816164E-02  0.1226708E+00
        -11   -1    0    0    0    0  0.00000000000E+00  0.00000000000E+00  0.45593999997E+02  0.45594000000E+02  0.51100000000E-03 0.  1.
         11   -1    0    0    0    0 -0.00000000000E+00 -0.00000000000E+00 -0.45593999997E+02  0.45594000000E+02  0.51100000000E-03 0. -1.
    9900012    2    1    2    0    0  0.14602818666E+01 -0.91688020444E+01 -0.16262842273E+02  0.72461564332E+02  0.69999992232E+02 0.  0.
        -12    1    1    2    0    0 -0.14602818666E+01  0.91688020444E+01  0.16262842273E+02  0.18726435668E+02  0.00000000000E+00 0.  1.
         11    1    3    3    0    0 -0.17268444768E+02 -0.13850439300E+02 -0.28667107125E+01  0.22321556489E+02  0.51100000000E-03 0. -1.
        -11    1    3    3    0    0 -0.10417342027E+02 -0.71111145955E+01  0.51639418136E+01  0.13629206177E+02  0.51100000000E-03 0.  1.
        -12    1    3    3    0    0  0.29146068661E+02  0.11792751851E+02 -0.18560073374E+02  0.36510801666E+02  0.00000000000E+00 0.  1.
</event>
<event>
 7    1  0.2656097E-013  0.7246164E+02  0.7816164E-02  0.1226708E+00
        -11   -1    0    0    0    0  0.00000000000E+00  0.00000000000E+00  0.45593999997E+02  0.45594000000E+02  0.51100000000E-03 0. -1.
         11   -1    0    0    0    0 -0.00000000000E+00 -0.00000000000E+00 -0.45593999997E+02  0.45594000000E+02  0.51100000000E-03 0.  1.
    9900012    2    1    2    0    0  0.79050355396E+01 -0.61365613301E+01  0.15828120658E+02  0.72461644898E+02  0.70000097185E+02 0.  0.
        -12    1    1    2    0    0 -0.79050355396E+01  0.61365613301E+01 -0.15828120658E+02  0.18726355102E+02  0.00000000000E+00 0.  1.
         11    1    3    3    0    0 -0.25984911380E+01 -0.23906336663E+01 -0.69063376594E+01  0.77565962669E+01  0.51100000000E-03 0. -1.
        -11    1    3    3    0    0 -0.16393857031E+02  0.13449270795E+02 -0.56960926940E+01  0.21956477530E+02  0.51100000000E-03 0.  1.
         12    1    3    3    0    0  0.26897383709E+02 -0.17195198458E+02  0.28430551012E+02  0.42748571101E+02  0.00000000000E+00 0. -1.
</event>
<event>
 7    1  0.2656097E-013  0.7246164E+02  0.7816164E-02  0.1226708E+00
        -11   -1    0    0    0    0  0.00000000000E+00  0.00000000000E+00  0.45593999997E+02  0.45594000000E+02  0.51100000000E-03 0. -1.
         11   -1    0    0    0    0 -0.00000000000E+00 -0.00000000000E+00 -0.45593999997E+02  0.45594000000E+02  0.51100000000E-03 0.  1.
    9900012    2    1    2    0    0 -0.13458377845E+01  0.15050365339E+02  0.11061271702E+02  0.72461641362E+02  0.70000092579E+02 0.  0.
        -12    1    1    2    0    0  0.13458377845E+01 -0.15050365339E+02 -0.11061271702E+02  0.18726358638E+02  0.00000000000E+00 0.  1.
         11    1    3    3    0    0 -0.18818348204E+01  0.18203156641E+02  0.84797478941E+01  0.20169341551E+02  0.51100000000E-03 0. -1.
        -11    1    3    3    0    0  0.95625469952E+00 -0.10839204861E+02  0.25709224952E+02  0.27917145860E+02  0.51100000000E-03 0.  1.
         12    1    3    3    0    0 -0.42025766369E+00  0.76864135586E+01 -0.23127701144E+02  0.24375153951E+02  0.00000000000E+00 0. -1.
</event>
<event>
 7    1  0.2656097E-013  0.7246152E+02  0.7816164E-02  0.1226708E+00
        -11   -1    0    0    0    0  0.00000000000E+00  0.00000000000E+00  0.45593999997E+02  0.45594000000E+02  0.51100000000E-03 0. -1.
         11   -1    0    0    0    0 -0.00000000000E+00 -0.00000000000E+00 -0.45593999997E+02  0.45594000000E+02  0.51100000000E-03 0.  1.
    9900012    2    1    2    0    0  0.62896472591E+01 -0.16121874870E+02  0.71558615859E+01  0.72461524971E+02  0.69999940958E+02 0.  0.
        -12    1    1    2    0    0 -0.62896472591E+01  0.16121874870E+02 -0.71558615859E+01  0.18726475029E+02  0.00000000000E+00 0.  1.
         11    1    3    3    0    0  0.19890075158E+02  0.19286880189E+02 -0.32061763109E+01  0.27890471563E+02  0.51100000000E-03 0. -1.
        -11    1    3    3    0    0  0.21891959249E+01  0.14767294879E+01 -0.10730685030E+01  0.28504008580E+01  0.51100000000E-03 0.  1.
        -12    1    3    3    0    0 -0.15789623824E+02 -0.36885484547E+02  0.11435106400E+02  0.41720652550E+02  0.00000000000E+00 0.  1.
</event>
<event>
 7    1  0.2656097E-013  0.7246152E+02  0.7816164E-02  0.1226708E+00
        -11   -1    0    0    0    0  0.00000000000E+00  0.00000000000E+00  0.45593999997E+02  0.45594000000E+02  0.51100000000E-03 0.  1.
         11   -1    0    0    0    0 -0.00000000000E+00 -0.00000000000E+00 -0.45593999997E+02  0.45594000000E+02  0.51100000000E-03 0. -1.
    9900012    2    1    2    0    0  0.86032295722E+00 -0.19687576784E+01 -0.18602824141E+02  0.72461515322E+02  0.69999928388E+02 0.  0.
        -12    1    1    2    0    0 -0.86032295722E+00  0.19687576784E+01  0.18602824141E+02  0.18726484678E+02  0.00000000000E+00 0.  1.
         11    1    3    3    0    0  0.14742145584E+01  0.47211742542E+01 -0.16994449180E+01  0.52298095752E+01  0.51100000000E-03 0. -1.
        -11    1    3    3    0    0  0.54957364552E+01  0.20178249736E+02  0.14504127710E+02  0.25450630689E+02  0.51100000000E-03 0.  1.
         12    1    3    3    0    0 -0.61096280564E+01 -0.26868181669E+02 -0.31407506933E+02  0.41781075057E+02  0.00000000000E+00 0. -1.
</event>
<event>
 7    1  0.2656097E-013  0.7246161E+02  0.7816164E-02  0.1226708E+00
        -11   -1    0    0    0    0  0.00000000000E+00  0.00000000000E+00  0.45593999997E+02  0.45594000000E+02  0.51100000000E-03 0.  1.
         11   -1    0    0    0    0 -0.00000000000E+00 -0.00000000000E+00 -0.45593999997E+02  0.45594000000E+02  0.51100000000E-03 0. -1.
    9900012    2    1    2    0    0 -0.55490098259E+01  0.29357587126E+00 -0.17882956412E+02  0.72461606144E+02  0.70000046701E+02 0.  0.
        -12    1    1    2    0    0  0.55490098259E+01 -0.29357587126E+00  0.17882956412E+02  0.18726393856E+02  0.00000000000E+00 0.  1.
         11    1    3    3    0    0 -0.47097667631E+01 -0.24925926493E+02 -0.29350717897E+02  0.38793663862E+02  0.51100000000E-03 0. -1.
        -11    1    3    3    0    0 -0.77506879842E+01  0.33414633137E+01  0.50816920772E+01  0.98520117709E+01  0.51100000000E-03 0.  1.
        -12    1    3    3    0    0  0.69114449215E+01  0.21878039051E+02  0.63860694082E+01  0.23815930511E+02  0.00000000000E+00 0.  1.
</event>
<event>
 7    1  0.2656097E-013  0.7246155E+02  0.7816164E-02  0.1226708E+00
        -11   -1    0    0    0    0  0.00000000000E+00  0.00000000000E+00  0.45593999997E+02  0.45594000000E+02  0.51100000000E-03 0.  1.
         11   -1    0    0    0    0 -0.00000000000E+00 -0.00000000000E+00 -0.45593999997E+02  0.45594000000E+02  0.51100000000E-03 0. -1.
    9900012    2    1    2    0    0  0.71549240950E+01  0.17287169708E+02  0.80036720210E+00  0.72461554449E+02  0.69999979358E+02 0.  0.
        -12    1    1    2    0    0 -0.71549240950E+01 -0.17287169708E+02 -0.80036720210E+00  0.18726445551E+02  0.00000000000E+00 0.  1.
         11    1    3    3    0    0  0.21707145400E+02  0.75229213092E+01 -0.19575436970E+01  0.23057026782E+02  0.51100000000E-03 0. -1.
        -11    1    3    3    0    0  0.15447739377E+02 -0.32964382378E+01  0.51069565613E+01  0.16600607293E+02  0.51100000000E-03 0.  1.
         12    1    3    3    0    0 -0.29999960682E+02  0.13060686637E+02 -0.23490456621E+01  0.32803920374E+02  0.00000000000E+00 0. -1.
</event>
<event>
 7    1  0.2656097E-013  0.7246153E+02  0.7816164E-02  0.1226708E+00
        -11   -1    0    0    0    0  0.00000000000E+00  0.00000000000E+00  0.45593999997E+02  0.45594000000E+02  0.51100000000E-03 0.  1.
         11   -1    0    0    0    0 -0.00000000000E+00 -0.00000000000E+00 -0.45593999997E+02  0.45594000000E+02  0.51100000000E-03 0. -1.
    9900012    2    1    2    0    0  0.34596715674E+01  0.18390570220E+02 -0.70578982277E+00  0.72461533712E+02  0.69999952345E+02 0.  0.
        -12    1    1    2    0    0 -0.34596715674E+01 -0.18390570220E+02  0.70578982277E+00  0.18726466288E+02  0.00000000000E+00 0.  1.
         11    1    3    3    0    0  0.51417750893E+01 -0.16098251724E+02 -0.49661532674E+01  0.17614035261E+02  0.51100000000E-03 0.  1.
        -11    1    3    3    0    0 -0.62987064250E+01  0.22637014538E+02 -0.17735422819E+02  0.29438976760E+02  0.51100000000E-03 0. -1.
        -12    1    3    3    0    0  0.46166029032E+01  0.11851807406E+02  0.21995786264E+02  0.25408521691E+02  0.00000000000E+00 0.  1.
</event>
<event>
 7    1  0.2656097E-013  0.7246156E+02  0.7816164E-02  0.1226708E+00
        -11   -1    0    0    0    0  0.00000000000E+00  0.00000000000E+00  0.45593999997E+02  0.45594000000E+02  0.51100000000E-03 0.  1.
         11   -1    0    0    0    0 -0.00000000000E+00 -0.00000000000E+00 -0.45593999997E+02  0.45594000000E+02  0.51100000000E-03 0. -1.
    9900012    2    1    2    0    0  0.15240414677E+02 -0.33876235879E+01 -0.10340856935E+02  0.72461559995E+02  0.69999986584E+02 0.  0.
        -12    1    1    2    0    0 -0.15240414677E+02  0.33876235879E+01  0.10340856935E+02  0.18726440005E+02  0.00000000000E+00 0.  1.
         11    1    3    3    0    0  0.25757191600E+02  0.83633542471E+01 -0.53040859978E+01  0.27595505828E+02  0.51100000000E-03 0. -1.
        -11    1    3    3    0    0  0.73074067613E+01  0.90387553860E+00 -0.18002709986E+02  0.19450263537E+02  0.51100000000E-03 0.  1.
        -12    1    3    3    0    0 -0.17824183684E+02 -0.12654853374E+02  0.12965939049E+02  0.25415790630E+02  0.00000000000E+00 0.  1.
</event>
<event>
 7    1  0.2656097E-013  0.7246153E+02  0.7816164E-02  0.1226708E+00
        -11   -1    0    0    0    0  0.00000000000E+00  0.00000000000E+00  0.45593999997E+02  0.45594000000E+02  0.51100000000E-03 0.  1.
         11   -1    0    0    0    0 -0.00000000000E+00 -0.00000000000E+00 -0.45593999997E+02  0.45594000000E+02  0.51100000000E-03 0. -1.
    9900012    2    1    2    0    0  0.11021488501E+02  0.34251994966E+01 -0.14747043573E+02  0.72461534917E+02  0.69999953914E+02 0.  0.
        -12    1    1    2    0    0 -0.11021488501E+02 -0.34251994966E+01  0.14747043573E+02  0.18726465083E+02  0.00000000000E+00 0.  1.
         11    1    3    3    0    0 -0.10882180559E+01  0.93066964852E+00  0.57326620038E+01  0.59087882381E+01  0.51100000000E-03 0.  1.
        -11    1    3    3    0    0  0.12600789028E+02 -0.24774814555E+02 -0.26740348350E+02  0.38569645455E+02  0.51100000000E-03 0. -1.
         12    1    3    3    0    0 -0.49108247086E+00  0.27269344403E+02  0.62606427736E+01  0.27983101224E+02  0.00000000000E+00 0. -1.
</event>
<event>
 7    1  0.2656097E-013  0.7246159E+02  0.7816164E-02  0.1226708E+00
        -11   -1    0    0    0    0  0.00000000000E+00  0.00000000000E+00  0.45593999997E+02  0.45594000000E+02  0.51100000000E-03 0.  1.
         11   -1    0    0    0    0 -0.00000000000E+00 -0.00000000000E+00 -0.45593999997E+02  0.45594000000E+02  0.51100000000E-03 0. -1.
    9900012    2    1    2    0    0 -0.16828382986E+02 -0.72069985592E+01  0.39424742590E+01  0.72461590696E+02  0.70000026577E+02 0.  0.
        -12    1    1    2    0    0  0.16828382986E+02  0.72069985592E+01 -0.39424742590E+01  0.18726409304E+02  0.00000000000E+00 0.  1.
         11    1    3    3    0    0 -0.17324497312E+02 -0.28817779957E+02 -0.11365841024E+02  0.35493449976E+02  0.51100000000E-03 0. -1.
        -11    1    3    3    0    0 -0.11636395399E+02  0.40899015313E+01  0.53393344623E+01  0.13440293344E+02  0.51100000000E-03 0.  1.
         12    1    3    3    0    0  0.12132509725E+02  0.17520879867E+02  0.99689808205E+01  0.23527847375E+02  0.00000000000E+00 0. -1.
</event>
<event>
 7    1  0.2656097E-013  0.7246162E+02  0.7816164E-02  0.1226708E+00
        -11   -1    0    0    0    0  0.00000000000E+00  0.00000000000E+00  0.45593999997E+02  0.45594000000E+02  0.51100000000E-03 0. -1.
         11   -1    0    0    0    0 -0.00000000000E+00 -0.00000000000E+00 -0.45593999997E+02  0.45594000000E+02  0.51100000000E-03 0.  1.
    9900012    2    1    2    0    0 -0.50005147555E+00 -0.91569942953E+01  0.16327179280E+02  0.72461618096E+02  0.70000062270E+02 0.  0.
        -12    1    1    2    0    0  0.50005147555E+00  0.91569942953E+01 -0.16327179280E+02  0.18726381904E+02  0.00000000000E+00 0.  1.
         11    1    3    3    0    0  0.30466407278E+01  0.37351429086E+01  0.24452945282E+01  0.54048846300E+01  0.51100000000E-03 0. -1.
        -11    1    3    3    0    0  0.70613120336E+01  0.21493463870E+02 -0.90715469375E+01  0.24374660631E+02  0.51100000000E-03 0.  1.
         12    1    3    3    0    0 -0.10608004237E+02 -0.34385601074E+02  0.22953431689E+02  0.42682072834E+02  0.00000000000E+00 0. -1.
</event>
<event>
 7    1  0.2656097E-013  0.7246155E+02  0.7816164E-02  0.1226708E+00
        -11   -1    0    0    0    0  0.00000000000E+00  0.00000000000E+00  0.45593999997E+02  0.45594000000E+02  0.51100000000E-03 0. -1.
         11   -1    0    0    0    0 -0.00000000000E+00 -0.00000000000E+00 -0.45593999997E+02  0.45594000000E+02  0.51100000000E-03 0.  1.
    9900012    2    1    2    0    0  0.90619869324E+01 -0.11352955663E+02  0.11818233143E+02  0.72461552283E+02  0.69999976537E+02 0.  0.
        -12    1    1    2    0    0 -0.90619869324E+01  0.11352955663E+02 -0.11818233143E+02  0.18726447717E+02  0.00000000000E+00 0.  1.
         11    1    3    3    0    0  0.10766853587E+02 -0.55260837829E+01  0.30883687618E+01  0.12490026422E+02  0.51100000000E-03 0. -1.
        -11    1    3    3    0    0 -0.18485271045E+02 -0.26702080784E+02  0.33032469010E+01  0.32643801925E+02  0.51100000000E-03 0.  1.
         12    1    3    3    0    0  0.16780404390E+02  0.20875208904E+02  0.54266174803E+01  0.27327723936E+02  0.00000000000E+00 0. -1.
</event>
<event>
 7    1  0.2656097E-013  0.7246157E+02  0.7816164E-02  0.1226708E+00
        -11   -1    0    0    0    0  0.00000000000E+00  0.00000000000E+00  0.45593999997E+02  0.45594000000E+02  0.51100000000E-03 0.  1.
         11   -1    0    0    0    0 -0.00000000000E+00 -0.00000000000E+00 -0.45593999997E+02  0.45594000000E+02  0.51100000000E-03 0. -1.
    9900012    2    1    2    0    0 -0.10748737495E+02  0.49932139553E+01 -0.14498678294E+02  0.72461569064E+02  0.69999998397E+02 0.  0.
        -12    1    1    2    0    0  0.10748737495E+02 -0.49932139553E+01  0.14498678294E+02  0.18726430936E+02  0.00000000000E+00 0.  1.
         11    1    3    3    0    0 -0.15540548415E+02  0.43815098517E+01  0.61324886168E+00  0.16158042829E+02  0.51100000000E-03 0. -1.
        -11    1    3    3    0    0 -0.23144095293E+02  0.81537336077E+01 -0.22616193524E+01  0.24642391138E+02  0.51100000000E-03 0.  1.
        -12    1    3    3    0    0  0.27935906213E+02 -0.75420295040E+01 -0.12850307803E+02  0.31661135097E+02  0.00000000000E+00 0.  1.
</event>
<event>
 7    1  0.2656097E-013  0.7246158E+02  0.7816164E-02  0.1226708E+00
        -11   -1    0    0    0    0  0.00000000000E+00  0.00000000000E+00  0.45593999997E+02  0.45594000000E+02  0.51100000000E-03 0.  1.
         11   -1    0    0    0    0 -0.00000000000E+00 -0.00000000000E+00 -0.45593999997E+02  0.45594000000E+02  0.51100000000E-03 0. -1.
    9900012    2    1    2    0    0 -0.18361238895E+02  0.31860141712E+01 -0.18420017413E+01  0.72461581483E+02  0.70000014575E+02 0.  0.
        -12    1    1    2    0    0  0.18361238895E+02 -0.31860141712E+01  0.18420017413E+01  0.18726418517E+02  0.00000000000E+00 0.  1.
         11    1    3    3    0    0  0.10369940111E+02 -0.98499506910E+01  0.56126205561E+01  0.15364201778E+02  0.51100000000E-03 0. -1.
        -11    1    3    3    0    0 -0.91429831244E+01 -0.14587157622E+02 -0.14500408390E+02  0.22508690580E+02  0.51100000000E-03 0.  1.
        -12    1    3    3    0    0 -0.19588195882E+02  0.27623122484E+02  0.70457860926E+01  0.34588689124E+02  0.00000000000E+00 0.  1.
</event>
<event>
 7    1  0.2656097E-013  0.7246159E+02  0.7816164E-02  0.1226708E+00
        -11   -1    0    0    0    0  0.00000000000E+00  0.00000000000E+00  0.45593999997E+02  0.45594000000E+02  0.51100000000E-03 0.  1.
         11   -1    0    0    0    0 -0.00000000000E+00 -0.00000000000E+00 -0.45593999997E+02  0.45594000000E+02  0.51100000000E-03 0. -1.
    9900012    2    1    2    0    0 -0.17287411480E+02 -0.45749424399E+01 -0.55582160465E+01  0.72461589249E+02  0.70000024692E+02 0.  0.
        -12    1    1    2    0    0  0.17287411480E+02  0.45749424399E+01  0.55582160465E+01  0.18726410751E+02  0.00000000000E+00 0.  1.
         11    1    3    3    0    0  0.96438320202E+00  0.78674016885E+01 -0.19867353393E+02  0.21390132664E+02  0.51100000000E-03 0. -1.
        -11    1    3    3    0    0  0.17862182227E+01  0.14649672686E+02  0.80059371268E+01  0.16789833677E+02  0.51100000000E-03 0.  1.
         12    1    3    3    0    0 -0.20038012905E+02 -0.27092016814E+02  0.63032002193E+01  0.34281622908E+02  0.00000000000E+00 0. -1.
</event>
<event>
 7    1  0.2656097E-013  0.7246158E+02  0.7816164E-02  0.1226708E+00
        -11   -1    0    0    0    0  0.00000000000E+00  0.00000000000E+00  0.45593999997E+02  0.45594000000E+02  0.51100000000E-03 0. -1.
         11   -1    0    0    0    0 -0.00000000000E+00 -0.00000000000E+00 -0.45593999997E+02  0.45594000000E+02  0.51100000000E-03 0.  1.
    9900012    2    1    2    0    0  0.91346129796E+01  0.15665501121E+02  0.46722115987E+01  0.72461584409E+02  0.70000018387E+02 0.  0.
        -12    1    1    2    0    0 -0.91346129796E+01 -0.15665501121E+02 -0.46722115987E+01  0.18726415591E+02  0.00000000000E+00 0.  1.
         11    1    3    3    0    0  0.72999563321E+01 -0.45002248723E+01  0.10951896765E+02  0.13909904003E+02  0.51100000000E-03 0. -1.
        -11    1    3    3    0    0  0.76371161853E+01 -0.12453379510E+02  0.13562057240E+02  0.19933429251E+02  0.51100000000E-03 0.  1.
         12    1    3    3    0    0 -0.58024595378E+01  0.32619105504E+02 -0.19841742407E+02  0.38618251155E+02  0.00000000000E+00 0. -1.
</event>
<event>
 7    1  0.2656097E-013  0.7246155E+02  0.7816164E-02  0.1226708E+00
        -11   -1    0    0    0    0  0.00000000000E+00  0.00000000000E+00  0.45593999997E+02  0.45594000000E+02  0.51100000000E-03 0. -1.
         11   -1    0    0    0    0 -0.00000000000E+00 -0.00000000000E+00 -0.45593999997E+02  0.45594000000E+02  0.51100000000E-03 0.  1.
    9900012    2    1    2    0    0 -0.14028157547E+02 -0.12347314485E+02  0.11976888260E+01  0.72461552454E+02  0.69999976760E+02 0.  0.
        -12    1    1    2    0    0  0.14028157547E+02  0.12347314485E+02 -0.11976888260E+01  0.18726447546E+02  0.00000000000E+00 0.  1.
         11    1    3    3    0    0 -0.25772700202E+02  0.25445401447E+01 -0.20324186377E+01  0.25977634342E+02  0.51100000000E-03 0.  1.
        -11    1    3    3    0    0 -0.13736808478E+01  0.12511977750E+02  0.91104246390E+01  0.15538224598E+02  0.51100000000E-03 0. -1.
         12    1    3    3    0    0  0.13118223502E+02 -0.27403832380E+02 -0.58803171753E+01  0.30945693514E+02  0.00000000000E+00 0. -1.
</event>
<event>
 7    1  0.2656097E-013  0.7246159E+02  0.7816164E-02  0.1226708E+00
        -11   -1    0    0    0    0  0.00000000000E+00  0.00000000000E+00  0.45593999997E+02  0.45594000000E+02  0.51100000000E-03 0. -1.
         11   -1    0    0    0    0 -0.00000000000E+00 -0.00000000000E+00 -0.45593999997E+02  0.45594000000E+02  0.51100000000E-03 0.  1.
    9900012    2    1    2    0    0 -0.83769736544E+01 -0.12462440462E+02  0.11188937430E+02  0.72461590021E+02  0.70000025698E+02 0.  0.
        -12    1    1    2    0    0  0.83769736544E+01  0.12462440462E+02 -0.11188937430E+02  0.18726409979E+02  0.00000000000E+00 0.  1.
         11    1    3    3    0    0  0.24578536256E+02 -0.15105682887E+02 -0.35159688311E+00  0.28851511583E+02  0.51100000000E-03 0. -1.
        -11    1    3    3    0    0  0.42162835940E+01  0.23138649888E+01  0.21555594819E+01  0.52704321903E+01  0.51100000000E-03 0.  1.
        -12    1    3    3    0    0 -0.37171793504E+02  0.32937743644E+00  0.93849748315E+01  0.38339646248E+02  0.00000000000E+00 0.  1.
</event>
<event>
 7    1  0.2656097E-013  0.7246155E+02  0.7816164E-02  0.1226708E+00
        -11   -1    0    0    0    0  0.00000000000E+00  0.00000000000E+00  0.45593999997E+02  0.45594000000E+02  0.51100000000E-03 0. -1.
         11   -1    0    0    0    0 -0.00000000000E+00 -0.00000000000E+00 -0.45593999997E+02  0.45594000000E+02  0.51100000000E-03 0.  1.
    9900012    2    1    2    0    0  0.24146618991E+00  0.17368120583E+02  0.69978522289E+01  0.72461552010E+02  0.69999976182E+02 0.  0.
        -12    1    1    2    0    0 -0.24146618991E+00 -0.17368120583E+02 -0.69978522289E+01  0.18726447990E+02  0.00000000000E+00 0.  1.
         11    1    3    3    0    0 -0.10740325661E+02  0.27400585007E+02  0.30901273970E+02  0.42673591216E+02  0.51100000000E-03 0. -1.
        -11    1    3    3    0    0 -0.34631997881E-01  0.12911691392E+01 -0.20713267564E+00  0.13081365860E+01  0.51100000000E-03 0.  1.
        -12    1    3    3    0    0  0.11016423849E+02 -0.11323633564E+02 -0.23696289065E+02  0.28479824209E+02  0.00000000000E+00 0.  1.
</event>
<event>
 7    1  0.2656097E-013  0.7246146E+02  0.7816164E-02  0.1226708E+00
        -11   -1    0    0    0    0  0.00000000000E+00  0.00000000000E+00  0.45593999997E+02  0.45594000000E+02  0.51100000000E-03 0.  1.
         11   -1    0    0    0    0 -0.00000000000E+00 -0.00000000000E+00 -0.45593999997E+02  0.45594000000E+02  0.51100000000E-03 0. -1.
    9900012    2    1    2    0    0  0.14168552084E+01 -0.30902220993E+01 -0.18415379314E+02  0.72461464106E+02  0.69999861670E+02 0.  0.
        -12    1    1    2    0    0 -0.14168552084E+01  0.30902220993E+01  0.18415379314E+02  0.18726535894E+02  0.00000000000E+00 0.  1.
         11    1    3    3    0    0  0.91851056501E+01 -0.95837472057E+01 -0.20612590993E+02  0.24517203837E+02  0.51100000000E-03 0. -1.
        -11    1    3    3    0    0  0.10919421872E+02  0.12143454864E+02 -0.14814582005E+02  0.22049242851E+02  0.51100000000E-03 0.  1.
        -12    1    3    3    0    0 -0.18687672313E+02 -0.56499297581E+01  0.17011793684E+02  0.25895017418E+02  0.00000000000E+00 0.  1.
</event>
<event>
 7    1  0.2656097E-013  0.7246161E+02  0.7816164E-02  0.1226708E+00
        -11   -1    0    0    0    0  0.00000000000E+00  0.00000000000E+00  0.45593999997E+02  0.45594000000E+02  0.51100000000E-03 0. -1.
         11   -1    0    0    0    0 -0.00000000000E+00 -0.00000000000E+00 -0.45593999997E+02  0.45594000000E+02  0.51100000000E-03 0.  1.
    9900012    2    1    2    0    0 -0.11714319539E+02  0.14428440303E+02 -0.22962180207E+01  0.72461607154E+02  0.70000048017E+02 0.  0.
        -12    1    1    2    0    0  0.11714319539E+02 -0.14428440303E+02  0.22962180207E+01  0.18726392846E+02  0.00000000000E+00 0.  1.
         11    1    3    3    0    0  0.12177230879E+02  0.86906301695E+01  0.15992904509E+02  0.21899429206E+02  0.51100000000E-03 0. -1.
        -11    1    3    3    0    0  0.40310846212E+01  0.13201314553E+02 -0.16629491827E+02  0.21611671565E+02  0.51100000000E-03 0.  1.
        -12    1    3    3    0    0 -0.27922635039E+02 -0.74635044201E+01 -0.16596307029E+01  0.28950506383E+02  0.00000000000E+00 0.  1.
</event>
<event>
 7    1  0.2656097E-013  0.7246158E+02  0.7816164E-02  0.1226708E+00
        -11   -1    0    0    0    0  0.00000000000E+00  0.00000000000E+00  0.45593999997E+02  0.45594000000E+02  0.51100000000E-03 0.  1.
         11   -1    0    0    0    0 -0.00000000000E+00 -0.00000000000E+00 -0.45593999997E+02  0.45594000000E+02  0.51100000000E-03 0. -1.
    9900012    2    1    2    0    0  0.12659152575E+02 -0.10457876761E+02  0.90031862301E+01  0.72461583029E+02  0.70000016589E+02 0.  0.
        -12    1    1    2    0    0 -0.12659152575E+02  0.10457876761E+02 -0.90031862301E+01  0.18726416971E+02  0.00000000000E+00 0.  1.
         11    1    3    3    0    0  0.75056519739E+01  0.70353206898E+00 -0.61931219993E+01  0.97562559051E+01  0.51100000000E-03 0. -1.
        -11    1    3    3    0    0  0.46510726923E+01 -0.19476751293E+02  0.35500527464E+02  0.40758603614E+02  0.51100000000E-03 0.  1.
         12    1    3    3    0    0  0.50242790901E+00  0.83153424629E+01 -0.20304219234E+02  0.21946723509E+02  0.00000000000E+00 0. -1.
</event>
<event>
 7    1  0.2656097E-013  0.7246156E+02  0.7816164E-02  0.1226708E+00
        -11   -1    0    0    0    0  0.00000000000E+00  0.00000000000E+00  0.45593999997E+02  0.45594000000E+02  0.51100000000E-03 0. -1.
         11   -1    0    0    0    0 -0.00000000000E+00 -0.00000000000E+00 -0.45593999997E+02  0.45594000000E+02  0.51100000000E-03 0.  1.
    9900012    2    1    2    0    0 -0.69897444151E+01 -0.16872226479E+02  0.41413559677E+01  0.72461564605E+02  0.69999992589E+02 0.  0.
        -12    1    1    2    0    0  0.69897444151E+01  0.16872226479E+02 -0.41413559677E+01  0.18726435395E+02  0.00000000000E+00 0.  1.
         11    1    3    3    0    0 -0.18411561139E+01 -0.13564882981E+01  0.29004204438E+00  0.23052203772E+01  0.51100000000E-03 0. -1.
        -11    1    3    3    0    0  0.14798668733E+02 -0.22744375327E+02 -0.23253207624E+02  0.35735400800E+02  0.51100000000E-03 0.  1.
         12    1    3    3    0    0 -0.19947257034E+02  0.72286371467E+01  0.27104521547E+02  0.34420943428E+02  0.00000000000E+00 0. -1.
</event>
<event>
 7    1  0.2656097E-013  0.7246165E+02  0.7816164E-02  0.1226708E+00
        -11   -1    0    0    0    0  0.00000000000E+00  0.00000000000E+00  0.45593999997E+02  0.45594000000E+02  0.51100000000E-03 0. -1.
         11   -1    0    0    0    0 -0.00000000000E+00 -0.00000000000E+00 -0.45593999997E+02  0.45594000000E+02  0.51100000000E-03 0.  1.
    9900012    2    1    2    0    0  0.13872969083E+02  0.87786497950E+01  0.90084592171E+01  0.72461646888E+02  0.70000099778E+02 0.  0.
        -12    1    1    2    0    0 -0.13872969083E+02 -0.87786497950E+01 -0.90084592171E+01  0.18726353112E+02  0.00000000000E+00 0.  1.
         11    1    3    3    0    0  0.74345812237E+00  0.77218501356E+00  0.27746454788E+00  0.11072427518E+01  0.51100000000E-03 0. -1.
        -11    1    3    3    0    0  0.14758557641E+02  0.68630234444E+01 -0.29168675063E+02  0.33402510679E+02  0.51100000000E-03 0.  1.
         12    1    3    3    0    0 -0.16290466801E+01  0.11434413371E+01  0.37899669733E+02  0.37951893458E+02  0.00000000000E+00 0. -1.
</event>
<event>
 7    1  0.2656097E-013  0.7246153E+02  0.7816164E-02  0.1226708E+00
        -11   -1    0    0    0    0  0.00000000000E+00  0.00000000000E+00  0.45593999997E+02  0.45594000000E+02  0.51100000000E-03 0.  1.
         11   -1    0    0    0    0 -0.00000000000E+00 -0.00000000000E+00 -0.45593999997E+02  0.45594000000E+02  0.51100000000E-03 0. -1.
    9900012    2    1    2    0    0  0.50412850884E+00 -0.14582744223E+02 -0.11737555249E+02  0.72461527352E+02  0.69999944060E+02 0.  0.
        -12    1    1    2    0    0 -0.50412850884E+00  0.14582744223E+02  0.11737555249E+02  0.18726472648E+02  0.00000000000E+00 0.  1.
         11    1    3    3    0    0 -0.12484286581E+02 -0.13514038461E+02 -0.15799862184E+02  0.24251232799E+02  0.51100000000E-03 0. -1.
        -11    1    3    3    0    0  0.19921590759E+02 -0.19001824662E+02 -0.30743521401E+01  0.27701818717E+02  0.51100000000E-03 0.  1.
         12    1    3    3    0    0 -0.69331756692E+01  0.17933118901E+02  0.71366590760E+01  0.20508475836E+02  0.00000000000E+00 0. -1.
</event>
<event>
 7    1  0.2656097E-013  0.7246154E+02  0.7816164E-02  0.1226708E+00
        -11   -1    0    0    0    0  0.00000000000E+00  0.00000000000E+00  0.45593999997E+02  0.45594000000E+02  0.51100000000E-03 0. -1.
         11   -1    0    0    0    0 -0.00000000000E+00 -0.00000000000E+00 -0.45593999997E+02  0.45594000000E+02  0.51100000000E-03 0.  1.
    9900012    2    1    2    0    0  0.63986965946E+01 -0.15146496753E+02  0.89621761568E+01  0.72461540552E+02  0.69999961255E+02 0.  0.
        -12    1    1    2    0    0 -0.63986965946E+01  0.15146496753E+02 -0.89621761568E+01  0.18726459448E+02  0.00000000000E+00 0.  1.
         11    1    3    3    0    0  0.12265780482E+02 -0.18168574418E+02  0.10345853838E+02  0.24240114668E+02  0.51100000000E-03 0. -1.
        -11    1    3    3    0    0 -0.43442677676E+01 -0.14564664079E+02 -0.18288715218E+02  0.23779806702E+02  0.51100000000E-03 0.  1.
        -12    1    3    3    0    0 -0.15228161202E+01  0.17586741744E+02  0.16905037537E+02  0.24441619182E+02  0.00000000000E+00 0.  1.
</event>
<event>
 7    1  0.2656097E-013  0.7246177E+02  0.7816164E-02  0.1226707E+00
        -11   -1    0    0    0    0  0.00000000000E+00  0.00000000000E+00  0.45593999997E+02  0.45594000000E+02  0.51100000000E-03 0.  1.
         11   -1    0    0    0    0 -0.00000000000E+00 -0.00000000000E+00 -0.45593999997E+02  0.45594000000E+02  0.51100000000E-03 0. -1.
    9900012    2    1    2    0    0 -0.10417384794E+02  0.15447805692E+02  0.18748946479E+01  0.72461766087E+02  0.70000255056E+02 0.  0.
        -12    1    1    2    0    0  0.10417384794E+02 -0.15447805692E+02 -0.18748946479E+01  0.18726233913E+02  0.00000000000E+00 0.  1.
         11    1    3    3    0    0 -0.14534490024E+02 -0.37767742683E+01 -0.22487213567E+01  0.15184603127E+02  0.51100000000E-03 0. -1.
        -11    1    3    3    0    0 -0.89653360177E+01  0.55658508442E+01  0.26177269071E+02  0.28224198160E+02  0.51100000000E-03 0.  1.
         12    1    3    3    0    0  0.13082441248E+02  0.13658729116E+02 -0.22053653066E+02  0.29052964799E+02  0.00000000000E+00 0. -1.
</event>
<event>
 7    1  0.2656097E-013  0.7246179E+02  0.7816164E-02  0.1226707E+00
        -11   -1    0    0    0    0  0.00000000000E+00  0.00000000000E+00  0.45593999997E+02  0.45594000000E+02  0.51100000000E-03 0. -1.
         11   -1    0    0    0    0 -0.00000000000E+00 -0.00000000000E+00 -0.45593999997E+02  0.45594000000E+02  0.51100000000E-03 0.  1.
    9900012    2    1    2    0    0 -0.22713682342E+01  0.15988637783E+02  0.94802556304E+01  0.72461791130E+02  0.70000287679E+02 0.  0.
        -12    1    1    2    0    0  0.22713682342E+01 -0.15988637783E+02 -0.94802556304E+01  0.18726208870E+02  0.00000000000E+00 0.  1.
         11    1    3    3    0    0 -0.85972719868E+00 -0.22227737463E+02  0.11163599725E+02  0.24888499405E+02  0.51100000000E-03 0. -1.
        -11    1    3    3    0    0 -0.90569359774E+01  0.18579835067E+02  0.10550909568E+02  0.23206896678E+02  0.51100000000E-03 0.  1.
        -12    1    3    3    0    0  0.76452949419E+01  0.19636540178E+02 -0.12234253663E+02  0.24366395047E+02  0.00000000000E+00 0.  1.
</event>
<event>
 7    1  0.2656097E-013  0.7246156E+02  0.7816164E-02  0.1226708E+00
        -11   -1    0    0    0    0  0.00000000000E+00  0.00000000000E+00  0.45593999997E+02  0.45594000000E+02  0.51100000000E-03 0. -1.
         11   -1    0    0    0    0 -0.00000000000E+00 -0.00000000000E+00 -0.45593999997E+02  0.45594000000E+02  0.51100000000E-03 0.  1.
    9900012    2    1    2    0    0  0.77215226755E+01 -0.17059910058E+02  0.13069527247E+00  0.72461560807E+02  0.69999987640E+02 0.  0.
        -12    1    1    2    0    0 -0.77215226755E+01  0.17059910058E+02 -0.13069527247E+00  0.18726439193E+02  0.00000000000E+00 0.  1.
         11    1    3    3    0    0 -0.31324866251E+01  0.64875915146E+01  0.84268206865E+01  0.11086596559E+02  0.51100000000E-03 0. -1.
        -11    1    3    3    0    0 -0.22369783676E+02 -0.56637027151E+01 -0.27760508431E+01  0.23242013869E+02  0.51100000000E-03 0.  1.
        -12    1    3    3    0    0  0.33223792976E+02 -0.17883798857E+02 -0.55200745709E+01  0.38132950379E+02  0.00000000000E+00 0.  1.
</event>
<event>
 7    1  0.2656097E-013  0.7246171E+02  0.7816164E-02  0.1226708E+00
        -11   -1    0    0    0    0  0.00000000000E+00  0.00000000000E+00  0.45593999997E+02  0.45594000000E+02  0.51100000000E-03 0.  1.
         11   -1    0    0    0    0 -0.00000000000E+00 -0.00000000000E+00 -0.45593999997E+02  0.45594000000E+02  0.51100000000E-03 0. -1.
    9900012    2    1    2    0    0  0.18224393397E+02 -0.42794283149E+01  0.48167432574E+00  0.72461707480E+02  0.70000178710E+02 0.  0.
        -12    1    1    2    0    0 -0.18224393397E+02  0.42794283149E+01 -0.48167432574E+00  0.18726292520E+02  0.00000000000E+00 0.  1.
         11    1    3    3    0    0 -0.10378835825E+01  0.20605256133E+02  0.12741906282E+01  0.20670688055E+02  0.51100000000E-03 0. -1.
        -11    1    3    3    0    0  0.21352515047E+02 -0.75028178687E+00 -0.12639699349E+02  0.24824480286E+02  0.51100000000E-03 0.  1.
        -12    1    3    3    0    0 -0.20902380677E+01 -0.24134402661E+02  0.11847183046E+02  0.26966539139E+02  0.00000000000E+00 0.  1.
</event>
<event>
 7    1  0.2656097E-013  0.7246181E+02  0.7816164E-02  0.1226707E+00
        -11   -1    0    0    0    0  0.00000000000E+00  0.00000000000E+00  0.45593999997E+02  0.45594000000E+02  0.51100000000E-03 0.  1.
         11   -1    0    0    0    0 -0.00000000000E+00 -0.00000000000E+00 -0.45593999997E+02  0.45594000000E+02  0.51100000000E-03 0. -1.
    9900012    2    1    2    0    0  0.10001167227E+02 -0.78446346698E+01 -0.13751674576E+02  0.72461809980E+02  0.70000312235E+02 0.  0.
        -12    1    1    2    0    0 -0.10001167227E+02  0.78446346698E+01  0.13751674576E+02  0.18726190020E+02  0.00000000000E+00 0.  1.
         11    1    3    3    0    0  0.12583892226E+02  0.26974972887E+01  0.91386586087E+01  0.15784356706E+02  0.51100000000E-03 0. -1.
        -11    1    3    3    0    0  0.98586409346E+01 -0.29949205070E+01  0.13791161477E+02  0.17215065642E+02  0.51100000000E-03 0.  1.
         12    1    3    3    0    0 -0.12441365934E+02 -0.75472114516E+01 -0.36681494662E+02  0.39462387632E+02  0.00000000000E+00 0. -1.
</event>
<event>
 7    1  0.2656097E-013  0.7246158E+02  0.7816164E-02  0.1226708E+00
        -11   -1    0    0    0    0  0.00000000000E+00  0.00000000000E+00  0.45593999997E+02  0.45594000000E+02  0.51100000000E-03 0.  1.
         11   -1    0    0    0    0 -0.00000000000E+00 -0.00000000000E+00 -0.45593999997E+02  0.45594000000E+02  0.51100000000E-03 0. -1.
    9900012    2    1    2    0    0  0.22423415469E+01  0.65689504249E+01 -0.17392515657E+02  0.72461579996E+02  0.70000012638E+02 0.  0.
        -12    1    1    2    0    0 -0.22423415469E+01 -0.65689504249E+01  0.17392515657E+02  0.18726420004E+02  0.00000000000E+00 0.  1.
         11    1    3    3    0    0  0.30557894842E+02 -0.26591853303E+01 -0.12308389385E+02  0.33050758740E+02  0.51100000000E-03 0. -1.
        -11    1    3    3    0    0  0.27809975568E+01  0.34237424907E+01  0.45555430192E+01  0.63410513729E+01  0.51100000000E-03 0.  1.
        -12    1    3    3    0    0 -0.31096550852E+02  0.58043932645E+01 -0.96396692907E+01  0.33069769883E+02  0.00000000000E+00 0.  1.
</event>
<event>
 7    1  0.2656097E-013  0.7246157E+02  0.7816164E-02  0.1226708E+00
        -11   -1    0    0    0    0  0.00000000000E+00  0.00000000000E+00  0.45593999997E+02  0.45594000000E+02  0.51100000000E-03 0. -1.
         11   -1    0    0    0    0 -0.00000000000E+00 -0.00000000000E+00 -0.45593999997E+02  0.45594000000E+02  0.51100000000E-03 0.  1.
    9900012    2    1    2    0    0  0.67647590345E+01 -0.33926809096E+01  0.17129122932E+02  0.72461572125E+02  0.70000002385E+02 0.  0.
        -12    1    1    2    0    0 -0.67647590345E+01  0.33926809096E+01 -0.17129122932E+02  0.18726427875E+02  0.00000000000E+00 0.  1.
         11    1    3    3    0    0 -0.40897492848E+01 -0.26952522090E+01  0.14462402013E+02  0.15269299458E+02  0.51100000000E-03 0. -1.
        -11    1    3    3    0    0 -0.27289052924E+01 -0.27174679834E+02 -0.37663626422E-01  0.27311381638E+02  0.51100000000E-03 0.  1.
         12    1    3    3    0    0  0.13583413612E+02  0.26477251133E+02  0.27043845450E+01  0.29880891029E+02  0.00000000000E+00 0. -1.
</event>
<event>
 7    1  0.2656097E-013  0.7246168E+02  0.7816164E-02  0.1226708E+00
        -11   -1    0    0    0    0  0.00000000000E+00  0.00000000000E+00  0.45593999997E+02  0.45594000000E+02  0.51100000000E-03 0.  1.
         11   -1    0    0    0    0 -0.00000000000E+00 -0.00000000000E+00 -0.45593999997E+02  0.45594000000E+02  0.51100000000E-03 0. -1.
    9900012    2    1    2    0    0  0.73312186206E+01  0.10815717626E+02 -0.13414484119E+02  0.72461684334E+02  0.70000148558E+02 0.  0.
        -12    1    1    2    0    0 -0.73312186206E+01 -0.10815717626E+02  0.13414484119E+02  0.18726315666E+02  0.00000000000E+00 0.  1.
         11    1    3    3    0    0  0.18167039924E+01 -0.96338168672E+00  0.13511761453E+01  0.24605273636E+01  0.51100000000E-03 0. -1.
        -11    1    3    3    0    0  0.12247505432E+02 -0.19806764681E+02  0.13642386719E+02  0.26989331820E+02  0.51100000000E-03 0.  1.
         12    1    3    3    0    0 -0.67329908039E+01  0.31585863994E+02 -0.28408046983E+02  0.43011825151E+02  0.00000000000E+00 0. -1.
</event>
<event>
 7    1  0.2656097E-013  0.7246156E+02  0.7816164E-02  0.1226708E+00
        -11   -1    0    0    0    0  0.00000000000E+00  0.00000000000E+00  0.45593999997E+02  0.45594000000E+02  0.51100000000E-03 0.  1.
         11   -1    0    0    0    0 -0.00000000000E+00 -0.00000000000E+00 -0.45593999997E+02  0.45594000000E+02  0.51100000000E-03 0. -1.
    9900012    2    1    2    0    0  0.14526240219E+02  0.25248076774E+01  0.11545271723E+02  0.72461558591E+02  0.69999984754E+02 0.  0.
        -12    1    1    2    0    0 -0.14526240219E+02 -0.25248076774E+01 -0.11545271723E+02  0.18726441409E+02  0.00000000000E+00 0.  1.
         11    1    3    3    0    0  0.21377168676E+02 -0.45163980885E+01  0.11001195029E+02  0.24462368746E+02  0.51100000000E-03 0. -1.
        -11    1    3    3    0    0  0.83796555197E+01  0.30729554627E+01  0.20631968274E+02  0.22479764168E+02  0.51100000000E-03 0.  1.
         12    1    3    3    0    0 -0.15230583977E+02  0.39682503032E+01 -0.20087891580E+02  0.25519425677E+02  0.00000000000E+00 0. -1.
</event>
<event>
 7    1  0.2656097E-013  0.7246158E+02  0.7816164E-02  0.1226708E+00
        -11   -1    0    0    0    0  0.00000000000E+00  0.00000000000E+00  0.45593999997E+02  0.45594000000E+02  0.51100000000E-03 0. -1.
         11   -1    0    0    0    0 -0.00000000000E+00 -0.00000000000E+00 -0.45593999997E+02  0.45594000000E+02  0.51100000000E-03 0.  1.
    9900012    2    1    2    0    0  0.16549565723E+02 -0.72772571219E+01  0.48818085578E+01  0.72461584122E+02  0.70000018013E+02 0.  0.
        -12    1    1    2    0    0 -0.16549565723E+02  0.72772571219E+01 -0.48818085578E+01  0.18726415878E+02  0.00000000000E+00 0.  1.
         11    1    3    3    0    0 -0.10854205390E+01 -0.81831225192E+01  0.48018122400E+01  0.95498184779E+01  0.51100000000E-03 0. -1.
        -11    1    3    3    0    0 -0.15890924080E+02 -0.15987698855E+02 -0.90257967155E+01  0.24281535977E+02  0.51100000000E-03 0.  1.
         12    1    3    3    0    0  0.33525910342E+02  0.16893564252E+02  0.91057930332E+01  0.38630229667E+02  0.00000000000E+00 0. -1.
</event>
<event>
 8    1  0.2656097E-013  0.7246158E+02  0.7816164E-02  0.1226708E+00
        -11   -1    0    0    0    0  0.00000000000E+00  0.00000000000E+00  0.45593999997E+02  0.45594000000E+02  0.51100000000E-03 0. -1.
         11   -1    0    0    0    0 -0.00000000000E+00 -0.00000000000E+00 -0.45593999997E+02  0.45594000000E+02  0.51100000000E-03 0.  1.
    9900012    2    1    2    0    0  0.11054580787E+02 -0.13723416773E+02 -0.63358382752E+01  0.72461580936E+02  0.70000013863E+02 0.  0.
         23    2    3    3    0    0  0.22182916938E+02 -0.14905134369E+02 -0.27806085142E+01  0.60719520614E+02  0.54450744397E+02 0.  0.
        -12    1    1    2    0    0 -0.11054580787E+02  0.13723416773E+02  0.63358382752E+01  0.18726419064E+02  0.00000000000E+00 0.  1.
         11    1    4    4    0    0  0.30122990876E+02  0.12049486202E+02 -0.33331553867E+01  0.32614331545E+02  0.51100000000E-03 0. -1.
        -11    1    4    4    0    0 -0.79400739380E+01 -0.26954620571E+02  0.55254687242E+00  0.28105189068E+02  0.51100000000E-03 0.  1.
        -12    1    3    3    0    0 -0.11128336151E+02  0.11817175961E+01 -0.35552297610E+01  0.11742060322E+02  0.00000000000E+00 0.  1.
</event>
<event>
 7    1  0.2656097E-013  0.7246163E+02  0.7816164E-02  0.1226708E+00
        -11   -1    0    0    0    0  0.00000000000E+00  0.00000000000E+00  0.45593999997E+02  0.45594000000E+02  0.51100000000E-03 0.  1.
         11   -1    0    0    0    0 -0.00000000000E+00 -0.00000000000E+00 -0.45593999997E+02  0.45594000000E+02  0.51100000000E-03 0. -1.
    9900012    2    1    2    0    0  0.10794042161E+02 -0.28969783509E+01 -0.15025752676E+02  0.72461626267E+02  0.70000072914E+02 0.  0.
        -12    1    1    2    0    0 -0.10794042161E+02  0.28969783509E+01  0.15025752676E+02  0.18726373733E+02  0.00000000000E+00 0.  1.
         11    1    3    3    0    0 -0.25485265864E+01 -0.17729708586E+02  0.90118002819E+01  0.20051186970E+02  0.51100000000E-03 0. -1.
        -11    1    3    3    0    0  0.11825270560E+02  0.45435144781E+01  0.10429119121E+02  0.16408749908E+02  0.51100000000E-03 0.  1.
        -12    1    3    3    0    0  0.15172981869E+01  0.10289215757E+02 -0.34466672078E+02  0.36001689389E+02  0.00000000000E+00 0.  1.
</event>
<event>
 7    1  0.2656097E-013  0.7246159E+02  0.7816164E-02  0.1226708E+00
        -11   -1    0    0    0    0  0.00000000000E+00  0.00000000000E+00  0.45593999997E+02  0.45594000000E+02  0.51100000000E-03 0. -1.
         11   -1    0    0    0    0 -0.00000000000E+00 -0.00000000000E+00 -0.45593999997E+02  0.45594000000E+02  0.51100000000E-03 0.  1.
    9900012    2    1    2    0    0  0.73290512205E+01  0.10400415834E+02  0.13740264558E+02  0.72461587865E+02  0.70000022889E+02 0.  0.
        -12    1    1    2    0    0 -0.73290512205E+01 -0.10400415834E+02 -0.13740264558E+02  0.18726412135E+02  0.00000000000E+00 0.  1.
         11    1    3    3    0    0  0.15998595339E+02 -0.63431484852E+01  0.47335281755E+01  0.17849282192E+02  0.51100000000E-03 0. -1.
        -11    1    3    3    0    0  0.94838425394E+01  0.25260931555E+02 -0.81877965172E+01  0.28197481171E+02  0.51100000000E-03 0.  1.
         12    1    3    3    0    0 -0.18153386658E+02 -0.85173672355E+01  0.17194532900E+02  0.26414824501E+02  0.00000000000E+00 0. -1.
</event>
<event>
 7    1  0.2656097E-013  0.7246158E+02  0.7816164E-02  0.1226708E+00
        -11   -1    0    0    0    0  0.00000000000E+00  0.00000000000E+00  0.45593999997E+02  0.45594000000E+02  0.51100000000E-03 0. -1.
         11   -1    0    0    0    0 -0.00000000000E+00 -0.00000000000E+00 -0.45593999997E+02  0.45594000000E+02  0.51100000000E-03 0.  1.
    9900012    2    1    2    0    0  0.16276729491E+02  0.20898886815E+01 -0.90210483365E+01  0.72461578272E+02  0.70000010393E+02 0.  0.
        -12    1    1    2    0    0 -0.16276729491E+02 -0.20898886815E+01  0.90210483365E+01  0.18726421728E+02  0.00000000000E+00 0.  1.
         11    1    3    3    0    0 -0.90969293139E+01  0.12734171121E+02  0.45868551069E+01  0.16308049458E+02  0.51100000000E-03 0. -1.
        -11    1    3    3    0    0 -0.46773978203E+01 -0.21519641315E+02 -0.93031109278E+01  0.23906503004E+02  0.51100000000E-03 0.  1.
         12    1    3    3    0    0  0.30051056626E+02  0.10875358875E+02 -0.43047925156E+01  0.32247025810E+02  0.00000000000E+00 0. -1.
</event>
<event>
 7    1  0.2656097E-013  0.7246210E+02  0.7816164E-02  0.1226707E+00
        -11   -1    0    0    0    0  0.00000000000E+00  0.00000000000E+00  0.45593999997E+02  0.45594000000E+02  0.51100000000E-03 0.  1.
         11   -1    0    0    0    0 -0.00000000000E+00 -0.00000000000E+00 -0.45593999997E+02  0.45594000000E+02  0.51100000000E-03 0. -1.
    9900012    2    1    2    0    0 -0.79459828213E+01 -0.10454816536E+02 -0.13349813280E+02  0.72462099584E+02  0.70000689494E+02 0.  0.
        -12    1    1    2    0    0  0.79459828213E+01  0.10454816536E+02  0.13349813280E+02  0.18725900416E+02  0.00000000000E+00 0.  1.
         11    1    3    3    0    0 -0.70366181184E+01 -0.13469328930E+02  0.15807979771E+02  0.21927814325E+02  0.51100000000E-03 0. -1.
        -11    1    3    3    0    0 -0.14774793873E+02  0.48383762717E+01  0.26655048732E+01  0.15773691243E+02  0.51100000000E-03 0.  1.
        -12    1    3    3    0    0  0.13865429171E+02 -0.18238638779E+01 -0.31823297924E+02  0.34760594015E+02  0.00000000000E+00 0.  1.
</event>
<event>
 7    1  0.2656097E-013  0.7246156E+02  0.7816164E-02  0.1226708E+00
        -11   -1    0    0    0    0  0.00000000000E+00  0.00000000000E+00  0.45593999997E+02  0.45594000000E+02  0.51100000000E-03 0.  1.
         11   -1    0    0    0    0 -0.00000000000E+00 -0.00000000000E+00 -0.45593999997E+02  0.45594000000E+02  0.51100000000E-03 0. -1.
    9900012    2    1    2    0    0 -0.82809570316E+01 -0.10378292107E+02 -0.13205925371E+02  0.72461557163E+02  0.69999982894E+02 0.  0.
        -12    1    1    2    0    0  0.82809570316E+01  0.10378292107E+02  0.13205925371E+02  0.18726442837E+02  0.00000000000E+00 0.  1.
         11    1    3    3    0    0 -0.40187259204E+01 -0.35414463465E+01 -0.10810851747E+02  0.12065094944E+02  0.51100000000E-03 0. -1.
        -11    1    3    3    0    0 -0.28232473982E+02  0.23725182463E+01  0.12214561618E+02  0.30852827192E+02  0.51100000000E-03 0.  1.
         12    1    3    3    0    0  0.23970242871E+02 -0.92093640068E+01 -0.14609635243E+02  0.29543635027E+02  0.00000000000E+00 0. -1.
</event>
<event>
 7    1  0.2656097E-013  0.7246150E+02  0.7816164E-02  0.1226708E+00
        -11   -1    0    0    0    0  0.00000000000E+00  0.00000000000E+00  0.45593999997E+02  0.45594000000E+02  0.51100000000E-03 0. -1.
         11   -1    0    0    0    0 -0.00000000000E+00 -0.00000000000E+00 -0.45593999997E+02  0.45594000000E+02  0.51100000000E-03 0.  1.
    9900012    2    1    2    0    0 -0.49978880225E+01 -0.89944220493E+01  0.15646194744E+02  0.72461496785E+02  0.69999904241E+02 0.  0.
        -12    1    1    2    0    0  0.49978880225E+01  0.89944220493E+01 -0.15646194744E+02  0.18726503215E+02  0.00000000000E+00 0.  1.
         11    1    3    3    0    0 -0.19094582277E+02  0.15355546123E+02 -0.17337694086E+00  0.24503590123E+02  0.51100000000E-03 0.  1.
        -11    1    3    3    0    0  0.73450775270E+01  0.46251084439E+01 -0.64341305752E+01  0.10804620702E+02  0.51100000000E-03 0. -1.
         12    1    3    3    0    0  0.67516167274E+01 -0.28975076617E+02  0.22253702260E+02  0.37153285960E+02  0.00000000000E+00 0. -1.
</event>
<event>
 7    1  0.2656097E-013  0.7246157E+02  0.7816164E-02  0.1226708E+00
        -11   -1    0    0    0    0  0.00000000000E+00  0.00000000000E+00  0.45593999997E+02  0.45594000000E+02  0.51100000000E-03 0. -1.
         11   -1    0    0    0    0 -0.00000000000E+00 -0.00000000000E+00 -0.45593999997E+02  0.45594000000E+02  0.51100000000E-03 0.  1.
    9900012    2    1    2    0    0 -0.96046834187E+01  0.10967336106E+02  0.11753579909E+02  0.72461573605E+02  0.70000004313E+02 0.  0.
        -12    1    1    2    0    0  0.96046834187E+01 -0.10967336106E+02 -0.11753579909E+02  0.18726426395E+02  0.00000000000E+00 0.  1.
         11    1    3    3    0    0 -0.10551881995E+02  0.38505796766E+01  0.10441334801E+02  0.15335926779E+02  0.51100000000E-03 0. -1.
        -11    1    3    3    0    0 -0.83878964643E+01  0.29586153166E+02 -0.67670250236E+01  0.31487932517E+02  0.51100000000E-03 0.  1.
        -12    1    3    3    0    0  0.93350950407E+01 -0.22469396737E+02  0.80792701311E+01  0.25637714309E+02  0.00000000000E+00 0.  1.
</event>
<event>
 7    1  0.2656097E-013  0.7246154E+02  0.7816164E-02  0.1226708E+00
        -11   -1    0    0    0    0  0.00000000000E+00  0.00000000000E+00  0.45593999997E+02  0.45594000000E+02  0.51100000000E-03 0.  1.
         11   -1    0    0    0    0 -0.00000000000E+00 -0.00000000000E+00 -0.45593999997E+02  0.45594000000E+02  0.51100000000E-03 0. -1.
    9900012    2    1    2    0    0  0.79770634528E+01 -0.66092730262E+01 -0.15600135703E+02  0.72461541039E+02  0.69999961889E+02 0.  0.
        -12    1    1    2    0    0 -0.79770634528E+01  0.66092730262E+01  0.15600135703E+02  0.18726458961E+02  0.00000000000E+00 0.  1.
         11    1    3    3    0    0 -0.98903362420E+01  0.15178800838E+02 -0.62182224410E+01  0.19154138886E+02  0.51100000000E-03 0.  1.
        -11    1    3    3    0    0 -0.14079563557E+02 -0.13212339874E+02 -0.19620834726E+01  0.19407467808E+02  0.51100000000E-03 0. -1.
         12    1    3    3    0    0  0.31946963252E+02 -0.85757339904E+01 -0.74198297895E+01  0.33899934345E+02  0.00000000000E+00 0. -1.
</event>
<event>
 7    1  0.2656097E-013  0.7246145E+02  0.7816164E-02  0.1226708E+00
        -11   -1    0    0    0    0  0.00000000000E+00  0.00000000000E+00  0.45593999997E+02  0.45594000000E+02  0.51100000000E-03 0. -1.
         11   -1    0    0    0    0 -0.00000000000E+00 -0.00000000000E+00 -0.45593999997E+02  0.45594000000E+02  0.51100000000E-03 0.  1.
    9900012    2    1    2    0    0 -0.11177874255E+02 -0.44916216704E+01  0.14337506591E+02  0.72461451110E+02  0.69999844740E+02 0.  0.
        -12    1    1    2    0    0  0.11177874255E+02  0.44916216704E+01 -0.14337506591E+02  0.18726548890E+02  0.00000000000E+00 0.  1.
         11    1    3    3    0    0 -0.16476769651E+01  0.89063380369E+01  0.10020708829E+02  0.13507490600E+02  0.51100000000E-03 0. -1.
        -11    1    3    3    0    0  0.56631924050E+01 -0.14536458011E+01 -0.23982592099E+02  0.24685006753E+02  0.51100000000E-03 0.  1.
         12    1    3    3    0    0 -0.15193389695E+02 -0.11944313906E+02  0.28299389862E+02  0.34268953758E+02  0.00000000000E+00 0. -1.
</event>
<event>
 7    1  0.2656097E-013  0.7246154E+02  0.7816164E-02  0.1226708E+00
        -11   -1    0    0    0    0  0.00000000000E+00  0.00000000000E+00  0.45593999997E+02  0.45594000000E+02  0.51100000000E-03 0.  1.
         11   -1    0    0    0    0 -0.00000000000E+00 -0.00000000000E+00 -0.45593999997E+02  0.45594000000E+02  0.51100000000E-03 0. -1.
    9900012    2    1    2    0    0  0.96262095094E+01  0.76285170388E+01 -0.14135843504E+02  0.72461541357E+02  0.69999962304E+02 0.  0.
        -12    1    1    2    0    0 -0.96262095094E+01 -0.76285170388E+01  0.14135843504E+02  0.18726458643E+02  0.00000000000E+00 0.  1.
         11    1    3    3    0    0  0.15498478727E+02  0.71013128369E+01  0.62899559121E+01  0.18171269424E+02  0.51100000000E-03 0. -1.
        -11    1    3    3    0    0  0.16633670037E+02 -0.12321086868E+02 -0.19376638914E+02  0.28353876214E+02  0.51100000000E-03 0.  1.
         12    1    3    3    0    0 -0.22505939254E+02  0.12848291070E+02 -0.10491605022E+01  0.25936395719E+02  0.00000000000E+00 0. -1.
</event>
<event>
 7    1  0.2656097E-013  0.7246153E+02  0.7816164E-02  0.1226708E+00
        -11   -1    0    0    0    0  0.00000000000E+00  0.00000000000E+00  0.45593999997E+02  0.45594000000E+02  0.51100000000E-03 0. -1.
         11   -1    0    0    0    0 -0.00000000000E+00 -0.00000000000E+00 -0.45593999997E+02  0.45594000000E+02  0.51100000000E-03 0.  1.
    9900012    2    1    2    0    0 -0.16803156432E+02  0.52139078103E+01  0.64148108485E+01  0.72461529458E+02  0.69999946803E+02 0.  0.
        -12    1    1    2    0    0  0.16803156432E+02 -0.52139078103E+01 -0.64148108485E+01  0.18726470542E+02  0.00000000000E+00 0.  1.
         11    1    3    3    0    0 -0.23268072387E+02  0.26678249087E+02  0.72732424253E+01  0.36139067815E+02  0.51100000000E-03 0. -1.
        -11    1    3    3    0    0  0.10211763039E+02  0.34208316608E+01  0.21359563394E+01  0.10979276086E+02  0.51100000000E-03 0.  1.
         12    1    3    3    0    0 -0.37468470849E+01 -0.24885172937E+02 -0.29943879162E+01  0.25343185557E+02  0.00000000000E+00 0. -1.
</event>
<event>
 7    1  0.2656097E-013  0.7246204E+02  0.7816164E-02  0.1226707E+00
        -11   -1    0    0    0    0  0.00000000000E+00  0.00000000000E+00  0.45593999997E+02  0.45594000000E+02  0.51100000000E-03 0.  1.
         11   -1    0    0    0    0 -0.00000000000E+00 -0.00000000000E+00 -0.45593999997E+02  0.45594000000E+02  0.51100000000E-03 0. -1.
    9900012    2    1    2    0    0  0.53391422210E+01 -0.15471306155E+02 -0.90991162184E+01  0.72462037548E+02  0.70000608682E+02 0.  0.
        -12    1    1    2    0    0 -0.53391422210E+01  0.15471306155E+02  0.90991162184E+01  0.18725962452E+02  0.00000000000E+00 0.  1.
         11    1    3    3    0    0 -0.76212112006E+01 -0.94298975888E+01 -0.15072139830E+02  0.19343609488E+02  0.51100000000E-03 0. -1.
        -11    1    3    3    0    0  0.27987653750E+02 -0.18213992839E+02  0.26648457030E+01  0.33498652218E+02  0.51100000000E-03 0.  1.
         12    1    3    3    0    0 -0.15027300328E+02  0.12172584273E+02  0.33081779088E+01  0.19619775842E+02  0.00000000000E+00 0. -1.
</event>
<event>
 7    1  0.2656097E-013  0.7246157E+02  0.7816164E-02  0.1226708E+00
        -11   -1    0    0    0    0  0.00000000000E+00  0.00000000000E+00  0.45593999997E+02  0.45594000000E+02  0.51100000000E-03 0.  1.
         11   -1    0    0    0    0 -0.00000000000E+00 -0.00000000000E+00 -0.45593999997E+02  0.45594000000E+02  0.51100000000E-03 0. -1.
    9900012    2    1    2    0    0  0.64831869627E+01 -0.17228804859E+02  0.34373826517E+01  0.72461574031E+02  0.70000004868E+02 0.  0.
        -12    1    1    2    0    0 -0.64831869627E+01  0.17228804859E+02 -0.34373826517E+01  0.18726425969E+02  0.00000000000E+00 0.  1.
         11    1    3    3    0    0  0.74787558173E+01  0.56057429736E+01 -0.14167237711E+02  0.16972529791E+02  0.51100000000E-03 0. -1.
        -11    1    3    3    0    0  0.30598290770E+01  0.13946106756E+02  0.10710946297E+02  0.17848832412E+02  0.51100000000E-03 0.  1.
        -12    1    3    3    0    0 -0.40553979316E+01 -0.36780654589E+02  0.68936740662E+01  0.37640211829E+02  0.00000000000E+00 0.  1.
</event>
<event>
 7    1  0.2656097E-013  0.7246157E+02  0.7816164E-02  0.1226708E+00
        -11   -1    0    0    0    0  0.00000000000E+00  0.00000000000E+00  0.45593999997E+02  0.45594000000E+02  0.51100000000E-03 0.  1.
         11   -1    0    0    0    0 -0.00000000000E+00 -0.00000000000E+00 -0.45593999997E+02  0.45594000000E+02  0.51100000000E-03 0. -1.
    9900012    2    1    2    0    0  0.13807775174E+02 -0.12590559021E+02  0.12256557331E+01  0.72461573120E+02  0.70000003681E+02 0.  0.
        -12    1    1    2    0    0 -0.13807775174E+02  0.12590559021E+02 -0.12256557331E+01  0.18726426880E+02  0.00000000000E+00 0.  1.
         11    1    3    3    0    0  0.12103215108E+01 -0.13222435841E+01  0.11288104269E+01  0.21183530150E+01  0.51100000000E-03 0. -1.
        -11    1    3    3    0    0  0.39256766228E+02 -0.87334104771E+01  0.10580019383E+02  0.41584888646E+02  0.51100000000E-03 0.  1.
         12    1    3    3    0    0 -0.26659312565E+02 -0.25349049596E+01 -0.10483174077E+02  0.28758331459E+02  0.00000000000E+00 0. -1.
</event>
<event>
 7    1  0.2656097E-013  0.7246155E+02  0.7816164E-02  0.1226708E+00
        -11   -1    0    0    0    0  0.00000000000E+00  0.00000000000E+00  0.45593999997E+02  0.45594000000E+02  0.51100000000E-03 0.  1.
         11   -1    0    0    0    0 -0.00000000000E+00 -0.00000000000E+00 -0.45593999997E+02  0.45594000000E+02  0.51100000000E-03 0. -1.
    9900012    2    1    2    0    0  0.20864596922E+00 -0.14391483285E+02 -0.11980049597E+02  0.72461550453E+02  0.69999974153E+02 0.  0.
        -12    1    1    2    0    0 -0.20864596922E+00  0.14391483285E+02  0.11980049597E+02  0.18726449547E+02  0.00000000000E+00 0.  1.
         11    1    3    3    0    0 -0.21747356355E+00 -0.32366181886E+01 -0.25147864579E+02  0.25356223796E+02  0.51100000000E-03 0. -1.
        -11    1    3    3    0    0 -0.11242369165E+02  0.13554808000E+02  0.77833622924E+01  0.19253685704E+02  0.51100000000E-03 0.  1.
         12    1    3    3    0    0  0.11668488698E+02 -0.24709673096E+02  0.53844526892E+01  0.27851640953E+02  0.00000000000E+00 0. -1.
</event>
<event>
 7    1  0.2656097E-013  0.7246160E+02  0.7816164E-02  0.1226708E+00
        -11   -1    0    0    0    0  0.00000000000E+00  0.00000000000E+00  0.45593999997E+02  0.45594000000E+02  0.51100000000E-03 0. -1.
         11   -1    0    0    0    0 -0.00000000000E+00 -0.00000000000E+00 -0.45593999997E+02  0.45594000000E+02  0.51100000000E-03 0.  1.
    9900012    2    1    2    0    0 -0.92299589593E+01  0.25072614963E+01 -0.16099680922E+02  0.72461595423E+02  0.70000032734E+02 0.  0.
        -12    1    1    2    0    0  0.92299589593E+01 -0.25072614963E+01  0.16099680922E+02  0.18726404577E+02  0.00000000000E+00 0.  1.
         11    1    3    3    0    0 -0.38773484560E+01  0.12119245316E+02 -0.99510207505E+01  0.16153413024E+02  0.51100000000E-03 0. -1.
        -11    1    3    3    0    0 -0.11657383134E+02  0.16982969955E+02 -0.17190850765E+02  0.26829856509E+02  0.51100000000E-03 0.  1.
        -12    1    3    3    0    0  0.63047726310E+01 -0.26594953774E+02  0.11042190593E+02  0.29478325890E+02  0.00000000000E+00 0.  1.
</event>
<event>
 7    1  0.2656097E-013  0.7246158E+02  0.7816164E-02  0.1226708E+00
        -11   -1    0    0    0    0  0.00000000000E+00  0.00000000000E+00  0.45593999997E+02  0.45594000000E+02  0.51100000000E-03 0.  1.
         11   -1    0    0    0    0 -0.00000000000E+00 -0.00000000000E+00 -0.45593999997E+02  0.45594000000E+02  0.51100000000E-03 0. -1.
    9900012    2    1    2    0    0 -0.15169946111E+02 -0.10488434208E+02  0.32472185991E+01  0.72461576269E+02  0.70000007783E+02 0.  0.
        -12    1    1    2    0    0  0.15169946111E+02  0.10488434208E+02 -0.32472185991E+01  0.18726423731E+02  0.00000000000E+00 0.  1.
         11    1    3    3    0    0  0.18962064227E+02 -0.13381777388E+02 -0.19932307318E+02  0.30592952147E+02  0.51100000000E-03 0. -1.
        -11    1    3    3    0    0 -0.50668522109E+01 -0.80716363181E-01  0.94828440075E+00  0.51554582749E+01  0.51100000000E-03 0.  1.
        -12    1    3    3    0    0 -0.29065158127E+02  0.29740595433E+01  0.22231241516E+02  0.36713165846E+02  0.00000000000E+00 0.  1.
</event>
<event>
 7    1  0.2656097E-013  0.7246161E+02  0.7816164E-02  0.1226708E+00
        -11   -1    0    0    0    0  0.00000000000E+00  0.00000000000E+00  0.45593999997E+02  0.45594000000E+02  0.51100000000E-03 0.  1.
         11   -1    0    0    0    0 -0.00000000000E+00 -0.00000000000E+00 -0.45593999997E+02  0.45594000000E+02  0.51100000000E-03 0. -1.
    9900012    2    1    2    0    0 -0.13108198169E+02 -0.12694011933E+02  0.42089201666E+01  0.72461606670E+02  0.70000047386E+02 0.  0.
        -12    1    1    2    0    0  0.13108198169E+02  0.12694011933E+02 -0.42089201666E+01  0.18726393330E+02  0.00000000000E+00 0.  1.
         11    1    3    3    0    0 -0.84199637030E+01 -0.21027637410E+01  0.15767190360E+01  0.88206262413E+01  0.51100000000E-03 0. -1.
        -11    1    3    3    0    0 -0.17673684687E+01  0.26409781300E+02  0.87785564965E+00  0.26483405566E+02  0.51100000000E-03 0.  1.
         12    1    3    3    0    0 -0.29208659972E+01 -0.37001029491E+02  0.17543454810E+01  0.37157574862E+02  0.00000000000E+00 0. -1.
</event>
<event>
 7    1  0.2656097E-013  0.7246157E+02  0.7816164E-02  0.1226708E+00
        -11   -1    0    0    0    0  0.00000000000E+00  0.00000000000E+00  0.45593999997E+02  0.45594000000E+02  0.51100000000E-03 0. -1.
         11   -1    0    0    0    0 -0.00000000000E+00 -0.00000000000E+00 -0.45593999997E+02  0.45594000000E+02  0.51100000000E-03 0.  1.
    9900012    2    1    2    0    0 -0.28530007688E+01  0.56312928621E+00  0.18499255384E+02  0.72461570075E+02  0.69999999714E+02 0.  0.
        -12    1    1    2    0    0  0.28530007688E+01 -0.56312928621E+00 -0.18499255384E+02  0.18726429925E+02  0.00000000000E+00 0.  1.
         11    1    3    3    0    0 -0.19816618871E+02 -0.46414028423E+01  0.22010318215E+02  0.29978243978E+02  0.51100000000E-03 0. -1.
        -11    1    3    3    0    0 -0.91969568479E+01  0.10548106504E+02 -0.68386027290E+01  0.15576041012E+02  0.51100000000E-03 0.  1.
        -12    1    3    3    0    0  0.26160574951E+02 -0.53435743750E+01  0.33275398984E+01  0.26907285085E+02  0.00000000000E+00 0.  1.
</event>
<event>
 7    1  0.2656097E-013  0.7246153E+02  0.7816164E-02  0.1226708E+00
        -11   -1    0    0    0    0  0.00000000000E+00  0.00000000000E+00  0.45593999997E+02  0.45594000000E+02  0.51100000000E-03 0. -1.
         11   -1    0    0    0    0 -0.00000000000E+00 -0.00000000000E+00 -0.45593999997E+02  0.45594000000E+02  0.51100000000E-03 0.  1.
    9900012    2    1    2    0    0  0.33819958405E+01  0.17615148649E+02  0.53804583098E+01  0.72461529713E+02  0.69999947135E+02 0.  0.
        -12    1    1    2    0    0 -0.33819958405E+01 -0.17615148649E+02 -0.53804583098E+01  0.18726470287E+02  0.00000000000E+00 0.  1.
         11    1    3    3    0    0  0.29816126192E+01  0.18449730608E+02 -0.14336475330E+01  0.18744010212E+02  0.51100000000E-03 0. -1.
        -11    1    3    3    0    0  0.26143178903E+02 -0.32448354360E+01  0.88285674771E+01  0.27783778795E+02  0.51100000000E-03 0.  1.
        -12    1    3    3    0    0 -0.25742795682E+02  0.24102534773E+01 -0.20144616343E+01  0.25933740706E+02  0.00000000000E+00 0.  1.
</event>
<event>
 7    1  0.2656097E-013  0.7246158E+02  0.7816164E-02  0.1226708E+00
        -11   -1    0    0    0    0  0.00000000000E+00  0.00000000000E+00  0.45593999997E+02  0.45594000000E+02  0.51100000000E-03 0. -1.
         11   -1    0    0    0    0 -0.00000000000E+00 -0.00000000000E+00 -0.45593999997E+02  0.45594000000E+02  0.51100000000E-03 0.  1.
    9900012    2    1    2    0    0  0.12902389224E+02  0.30061124884E+01 -0.13235195344E+02  0.72461581341E+02  0.70000014390E+02 0.  0.
        -12    1    1    2    0    0 -0.12902389224E+02 -0.30061124884E+01  0.13235195344E+02  0.18726418659E+02  0.00000000000E+00 0.  1.
         11    1    3    3    0    0  0.16207007783E+01  0.29301434798E+02 -0.59774492854E+01  0.29948800518E+02  0.51100000000E-03 0. -1.
        -11    1    3    3    0    0  0.16119719146E+02 -0.10889413938E+01 -0.39656705719E+01  0.16636035647E+02  0.51100000000E-03 0.  1.
        -12    1    3    3    0    0 -0.48380306998E+01 -0.25206380916E+02 -0.32920754867E+01  0.25876745176E+02  0.00000000000E+00 0.  1.
</event>
<event>
 7    1  0.2656097E-013  0.7246153E+02  0.7816164E-02  0.1226708E+00
        -11   -1    0    0    0    0  0.00000000000E+00  0.00000000000E+00  0.45593999997E+02  0.45594000000E+02  0.51100000000E-03 0.  1.
         11   -1    0    0    0    0 -0.00000000000E+00 -0.00000000000E+00 -0.45593999997E+02  0.45594000000E+02  0.51100000000E-03 0. -1.
    9900012    2    1    2    0    0 -0.17016899943E+02  0.55231657339E+01  0.55317707946E+01  0.72461528589E+02  0.69999945671E+02 0.  0.
        -12    1    1    2    0    0  0.17016899943E+02 -0.55231657339E+01 -0.55317707946E+01  0.18726471411E+02  0.00000000000E+00 0.  1.
         11    1    3    3    0    0 -0.95339252655E-01  0.20857365623E+02 -0.20671839840E+01  0.20959771949E+02  0.51100000000E-03 0. -1.
        -11    1    3    3    0    0 -0.10264840669E+02  0.15048888576E+01 -0.17624912777E+02  0.20451630622E+02  0.51100000000E-03 0.  1.
        -12    1    3    3    0    0 -0.66567200205E+01 -0.16839088746E+02  0.25223867556E+02  0.31050126018E+02  0.00000000000E+00 0.  1.
</event>
<event>
 7    1  0.2656097E-013  0.7246159E+02  0.7816164E-02  0.1226708E+00
        -11   -1    0    0    0    0  0.00000000000E+00  0.00000000000E+00  0.45593999997E+02  0.45594000000E+02  0.51100000000E-03 0.  1.
         11   -1    0    0    0    0 -0.00000000000E+00 -0.00000000000E+00 -0.45593999997E+02  0.45594000000E+02  0.51100000000E-03 0. -1.
    9900012    2    1    2    0    0  0.17090470038E+02  0.27112556120E+01 -0.71584561606E+01  0.72461586363E+02  0.70000020932E+02 0.  0.
        -12    1    1    2    0    0 -0.17090470038E+02 -0.27112556120E+01  0.71584561606E+01  0.18726413637E+02  0.00000000000E+00 0.  1.
         11    1    3    3    0    0  0.69331884096E+01 -0.70347655447E+01 -0.19667531036E+02  0.22008380338E+02  0.51100000000E-03 0. -1.
        -11    1    3    3    0    0 -0.36277441486E+01 -0.17258855562E+02 -0.47764969138E-01  0.17636068289E+02  0.51100000000E-03 0.  1.
        -12    1    3    3    0    0  0.13785025777E+02  0.27004876719E+02  0.12556839845E+02  0.32817137736E+02  0.00000000000E+00 0.  1.
</event>
<event>
 7    1  0.2656097E-013  0.7246156E+02  0.7816164E-02  0.1226708E+00
        -11   -1    0    0    0    0  0.00000000000E+00  0.00000000000E+00  0.45593999997E+02  0.45594000000E+02  0.51100000000E-03 0.  1.
         11   -1    0    0    0    0 -0.00000000000E+00 -0.00000000000E+00 -0.45593999997E+02  0.45594000000E+02  0.51100000000E-03 0. -1.
    9900012    2    1    2    0    0  0.51815241061E+01  0.14123498939E+02 -0.11151591618E+02  0.72461563874E+02  0.69999991637E+02 0.  0.
        -12    1    1    2    0    0 -0.51815241061E+01 -0.14123498939E+02  0.11151591618E+02  0.18726436126E+02  0.00000000000E+00 0.  1.
         11    1    3    3    0    0  0.53167876364E+01  0.60016483473E+01  0.93882551717E+00  0.80727571044E+01  0.51100000000E-03 0. -1.
        -11    1    3    3    0    0 -0.21986659879E+02 -0.81690866975E+01  0.13448831404E+02  0.27037349287E+02  0.51100000000E-03 0.  1.
         12    1    3    3    0    0  0.21851396348E+02  0.16290937290E+02 -0.25539248539E+02  0.37351457483E+02  0.00000000000E+00 0. -1.
</event>
<event>
 7    1  0.2656097E-013  0.7246156E+02  0.7816164E-02  0.1226708E+00
        -11   -1    0    0    0    0  0.00000000000E+00  0.00000000000E+00  0.45593999997E+02  0.45594000000E+02  0.51100000000E-03 0.  1.
         11   -1    0    0    0    0 -0.00000000000E+00 -0.00000000000E+00 -0.45593999997E+02  0.45594000000E+02  0.51100000000E-03 0. -1.
    9900012    2    1    2    0    0 -0.16385309921E+02 -0.86265277550E+01  0.27899978827E+01  0.72461562792E+02  0.69999990227E+02 0.  0.
        -12    1    1    2    0    0  0.16385309921E+02  0.86265277550E+01 -0.27899978827E+01  0.18726437208E+02  0.00000000000E+00 0.  1.
         11    1    3    3    0    0 -0.57714640953E+00  0.29739645761E+01  0.11074184851E+01  0.32255137948E+01  0.51100000000E-03 0. -1.
        -11    1    3    3    0    0  0.18329058749E+02  0.14362660039E+02 -0.91193188743E+01  0.25008046205E+02  0.51100000000E-03 0.  1.
         12    1    3    3    0    0 -0.34137222261E+02 -0.25963152370E+02  0.10801898272E+02  0.44228002792E+02  0.00000000000E+00 0. -1.
</event>
<event>
 7    1  0.2656097E-013  0.7246143E+02  0.7816164E-02  0.1226708E+00
        -11   -1    0    0    0    0  0.00000000000E+00  0.00000000000E+00  0.45593999997E+02  0.45594000000E+02  0.51100000000E-03 0. -1.
         11   -1    0    0    0    0 -0.00000000000E+00 -0.00000000000E+00 -0.45593999997E+02  0.45594000000E+02  0.51100000000E-03 0.  1.
    9900012    2    1    2    0    0  0.18917251544E+01  0.17896565495E+02 -0.51786902357E+01  0.72461427620E+02  0.69999814139E+02 0.  0.
        -12    1    1    2    0    0 -0.18917251544E+01 -0.17896565495E+02  0.51786902357E+01  0.18726572380E+02  0.00000000000E+00 0.  1.
         11    1    3    3    0    0  0.12092900433E+01  0.33556209631E+02  0.56601694200E+01  0.34051712223E+02  0.51100000000E-03 0. -1.
        -11    1    3    3    0    0 -0.62182814292E+01 -0.51824198256E+01  0.10740054319E+02  0.13448913198E+02  0.51100000000E-03 0.  1.
        -12    1    3    3    0    0  0.69007165403E+01 -0.10477224311E+02 -0.21578913975E+02  0.24960802198E+02  0.00000000000E+00 0.  1.
</event>
<event>
 7    1  0.2656097E-013  0.7246155E+02  0.7816164E-02  0.1226708E+00
        -11   -1    0    0    0    0  0.00000000000E+00  0.00000000000E+00  0.45593999997E+02  0.45594000000E+02  0.51100000000E-03 0. -1.
         11   -1    0    0    0    0 -0.00000000000E+00 -0.00000000000E+00 -0.45593999997E+02  0.45594000000E+02  0.51100000000E-03 0.  1.
    9900012    2    1    2    0    0  0.11341488521E+02 -0.38438479884E+00  0.14896397399E+02  0.72461554288E+02  0.69999979148E+02 0.  0.
        -12    1    1    2    0    0 -0.11341488521E+02  0.38438479884E+00 -0.14896397399E+02  0.18726445712E+02  0.00000000000E+00 0.  1.
         11    1    3    3    0    0  0.30742626589E+02 -0.65079221266E+01  0.17085984830E+02  0.35768603801E+02  0.51100000000E-03 0. -1.
        -11    1    3    3    0    0 -0.21024041455E+01  0.16057191712E+02 -0.39450246208E+01  0.16667835144E+02  0.51100000000E-03 0.  1.
        -12    1    3    3    0    0 -0.17298733923E+02 -0.99336543843E+01  0.17554371899E+01  0.20025115343E+02  0.00000000000E+00 0.  1.
</event>
<event>
 7    1  0.2656097E-013  0.7246148E+02  0.7816164E-02  0.1226708E+00
        -11   -1    0    0    0    0  0.00000000000E+00  0.00000000000E+00  0.45593999997E+02  0.45594000000E+02  0.51100000000E-03 0. -1.
         11   -1    0    0    0    0 -0.00000000000E+00 -0.00000000000E+00 -0.45593999997E+02  0.45594000000E+02  0.51100000000E-03 0.  1.
    9900012    2    1    2    0    0  0.14103383585E+02 -0.12315846791E+02  0.31129641110E+00  0.72461483608E+02  0.69999887075E+02 0.  0.
        -12    1    1    2    0    0 -0.14103383585E+02  0.12315846791E+02 -0.31129641110E+00  0.18726516392E+02  0.00000000000E+00 0.  1.
         11    1    3    3    0    0  0.16309663734E+02  0.60129942493E+01  0.67280962791E+01  0.18639434293E+02  0.51100000000E-03 0. -1.
        -11    1    3    3    0    0  0.29384865136E+01 -0.10215633991E+02  0.21670509852E+02  0.24137209415E+02  0.51100000000E-03 0.  1.
        -12    1    3    3    0    0 -0.51447666620E+01 -0.81132070491E+01 -0.28087309720E+02  0.29684839901E+02  0.00000000000E+00 0.  1.
</event>
<event>
 7    1  0.2656097E-013  0.7246173E+02  0.7816164E-02  0.1226708E+00
        -11   -1    0    0    0    0  0.00000000000E+00  0.00000000000E+00  0.45593999997E+02  0.45594000000E+02  0.51100000000E-03 0.  1.
         11   -1    0    0    0    0 -0.00000000000E+00 -0.00000000000E+00 -0.45593999997E+02  0.45594000000E+02  0.51100000000E-03 0. -1.
    9900012    2    1    2    0    0 -0.66570691617E+01  0.15102744948E+02 -0.88466679630E+01  0.72461734787E+02  0.70000214282E+02 0.  0.
        -12    1    1    2    0    0  0.66570691617E+01 -0.15102744948E+02  0.88466679630E+01  0.18726265213E+02  0.00000000000E+00 0.  1.
         11    1    3    3    0    0  0.12092818168E+02  0.21811088252E+02 -0.21407340046E+02  0.32866913912E+02  0.51100000000E-03 0. -1.
        -11    1    3    3    0    0  0.69766559151E+00  0.98068628280E+01  0.98836320218E+01  0.13940856430E+02  0.51100000000E-03 0.  1.
        -12    1    3    3    0    0 -0.19447552922E+02 -0.16515206133E+02  0.26770400612E+01  0.25653964445E+02  0.00000000000E+00 0.  1.
</event>
<event>
 7    1  0.2656097E-013  0.7246161E+02  0.7816164E-02  0.1226708E+00
        -11   -1    0    0    0    0  0.00000000000E+00  0.00000000000E+00  0.45593999997E+02  0.45594000000E+02  0.51100000000E-03 0.  1.
         11   -1    0    0    0    0 -0.00000000000E+00 -0.00000000000E+00 -0.45593999997E+02  0.45594000000E+02  0.51100000000E-03 0. -1.
    9900012    2    1    2    0    0 -0.27887094489E+00 -0.18724289764E+02  0.28478864671E-01  0.72461612009E+02  0.70000054341E+02 0.  0.
        -12    1    1    2    0    0  0.27887094489E+00  0.18724289764E+02 -0.28478864671E-01  0.18726387991E+02  0.00000000000E+00 0.  1.
         11    1    3    3    0    0  0.36682109054E+01 -0.14086065406E+02 -0.79519647479E+01  0.16586342378E+02  0.51100000000E-03 0. -1.
        -11    1    3    3    0    0 -0.18058685131E+02 -0.24250730280E+02  0.94237271555E+01  0.31670501441E+02  0.51100000000E-03 0.  1.
        -12    1    3    3    0    0  0.14111603281E+02  0.19612505923E+02 -0.14432835430E+01  0.24204768189E+02  0.00000000000E+00 0.  1.
</event>
<event>
 7    1  0.2656097E-013  0.7246163E+02  0.7816164E-02  0.1226708E+00
        -11   -1    0    0    0    0  0.00000000000E+00  0.00000000000E+00  0.45593999997E+02  0.45594000000E+02  0.51100000000E-03 0.  1.
         11   -1    0    0    0    0 -0.00000000000E+00 -0.00000000000E+00 -0.45593999997E+02  0.45594000000E+02  0.51100000000E-03 0. -1.
    9900012    2    1    2    0    0  0.21529277464E+01 -0.18593515312E+02  0.56845168053E+00  0.72461626971E+02  0.70000073831E+02 0.  0.
        -12    1    1    2    0    0 -0.21529277464E+01  0.18593515312E+02 -0.56845168053E+00  0.18726373029E+02  0.00000000000E+00 0.  1.
         11    1    3    3    0    0 -0.70512623893E+01  0.10975332240E+02 -0.54309215692E+01  0.14130574242E+02  0.51100000000E-03 0. -1.
        -11    1    3    3    0    0 -0.62199846156E+01  0.66881185385E+01  0.15325730956E+02  0.17840884726E+02  0.51100000000E-03 0.  1.
         12    1    3    3    0    0  0.15424174751E+02 -0.36256966090E+02 -0.93263577060E+01  0.40490168003E+02  0.00000000000E+00 0. -1.
</event>
<event>
 7    1  0.2656097E-013  0.7246134E+02  0.7816164E-02  0.1226709E+00
        -11   -1    0    0    0    0  0.00000000000E+00  0.00000000000E+00  0.45593999997E+02  0.45594000000E+02  0.51100000000E-03 0.  1.
         11   -1    0    0    0    0 -0.00000000000E+00 -0.00000000000E+00 -0.45593999997E+02  0.45594000000E+02  0.51100000000E-03 0. -1.
    9900012    2    1    2    0    0  0.95130243856E+01  0.77605713401E+01 -0.14140847503E+02  0.72461343369E+02  0.69999704387E+02 0.  0.
        -12    1    1    2    0    0 -0.95130243856E+01 -0.77605713401E+01  0.14140847503E+02  0.18726656631E+02  0.00000000000E+00 0.  1.
         11    1    3    3    0    0  0.31188663259E+02  0.19861448038E+01 -0.87479828479E+01  0.32453115278E+02  0.51100000000E-03 0. -1.
        -11    1    3    3    0    0  0.83738675248E+01  0.25385666090E+01  0.18171530679E+01  0.89368911420E+01  0.51100000000E-03 0.  1.
        -12    1    3    3    0    0 -0.30049506398E+02  0.32358599273E+01 -0.72100177229E+01  0.31071336949E+02  0.00000000000E+00 0.  1.
</event>
<event>
 7    1  0.2656097E-013  0.7246158E+02  0.7816164E-02  0.1226708E+00
        -11   -1    0    0    0    0  0.00000000000E+00  0.00000000000E+00  0.45593999997E+02  0.45594000000E+02  0.51100000000E-03 0. -1.
         11   -1    0    0    0    0 -0.00000000000E+00 -0.00000000000E+00 -0.45593999997E+02  0.45594000000E+02  0.51100000000E-03 0.  1.
    9900012    2    1    2    0    0  0.25637964853E+01  0.16334609432E+02  0.87912717371E+01  0.72461575449E+02  0.70000006715E+02 0.  0.
        -12    1    1    2    0    0 -0.25637964853E+01 -0.16334609432E+02 -0.87912717371E+01  0.18726424551E+02  0.00000000000E+00 0.  1.
         11    1    3    3    0    0 -0.16701044194E+02 -0.32351262330E+01  0.16218355879E+01  0.17088629841E+02  0.51100000000E-03 0. -1.
        -11    1    3    3    0    0 -0.11323129756E+02  0.20572058330E+02  0.78536491316E+01  0.24760909845E+02  0.51100000000E-03 0.  1.
        -12    1    3    3    0    0  0.30587970436E+02 -0.10023226646E+01 -0.68421298240E+00  0.30612035762E+02  0.00000000000E+00 0.  1.
</event>
<event>
 7    1  0.2656097E-013  0.7246157E+02  0.7816164E-02  0.1226708E+00
        -11   -1    0    0    0    0  0.00000000000E+00  0.00000000000E+00  0.45593999997E+02  0.45594000000E+02  0.51100000000E-03 0.  1.
         11   -1    0    0    0    0 -0.00000000000E+00 -0.00000000000E+00 -0.45593999997E+02  0.45594000000E+02  0.51100000000E-03 0. -1.
    9900012    2    1    2    0    0  0.91149033251E+01 -0.14165075701E+02 -0.81822020475E+01  0.72461567810E+02  0.69999996763E+02 0.  0.
        -12    1    1    2    0    0 -0.91149033251E+01  0.14165075701E+02  0.81822020475E+01  0.18726432190E+02  0.00000000000E+00 0.  1.
         11    1    3    3    0    0 -0.28712020983E+01 -0.16059385877E+02  0.38469596903E+01  0.16761466981E+02  0.51100000000E-03 0. -1.
        -11    1    3    3    0    0 -0.15188291787E+02 -0.15688180456E+02 -0.70953876172E+01  0.22959698149E+02  0.51100000000E-03 0.  1.
         12    1    3    3    0    0  0.27174397210E+02  0.17582490632E+02 -0.49337741206E+01  0.32740402680E+02  0.00000000000E+00 0. -1.
</event>
<event>
 7    1  0.2656097E-013  0.7246157E+02  0.7816164E-02  0.1226708E+00
        -11   -1    0    0    0    0  0.00000000000E+00  0.00000000000E+00  0.45593999997E+02  0.45594000000E+02  0.51100000000E-03 0.  1.
         11   -1    0    0    0    0 -0.00000000000E+00 -0.00000000000E+00 -0.45593999997E+02  0.45594000000E+02  0.51100000000E-03 0. -1.
    9900012    2    1    2    0    0 -0.46460309776E+01 -0.17995423570E+02  0.22930994639E+01  0.72461570056E+02  0.69999999689E+02 0.  0.
        -12    1    1    2    0    0  0.46460309776E+01  0.17995423570E+02 -0.22930994639E+01  0.18726429944E+02  0.00000000000E+00 0.  1.
         11    1    3    3    0    0  0.16829069534E+02  0.15035743328E+02 -0.66443227632E+01  0.23525266928E+02  0.51100000000E-03 0. -1.
        -11    1    3    3    0    0  0.60876466171E+01 -0.57513183700E+01 -0.20650646732E+01  0.86256360168E+01  0.51100000000E-03 0.  1.
        -12    1    3    3    0    0 -0.27562747128E+02 -0.27279848527E+02  0.11002486900E+02  0.40310667111E+02  0.00000000000E+00 0.  1.
</event>
<event>
 7    1  0.2656097E-013  0.7246150E+02  0.7816164E-02  0.1226708E+00
        -11   -1    0    0    0    0  0.00000000000E+00  0.00000000000E+00  0.45593999997E+02  0.45594000000E+02  0.51100000000E-03 0.  1.
         11   -1    0    0    0    0 -0.00000000000E+00 -0.00000000000E+00 -0.45593999997E+02  0.45594000000E+02  0.51100000000E-03 0. -1.
    9900012    2    1    2    0    0 -0.86261235792E+01 -0.46094590692E+01 -0.15969488382E+02  0.72461503261E+02  0.69999912677E+02 0.  0.
        -12    1    1    2    0    0  0.86261235792E+01  0.46094590692E+01  0.15969488382E+02  0.18726496739E+02  0.00000000000E+00 0.  1.
         11    1    3    3    0    0 -0.58628909325E+01 -0.15695925069E+02 -0.37392548787E+02  0.40974849101E+02  0.51100000000E-03 0. -1.
        -11    1    3    3    0    0 -0.11135976924E+02  0.45629756867E+01  0.83516033386E+01  0.14648549681E+02  0.51100000000E-03 0.  1.
        -12    1    3    3    0    0  0.83727442777E+01  0.65234903137E+01  0.13071457066E+02  0.16838104479E+02  0.00000000000E+00 0.  1.
</event>
<event>
 7    1  0.2656097E-013  0.7246154E+02  0.7816164E-02  0.1226708E+00
        -11   -1    0    0    0    0  0.00000000000E+00  0.00000000000E+00  0.45593999997E+02  0.45594000000E+02  0.51100000000E-03 0. -1.
         11   -1    0    0    0    0 -0.00000000000E+00 -0.00000000000E+00 -0.45593999997E+02  0.45594000000E+02  0.51100000000E-03 0.  1.
    9900012    2    1    2    0    0  0.50245250265E+01 -0.42942320842E+00  0.18034694000E+02  0.72461536274E+02  0.69999955682E+02 0.  0.
        -12    1    1    2    0    0 -0.50245250265E+01  0.42942320842E+00 -0.18034694000E+02  0.18726463726E+02  0.00000000000E+00 0.  1.
         11    1    3    3    0    0 -0.24185194480E+00 -0.10240113803E+02 -0.37937396386E+01  0.10922952154E+02  0.51100000000E-03 0. -1.
        -11    1    3    3    0    0 -0.12520419990E+02  0.28832997027E+02  0.13338756026E+02  0.34147108910E+02  0.51100000000E-03 0.  1.
         12    1    3    3    0    0  0.17786796962E+02 -0.19022306433E+02  0.84896776125E+01  0.27391475209E+02  0.00000000000E+00 0. -1.
</event>
<event>
 7    1  0.2656097E-013  0.7246158E+02  0.7816164E-02  0.1226708E+00
        -11   -1    0    0    0    0  0.00000000000E+00  0.00000000000E+00  0.45593999997E+02  0.45594000000E+02  0.51100000000E-03 0. -1.
         11   -1    0    0    0    0 -0.00000000000E+00 -0.00000000000E+00 -0.45593999997E+02  0.45594000000E+02  0.51100000000E-03 0.  1.
    9900012    2    1    2    0    0  0.11187787355E+02  0.14882708388E+02  0.20042913271E+01  0.72461580732E+02  0.70000013597E+02 0.  0.
        -12    1    1    2    0    0 -0.11187787355E+02 -0.14882708388E+02 -0.20042913271E+01  0.18726419268E+02  0.00000000000E+00 0.  1.
         11    1    3    3    0    0 -0.31710163759E+01  0.44713689132E+01  0.42998091559E+01  0.69668388708E+01  0.51100000000E-03 0. -1.
        -11    1    3    3    0    0  0.15376558891E+02  0.18241324488E+02 -0.29054855713E+02  0.37594801810E+02  0.51100000000E-03 0.  1.
         12    1    3    3    0    0 -0.10177551598E+01 -0.78299850136E+01  0.26759337884E+02  0.27899940051E+02  0.00000000000E+00 0. -1.
</event>
<event>
 7    1  0.2656097E-013  0.7246156E+02  0.7816164E-02  0.1226708E+00
        -11   -1    0    0    0    0  0.00000000000E+00  0.00000000000E+00  0.45593999997E+02  0.45594000000E+02  0.51100000000E-03 0. -1.
         11   -1    0    0    0    0 -0.00000000000E+00 -0.00000000000E+00 -0.45593999997E+02  0.45594000000E+02  0.51100000000E-03 0.  1.
    9900012    2    1    2    0    0 -0.87727187464E+01  0.14238491464E+02  0.84252111411E+01  0.72461563709E+02  0.69999991422E+02 0.  0.
        -12    1    1    2    0    0  0.87727187464E+01 -0.14238491464E+02 -0.84252111411E+01  0.18726436291E+02  0.00000000000E+00 0.  1.
         11    1    3    3    0    0 -0.18017619642E+02 -0.21712860631E+01  0.31163387455E+01  0.18413600088E+02  0.51100000000E-03 0. -1.
        -11    1    3    3    0    0 -0.10241936136E+02  0.28840915103E+02  0.16900402975E+01  0.30652110470E+02  0.51100000000E-03 0.  1.
        -12    1    3    3    0    0  0.19486837032E+02 -0.12431137575E+02  0.36188320981E+01  0.23395853152E+02  0.00000000000E+00 0.  1.
</event>
<event>
 7    1  0.2656097E-013  0.7246156E+02  0.7816164E-02  0.1226708E+00
        -11   -1    0    0    0    0  0.00000000000E+00  0.00000000000E+00  0.45593999997E+02  0.45594000000E+02  0.51100000000E-03 0.  1.
         11   -1    0    0    0    0 -0.00000000000E+00 -0.00000000000E+00 -0.45593999997E+02  0.45594000000E+02  0.51100000000E-03 0. -1.
    9900012    2    1    2    0    0 -0.72245696120E+01 -0.25507441882E+01 -0.17087383263E+02  0.72461564975E+02  0.69999993070E+02 0.  0.
        -12    1    1    2    0    0  0.72245696120E+01  0.25507441882E+01  0.17087383263E+02  0.18726435025E+02  0.00000000000E+00 0.  1.
         11    1    3    3    0    0  0.13258385039E+02  0.24410845221E+02 -0.16942354172E+02  0.32537939446E+02  0.51100000000E-03 0. -1.
        -11    1    3    3    0    0 -0.11083376328E+02 -0.22386920033E+01  0.59555543851E+01  0.12779733996E+02  0.51100000000E-03 0.  1.
        -12    1    3    3    0    0 -0.93995783237E+01 -0.24722897406E+02 -0.61005834756E+01  0.27143891533E+02  0.00000000000E+00 0.  1.
</event>
<event>
 7    1  0.2656097E-013  0.7246179E+02  0.7816164E-02  0.1226707E+00
        -11   -1    0    0    0    0  0.00000000000E+00  0.00000000000E+00  0.45593999997E+02  0.45594000000E+02  0.51100000000E-03 0. -1.
         11   -1    0    0    0    0 -0.00000000000E+00 -0.00000000000E+00 -0.45593999997E+02  0.45594000000E+02  0.51100000000E-03 0.  1.
    9900012    2    1    2    0    0 -0.13736567828E+02  0.11893021168E+02 -0.45314241786E+01  0.72461787001E+02  0.70000282300E+02 0.  0.
        -12    1    1    2    0    0  0.13736567828E+02 -0.11893021168E+02  0.45314241786E+01  0.18726212999E+02  0.00000000000E+00 0.  1.
         11    1    3    3    0    0 -0.16239665085E+02  0.27292366385E+02  0.17488915815E+02  0.36255512155E+02  0.51100000000E-03 0. -1.
        -11    1    3    3    0    0 -0.96637048848E+00 -0.47415119933E+00  0.50156530160E+01  0.51298603021E+01  0.51100000000E-03 0.  1.
        -12    1    3    3    0    0  0.34694677458E+01 -0.14925194017E+02 -0.27035993010E+02  0.31076414544E+02  0.00000000000E+00 0.  1.
</event>
<event>
 7    1  0.2656097E-013  0.7246148E+02  0.7816164E-02  0.1226708E+00
        -11   -1    0    0    0    0  0.00000000000E+00  0.00000000000E+00  0.45593999997E+02  0.45594000000E+02  0.51100000000E-03 0.  1.
         11   -1    0    0    0    0 -0.00000000000E+00 -0.00000000000E+00 -0.45593999997E+02  0.45594000000E+02  0.51100000000E-03 0. -1.
    9900012    2    1    2    0    0 -0.24137119216E+01 -0.15057601705E+02  0.10868538937E+02  0.72461481023E+02  0.69999883708E+02 0.  0.
        -12    1    1    2    0    0  0.24137119216E+01  0.15057601705E+02 -0.10868538937E+02  0.18726518977E+02  0.00000000000E+00 0.  1.
         11    1    3    3    0    0 -0.12164577850E+02 -0.87159258182E+01  0.13837429360E+02  0.20381824469E+02  0.51100000000E-03 0.  1.
        -11    1    3    3    0    0  0.13806383634E+02  0.12222182132E+02 -0.19540527731E+02  0.26866897651E+02  0.51100000000E-03 0. -1.
         12    1    3    3    0    0 -0.40555177052E+01 -0.18563858019E+02  0.16571637309E+02  0.25212758903E+02  0.00000000000E+00 0. -1.
</event>
<event>
 7    1  0.2656097E-013  0.7246154E+02  0.7816164E-02  0.1226708E+00
        -11   -1    0    0    0    0  0.00000000000E+00  0.00000000000E+00  0.45593999997E+02  0.45594000000E+02  0.51100000000E-03 0.  1.
         11   -1    0    0    0    0 -0.00000000000E+00 -0.00000000000E+00 -0.45593999997E+02  0.45594000000E+02  0.51100000000E-03 0. -1.
    9900012    2    1    2    0    0 -0.15435555245E+02 -0.77823210751E+01 -0.72013455503E+01  0.72461541051E+02  0.69999961904E+02 0.  0.
        -12    1    1    2    0    0  0.15435555245E+02  0.77823210751E+01  0.72013455503E+01  0.18726458949E+02  0.00000000000E+00 0.  1.
         11    1    3    3    0    0 -0.11429354449E+02 -0.19370571624E+02 -0.21544937097E+02  0.31145360857E+02  0.51100000000E-03 0. -1.
        -11    1    3    3    0    0  0.11241161913E+02 -0.13777706670E+01 -0.59668860390E+01  0.12801003961E+02  0.51100000000E-03 0.  1.
        -12    1    3    3    0    0 -0.15247362709E+02  0.12966021216E+02  0.20310477586E+02  0.28515176232E+02  0.00000000000E+00 0.  1.
</event>
<event>
 7    1  0.2656097E-013  0.7246161E+02  0.7816164E-02  0.1226708E+00
        -11   -1    0    0    0    0  0.00000000000E+00  0.00000000000E+00  0.45593999997E+02  0.45594000000E+02  0.51100000000E-03 0. -1.
         11   -1    0    0    0    0 -0.00000000000E+00 -0.00000000000E+00 -0.45593999997E+02  0.45594000000E+02  0.51100000000E-03 0.  1.
    9900012    2    1    2    0    0  0.17487729023E+02 -0.65103249535E+01 -0.15724715204E+01  0.72461610490E+02  0.70000052363E+02 0.  0.
        -12    1    1    2    0    0 -0.17487729023E+02  0.65103249535E+01  0.15724715204E+01  0.18726389510E+02  0.00000000000E+00 0.  1.
         11    1    3    3    0    0 -0.11974538385E+02 -0.12653242792E+02 -0.57653796467E+01  0.18350305867E+02  0.51100000000E-03 0. -1.
        -11    1    3    3    0    0 -0.85268550915E+01  0.12789067057E+02  0.69074123393E+00  0.15386507649E+02  0.51100000000E-03 0.  1.
         12    1    3    3    0    0  0.37989122499E+02 -0.66461492180E+01  0.35021668924E+01  0.38724796974E+02  0.00000000000E+00 0. -1.
</event>
<event>
 7    1  0.2656097E-013  0.7246157E+02  0.7816164E-02  0.1226708E+00
        -11   -1    0    0    0    0  0.00000000000E+00  0.00000000000E+00  0.45593999997E+02  0.45594000000E+02  0.51100000000E-03 0.  1.
         11   -1    0    0    0    0 -0.00000000000E+00 -0.00000000000E+00 -0.45593999997E+02  0.45594000000E+02  0.51100000000E-03 0. -1.
    9900012    2    1    2    0    0 -0.14591354949E+02 -0.89457143908E+00 -0.11703473959E+02  0.72461569480E+02  0.69999998939E+02 0.  0.
        -12    1    1    2    0    0  0.14591354949E+02  0.89457143908E+00  0.11703473959E+02  0.18726430520E+02  0.00000000000E+00 0.  1.
         11    1    3    3    0    0 -0.22857229473E+01  0.10561913456E+02  0.98725465022E-01  0.10806863200E+02  0.51100000000E-03 0. -1.
        -11    1    3    3    0    0  0.20516482007E+02 -0.17445819675E+02 -0.26683715495E+01  0.27062942653E+02  0.51100000000E-03 0.  1.
         12    1    3    3    0    0 -0.32822114009E+02  0.59893347798E+01 -0.91338278748E+01  0.34591763627E+02  0.00000000000E+00 0. -1.
</event>
<event>
 7    1  0.2656097E-013  0.7246156E+02  0.7816164E-02  0.1226708E+00
        -11   -1    0    0    0    0  0.00000000000E+00  0.00000000000E+00  0.45593999997E+02  0.45594000000E+02  0.51100000000E-03 0. -1.
         11   -1    0    0    0    0 -0.00000000000E+00 -0.00000000000E+00 -0.45593999997E+02  0.45594000000E+02  0.51100000000E-03 0.  1.
    9900012    2    1    2    0    0  0.61403214501E+01  0.13154677771E+02  0.11829218870E+02  0.72461561101E+02  0.69999988024E+02 0.  0.
        -12    1    1    2    0    0 -0.61403214501E+01 -0.13154677771E+02 -0.11829218870E+02  0.18726438899E+02  0.00000000000E+00 0.  1.
         11    1    3    3    0    0 -0.65604996725E+01 -0.14287662784E+01 -0.23692004901E+02  0.24625040620E+02  0.51100000000E-03 0.  1.
        -11    1    3    3    0    0 -0.32638620969E+01 -0.54843665676E+01  0.76662759229E+01  0.99751119905E+01  0.51100000000E-03 0. -1.
         12    1    3    3    0    0  0.15964683219E+02  0.20067810617E+02  0.27854947848E+02  0.37861408490E+02  0.00000000000E+00 0. -1.
</event>
<event>
 7    1  0.2656097E-013  0.7246159E+02  0.7816164E-02  0.1226708E+00
        -11   -1    0    0    0    0  0.00000000000E+00  0.00000000000E+00  0.45593999997E+02  0.45594000000E+02  0.51100000000E-03 0.  1.
         11   -1    0    0    0    0 -0.00000000000E+00 -0.00000000000E+00 -0.45593999997E+02  0.45594000000E+02  0.51100000000E-03 0. -1.
    9900012    2    1    2    0    0 -0.11860254987E+02  0.82975119342E+01 -0.11881254512E+02  0.72461586530E+02  0.70000021150E+02 0.  0.
        -12    1    1    2    0    0  0.11860254987E+02 -0.82975119342E+01  0.11881254512E+02  0.18726413470E+02  0.00000000000E+00 0.  1.
         11    1    3    3    0    0 -0.27027069513E+01  0.59336743604E+01 -0.22169977067E+02  0.23108894385E+02  0.51100000000E-03 0. -1.
        -11    1    3    3    0    0 -0.23163223906E+02  0.14227328459E+02 -0.20107488096E+01  0.27257933301E+02  0.51100000000E-03 0.  1.
         12    1    3    3    0    0  0.14005675870E+02 -0.11863490885E+02  0.12299471364E+02  0.22094758844E+02  0.00000000000E+00 0. -1.
</event>
<event>
 7    1  0.2656097E-013  0.7246158E+02  0.7816164E-02  0.1226708E+00
        -11   -1    0    0    0    0  0.00000000000E+00  0.00000000000E+00  0.45593999997E+02  0.45594000000E+02  0.51100000000E-03 0.  1.
         11   -1    0    0    0    0 -0.00000000000E+00 -0.00000000000E+00 -0.45593999997E+02  0.45594000000E+02  0.51100000000E-03 0. -1.
    9900012    2    1    2    0    0 -0.47694025444E+01  0.84775875974E+01 -0.16001938240E+02  0.72461582309E+02  0.70000015651E+02 0.  0.
        -12    1    1    2    0    0  0.47694025444E+01 -0.84775875974E+01  0.16001938240E+02  0.18726417691E+02  0.00000000000E+00 0.  1.
         11    1    3    3    0    0 -0.59050167196E+01  0.15579582939E+02 -0.51447383980E+01  0.17437343848E+02  0.51100000000E-03 0. -1.
        -11    1    3    3    0    0  0.70438000109E+01  0.13815968241E+02 -0.24764583645E+02  0.29219526012E+02  0.51100000000E-03 0.  1.
        -12    1    3    3    0    0 -0.59081858357E+01 -0.20917963583E+02  0.13907383802E+02  0.25804712448E+02  0.00000000000E+00 0.  1.
</event>
<event>
 7    1  0.2656097E-013  0.7246161E+02  0.7816164E-02  0.1226708E+00
        -11   -1    0    0    0    0  0.00000000000E+00  0.00000000000E+00  0.45593999997E+02  0.45594000000E+02  0.51100000000E-03 0. -1.
         11   -1    0    0    0    0 -0.00000000000E+00 -0.00000000000E+00 -0.45593999997E+02  0.45594000000E+02  0.51100000000E-03 0.  1.
    9900012    2    1    2    0    0 -0.63442711964E+01  0.41985007609E+01  0.17111419337E+02  0.72461605329E+02  0.70000045639E+02 0.  0.
        -12    1    1    2    0    0  0.63442711964E+01 -0.41985007609E+01 -0.17111419337E+02  0.18726394671E+02  0.00000000000E+00 0.  1.
         11    1    3    3    0    0  0.76551048971E+01 -0.13829089153E+02 -0.26035407371E+01  0.16019449504E+02  0.51100000000E-03 0.  1.
        -11    1    3    3    0    0  0.13581289665E+02  0.83440359201E+01 -0.64652730840E+01  0.17200991853E+02  0.51100000000E-03 0. -1.
        -12    1    3    3    0    0 -0.27580665759E+02  0.96835539935E+01  0.26180233158E+02  0.39241163972E+02  0.00000000000E+00 0.  1.
</event>
<event>
 7    1  0.2656097E-013  0.7246158E+02  0.7816164E-02  0.1226708E+00
        -11   -1    0    0    0    0  0.00000000000E+00  0.00000000000E+00  0.45593999997E+02  0.45594000000E+02  0.51100000000E-03 0.  1.
         11   -1    0    0    0    0 -0.00000000000E+00 -0.00000000000E+00 -0.45593999997E+02  0.45594000000E+02  0.51100000000E-03 0. -1.
    9900012    2    1    2    0    0 -0.67055521647E+01 -0.13541650220E+02 -0.11060651909E+02  0.72461581731E+02  0.70000014899E+02 0.  0.
        -12    1    1    2    0    0  0.67055521647E+01  0.13541650220E+02  0.11060651909E+02  0.18726418269E+02  0.00000000000E+00 0.  1.
         11    1    3    3    0    0  0.85471041375E+01 -0.11815929507E+02  0.56027589418E+01  0.15622422580E+02  0.51100000000E-03 0.  1.
        -11    1    3    3    0    0 -0.31616330686E+02 -0.12497808258E+02 -0.59613233707E+01  0.34515575526E+02  0.51100000000E-03 0. -1.
         12    1    3    3    0    0  0.16363674384E+02  0.10772087545E+02 -0.10702087480E+02  0.22323583625E+02  0.00000000000E+00 0. -1.
</event>
<event>
 7    1  0.2656097E-013  0.7246190E+02  0.7816164E-02  0.1226707E+00
        -11   -1    0    0    0    0  0.00000000000E+00  0.00000000000E+00  0.45593999997E+02  0.45594000000E+02  0.51100000000E-03 0.  1.
         11   -1    0    0    0    0 -0.00000000000E+00 -0.00000000000E+00 -0.45593999997E+02  0.45594000000E+02  0.51100000000E-03 0. -1.
    9900012    2    1    2    0    0  0.37046363262E+01 -0.17027867338E+02 -0.68552442421E+01  0.72461896027E+02  0.70000424326E+02 0.  0.
        -12    1    1    2    0    0 -0.37046363262E+01  0.17027867338E+02  0.68552442421E+01  0.18726103973E+02  0.00000000000E+00 0.  1.
         11    1    3    3    0    0  0.59256366157E+01 -0.49761559260E+01 -0.97821070698E+01  0.12472566540E+02  0.51100000000E-03 0. -1.
        -11    1    3    3    0    0  0.27963576360E+02 -0.42893156827E+01  0.51012375020E+01  0.28746868633E+02  0.51100000000E-03 0.  1.
        -12    1    3    3    0    0 -0.30184576650E+02 -0.77623957297E+01 -0.21743746743E+01  0.31242460854E+02  0.00000000000E+00 0.  1.
</event>
<event>
 7    1  0.2656097E-013  0.7246158E+02  0.7816164E-02  0.1226708E+00
        -11   -1    0    0    0    0  0.00000000000E+00  0.00000000000E+00  0.45593999997E+02  0.45594000000E+02  0.51100000000E-03 0.  1.
         11   -1    0    0    0    0 -0.00000000000E+00 -0.00000000000E+00 -0.45593999997E+02  0.45594000000E+02  0.51100000000E-03 0. -1.
    9900012    2    1    2    0    0 -0.12787138446E+02 -0.13601907015E+02 -0.14683050447E+01  0.72461582730E+02  0.70000016199E+02 0.  0.
        -12    1    1    2    0    0  0.12787138446E+02  0.13601907015E+02  0.14683050447E+01  0.18726417270E+02  0.00000000000E+00 0.  1.
         11    1    3    3    0    0 -0.80191212012E+01 -0.26078046194E+01  0.93652351048E+01  0.12602165631E+02  0.51100000000E-03 0. -1.
        -11    1    3    3    0    0 -0.14402464627E+02  0.19675637252E+02  0.35504154693E+01  0.24640761734E+02  0.51100000000E-03 0.  1.
         12    1    3    3    0    0  0.96344473820E+01 -0.30669739647E+02 -0.14383955619E+02  0.35218655364E+02  0.00000000000E+00 0. -1.
</event>
<event>
 7    1  0.2656097E-013  0.7246159E+02  0.7816164E-02  0.1226708E+00
        -11   -1    0    0    0    0  0.00000000000E+00  0.00000000000E+00  0.45593999997E+02  0.45594000000E+02  0.51100000000E-03 0. -1.
         11   -1    0    0    0    0 -0.00000000000E+00 -0.00000000000E+00 -0.45593999997E+02  0.45594000000E+02  0.51100000000E-03 0.  1.
    9900012    2    1    2    0    0  0.89468057665E+01 -0.10227504621E+02  0.12885315763E+02  0.72461586929E+02  0.70000021670E+02 0.  0.
        -12    1    1    2    0    0 -0.89468057665E+01  0.10227504621E+02 -0.12885315763E+02  0.18726413071E+02  0.00000000000E+00 0.  1.
         11    1    3    3    0    0 -0.62450431190E+01  0.75853899872E+00 -0.28892660936E+01  0.69227020585E+01  0.51100000000E-03 0. -1.
        -11    1    3    3    0    0 -0.18457257191E+02 -0.17199211960E+02  0.18392058639E+02  0.31221003448E+02  0.51100000000E-03 0.  1.
         12    1    3    3    0    0  0.33649106077E+02  0.62131683408E+01 -0.26174767823E+01  0.34317881422E+02  0.00000000000E+00 0. -1.
</event>
<event>
 7    1  0.2656097E-013  0.7246156E+02  0.7816164E-02  0.1226708E+00
        -11   -1    0    0    0    0  0.00000000000E+00  0.00000000000E+00  0.45593999997E+02  0.45594000000E+02  0.51100000000E-03 0.  1.
         11   -1    0    0    0    0 -0.00000000000E+00 -0.00000000000E+00 -0.45593999997E+02  0.45594000000E+02  0.51100000000E-03 0. -1.
    9900012    2    1    2    0    0  0.92626041306E+01  0.71159031007E+01 -0.14637206744E+02  0.72461555236E+02  0.69999980384E+02 0.  0.
        -12    1    1    2    0    0 -0.92626041306E+01 -0.71159031007E+01  0.14637206744E+02  0.18726444764E+02  0.00000000000E+00 0.  1.
         11    1    3    3    0    0 -0.50008025811E+01 -0.43910329766E+01 -0.44670695069E+01  0.80152297096E+01  0.51100000000E-03 0. -1.
        -11    1    3    3    0    0  0.26405077422E+01 -0.22996250173E+02  0.70136880425E+01  0.24186600079E+02  0.51100000000E-03 0.  1.
         12    1    3    3    0    0  0.11622898970E+02  0.34503186250E+02 -0.17183825280E+02  0.40259725448E+02  0.00000000000E+00 0. -1.
</event>
<event>
 7    1  0.2656097E-013  0.7246157E+02  0.7816164E-02  0.1226708E+00
        -11   -1    0    0    0    0  0.00000000000E+00  0.00000000000E+00  0.45593999997E+02  0.45594000000E+02  0.51100000000E-03 0. -1.
         11   -1    0    0    0    0 -0.00000000000E+00 -0.00000000000E+00 -0.45593999997E+02  0.45594000000E+02  0.51100000000E-03 0.  1.
    9900012    2    1    2    0    0  0.11515694118E+01 -0.18675424406E+02  0.76250282327E+00  0.72461574836E+02  0.70000005916E+02 0.  0.
        -12    1    1    2    0    0 -0.11515694118E+01  0.18675424406E+02 -0.76250282327E+00  0.18726425164E+02  0.00000000000E+00 0.  1.
         11    1    3    3    0    0  0.23317169460E+02 -0.12301014104E+02  0.41241715204E+01  0.26683592910E+02  0.51100000000E-03 0. -1.
        -11    1    3    3    0    0 -0.90724554165E-01  0.14705421920E+02 -0.40288300718E+01  0.15247594459E+02  0.51100000000E-03 0.  1.
        -12    1    3    3    0    0 -0.22074875494E+02 -0.21079832222E+02  0.66716137464E+00  0.30530387467E+02  0.00000000000E+00 0.  1.
</event>
<event>
 7    1  0.2656097E-013  0.7246128E+02  0.7816164E-02  0.1226709E+00
        -11   -1    0    0    0    0  0.00000000000E+00  0.00000000000E+00  0.45593999997E+02  0.45594000000E+02  0.51100000000E-03 0.  1.
         11   -1    0    0    0    0 -0.00000000000E+00 -0.00000000000E+00 -0.45593999997E+02  0.45594000000E+02  0.51100000000E-03 0. -1.
    9900012    2    1    2    0    0  0.77332957232E+01  0.89499123663E+01 -0.14518451527E+02  0.72461275010E+02  0.69999615337E+02 0.  0.
        -12    1    1    2    0    0 -0.77332957232E+01 -0.89499123663E+01  0.14518451527E+02  0.18726724990E+02  0.00000000000E+00 0.  1.
         11    1    3    3    0    0 -0.98397258763E+01 -0.74619284844E+01  0.46775622892E+01  0.13205308450E+02  0.51100000000E-03 0. -1.
        -11    1    3    3    0    0 -0.13279611160E+02  0.36179428477E+01 -0.21770889445E+02  0.25756731363E+02  0.51100000000E-03 0.  1.
         12    1    3    3    0    0  0.30852632760E+02  0.12793898003E+02  0.25748756290E+01  0.33499235198E+02  0.00000000000E+00 0. -1.
</event>
<event>
 7    1  0.2656097E-013  0.7246143E+02  0.7816164E-02  0.1226708E+00
        -11   -1    0    0    0    0  0.00000000000E+00  0.00000000000E+00  0.45593999997E+02  0.45594000000E+02  0.51100000000E-03 0.  1.
         11   -1    0    0    0    0 -0.00000000000E+00 -0.00000000000E+00 -0.45593999997E+02  0.45594000000E+02  0.51100000000E-03 0. -1.
    9900012    2    1    2    0    0  0.72743248127E+01 -0.90311038572E+01 -0.14704004961E+02  0.72461430633E+02  0.69999818065E+02 0.  0.
        -12    1    1    2    0    0 -0.72743248127E+01  0.90311038572E+01  0.14704004961E+02  0.18726569367E+02  0.00000000000E+00 0.  1.
         11    1    3    3    0    0  0.63494683898E+01  0.89585817669E+01 -0.86851997116E+01  0.14000165370E+02  0.51100000000E-03 0. -1.
        -11    1    3    3    0    0 -0.18616969002E+02  0.19796260765E+01  0.14595872991E+02  0.23739207292E+02  0.51100000000E-03 0.  1.
         12    1    3    3    0    0  0.19541825425E+02 -0.19969311701E+02 -0.20614678241E+02  0.34722057970E+02  0.00000000000E+00 0. -1.
</event>
<event>
 7    1  0.2656097E-013  0.7246158E+02  0.7816164E-02  0.1226708E+00
        -11   -1    0    0    0    0  0.00000000000E+00  0.00000000000E+00  0.45593999997E+02  0.45594000000E+02  0.51100000000E-03 0. -1.
         11   -1    0    0    0    0 -0.00000000000E+00 -0.00000000000E+00 -0.45593999997E+02  0.45594000000E+02  0.51100000000E-03 0.  1.
    9900012    2    1    2    0    0  0.79040897916E+00  0.16996726896E+02  0.78208257409E+01  0.72461580513E+02  0.70000013312E+02 0.  0.
        -12    1    1    2    0    0 -0.79040897916E+00 -0.16996726896E+02 -0.78208257409E+01  0.18726419487E+02  0.00000000000E+00 0.  1.
         11    1    3    3    0    0 -0.14082456460E+02  0.22193894944E+02  0.57731066505E+01  0.26911211667E+02  0.51100000000E-03 0. -1.
        -11    1    3    3    0    0  0.79776593154E+01  0.86119263579E+01 -0.17233674643E+02  0.20852047039E+02  0.51100000000E-03 0.  1.
         12    1    3    3    0    0  0.68952061234E+01 -0.13809094406E+02  0.19281393733E+02  0.24698321808E+02  0.00000000000E+00 0. -1.
</event>
<event>
 7    1  0.2656097E-013  0.7246163E+02  0.7816164E-02  0.1226708E+00
        -11   -1    0    0    0    0  0.00000000000E+00  0.00000000000E+00  0.45593999997E+02  0.45594000000E+02  0.51100000000E-03 0.  1.
         11   -1    0    0    0    0 -0.00000000000E+00 -0.00000000000E+00 -0.45593999997E+02  0.45594000000E+02  0.51100000000E-03 0. -1.
    9900012    2    1    2    0    0 -0.85075900084E+01  0.83578783592E+01 -0.14437582325E+02  0.72461628173E+02  0.70000075398E+02 0.  0.
        -12    1    1    2    0    0  0.85075900084E+01 -0.83578783592E+01  0.14437582325E+02  0.18726371827E+02  0.00000000000E+00 0.  1.
         11    1    3    3    0    0 -0.72294366762E+01 -0.35253528937E+01 -0.99831732687E+01  0.12820164447E+02  0.51100000000E-03 0. -1.
        -11    1    3    3    0    0 -0.23396758407E+02  0.58866969933E+01 -0.20505109874E+02  0.31662612600E+02  0.51100000000E-03 0.  1.
         12    1    3    3    0    0  0.22118605074E+02  0.59965342596E+01  0.16050700818E+02  0.27978851126E+02  0.00000000000E+00 0. -1.
</event>
<event>
 7    1  0.2656097E-013  0.7246161E+02  0.7816164E-02  0.1226708E+00
        -11   -1    0    0    0    0  0.00000000000E+00  0.00000000000E+00  0.45593999997E+02  0.45594000000E+02  0.51100000000E-03 0. -1.
         11   -1    0    0    0    0 -0.00000000000E+00 -0.00000000000E+00 -0.45593999997E+02  0.45594000000E+02  0.51100000000E-03 0.  1.
    9900012    2    1    2    0    0 -0.10539184841E+02  0.15679270850E+01  0.15399514463E+02  0.72461605308E+02  0.70000045612E+02 0.  0.
        -12    1    1    2    0    0  0.10539184841E+02 -0.15679270850E+01 -0.15399514463E+02  0.18726394692E+02  0.00000000000E+00 0.  1.
         11    1    3    3    0    0  0.14281702259E+01  0.20208144660E+01  0.11119938919E+02  0.11391944659E+02  0.51100000000E-03 0. -1.
        -11    1    3    3    0    0 -0.12143421840E+02  0.25850298396E+02 -0.11051517784E+02  0.30624119036E+02  0.51100000000E-03 0.  1.
         12    1    3    3    0    0  0.17606677235E+00 -0.26303185777E+02  0.15331093328E+02  0.30445541614E+02  0.00000000000E+00 0. -1.
</event>
<event>
 7    1  0.2656097E-013  0.7246162E+02  0.7816164E-02  0.1226708E+00
        -11   -1    0    0    0    0  0.00000000000E+00  0.00000000000E+00  0.45593999997E+02  0.45594000000E+02  0.51100000000E-03 0.  1.
         11   -1    0    0    0    0 -0.00000000000E+00 -0.00000000000E+00 -0.45593999997E+02  0.45594000000E+02  0.51100000000E-03 0. -1.
    9900012    2    1    2    0    0  0.12773308142E+02 -0.13640974033E+02 -0.12015232451E+01  0.72461622038E+02  0.70000067406E+02 0.  0.
        -12    1    1    2    0    0 -0.12773308142E+02  0.13640974033E+02  0.12015232451E+01  0.18726377962E+02  0.00000000000E+00 0.  1.
         11    1    3    3    0    0  0.62851410305E+01  0.11457199636E+02  0.98433565445E+00  0.13104935643E+02  0.51100000000E-03 0. -1.
        -11    1    3    3    0    0 -0.17134564390E+02  0.72677783017E+01 -0.47376951421E+01  0.19205719299E+02  0.51100000000E-03 0.  1.
         12    1    3    3    0    0  0.23622731502E+02 -0.32365951970E+02  0.25518362426E+01  0.40150967096E+02  0.00000000000E+00 0. -1.
</event>
<event>
 7    1  0.2656097E-013  0.7246159E+02  0.7816164E-02  0.1226708E+00
        -11   -1    0    0    0    0  0.00000000000E+00  0.00000000000E+00  0.45593999997E+02  0.45594000000E+02  0.51100000000E-03 0. -1.
         11   -1    0    0    0    0 -0.00000000000E+00 -0.00000000000E+00 -0.45593999997E+02  0.45594000000E+02  0.51100000000E-03 0.  1.
    9900012    2    1    2    0    0  0.79623128694E+01 -0.42214565279E+01  0.16415214748E+02  0.72461590929E+02  0.70000026881E+02 0.  0.
        -12    1    1    2    0    0 -0.79623128694E+01  0.42214565279E+01 -0.16415214748E+02  0.18726409071E+02  0.00000000000E+00 0.  1.
         11    1    3    3    0    0  0.17995131517E+02  0.10771923257E+02  0.24855179477E+02  0.32521362765E+02  0.51100000000E-03 0. -1.
        -11    1    3    3    0    0  0.11506471540E+02 -0.20459058057E+01  0.33831695498E+01  0.12166776661E+02  0.51100000000E-03 0.  1.
        -12    1    3    3    0    0 -0.21539290187E+02 -0.12947473979E+02 -0.11823134279E+02  0.27773451503E+02  0.00000000000E+00 0.  1.
</event>
<event>
 7    1  0.2656097E-013  0.7246161E+02  0.7816164E-02  0.1226708E+00
        -11   -1    0    0    0    0  0.00000000000E+00  0.00000000000E+00  0.45593999997E+02  0.45594000000E+02  0.51100000000E-03 0.  1.
         11   -1    0    0    0    0 -0.00000000000E+00 -0.00000000000E+00 -0.45593999997E+02  0.45594000000E+02  0.51100000000E-03 0. -1.
    9900012    2    1    2    0    0  0.96653251058E+01  0.13798030889E+02  0.81776319187E+01  0.72461606071E+02  0.70000046605E+02 0.  0.
        -12    1    1    2    0    0 -0.96653251058E+01 -0.13798030889E+02 -0.81776319187E+01  0.18726393929E+02  0.00000000000E+00 0.  1.
         11    1    3    3    0    0  0.88532789020E+01  0.34165944529E+01 -0.11273908977E+00  0.94903306231E+01  0.51100000000E-03 0. -1.
        -11    1    3    3    0    0  0.58155808522E+01 -0.21464163533E+02  0.18742504193E+02  0.29082860253E+02  0.51100000000E-03 0.  1.
         12    1    3    3    0    0 -0.50035346485E+01  0.31845599968E+02 -0.10452133184E+02  0.33888415195E+02  0.00000000000E+00 0. -1.
</event>
<event>
 7    1  0.2656097E-013  0.7246158E+02  0.7816164E-02  0.1226708E+00
        -11   -1    0    0    0    0  0.00000000000E+00  0.00000000000E+00  0.45593999997E+02  0.45594000000E+02  0.51100000000E-03 0. -1.
         11   -1    0    0    0    0 -0.00000000000E+00 -0.00000000000E+00 -0.45593999997E+02  0.45594000000E+02  0.51100000000E-03 0.  1.
    9900012    2    1    2    0    0  0.15949576717E+02  0.12142094586E+01 -0.97373294735E+01  0.72461577829E+02  0.70000009815E+02 0.  0.
        -12    1    1    2    0    0 -0.15949576717E+02 -0.12142094586E+01  0.97373294735E+01  0.18726422171E+02  0.00000000000E+00 0.  1.
         11    1    3    3    0    0  0.12424030475E+02  0.94562248550E+00  0.61793936381E+00  0.12475278932E+02  0.51100000000E-03 0. -1.
        -11    1    3    3    0    0  0.41989693229E+01  0.29452292653E+02 -0.31327001424E+01  0.29914590025E+02  0.51100000000E-03 0.  1.
         12    1    3    3    0    0 -0.67342308068E+00 -0.29183705680E+02 -0.72225686950E+01  0.30071708871E+02  0.00000000000E+00 0. -1.
</event>
<event>
 7    1  0.2656097E-013  0.7246157E+02  0.7816164E-02  0.1226708E+00
        -11   -1    0    0    0    0  0.00000000000E+00  0.00000000000E+00  0.45593999997E+02  0.45594000000E+02  0.51100000000E-03 0. -1.
         11   -1    0    0    0    0 -0.00000000000E+00 -0.00000000000E+00 -0.45593999997E+02  0.45594000000E+02  0.51100000000E-03 0.  1.
    9900012    2    1    2    0    0  0.10117897350E+02  0.14708220264E+02 -0.56547011671E+01  0.72461568534E+02  0.69999997707E+02 0.  0.
        -12    1    1    2    0    0 -0.10117897350E+02 -0.14708220264E+02  0.56547011671E+01  0.18726431466E+02  0.00000000000E+00 0.  1.
         11    1    3    3    0    0  0.14563630930E+02  0.11956921293E+02  0.18391391194E+02  0.26330791537E+02  0.51100000000E-03 0. -1.
        -11    1    3    3    0    0  0.45843167014E+01 -0.83798538277E+01  0.70622817495E+01  0.11879130169E+02  0.51100000000E-03 0.  1.
         12    1    3    3    0    0 -0.90300502808E+01  0.11131152799E+02 -0.31108374110E+02  0.34251646829E+02  0.00000000000E+00 0. -1.
</event>
<event>
 7    1  0.2656097E-013  0.7246153E+02  0.7816164E-02  0.1226708E+00
        -11   -1    0    0    0    0  0.00000000000E+00  0.00000000000E+00  0.45593999997E+02  0.45594000000E+02  0.51100000000E-03 0. -1.
         11   -1    0    0    0    0 -0.00000000000E+00 -0.00000000000E+00 -0.45593999997E+02  0.45594000000E+02  0.51100000000E-03 0.  1.
    9900012    2    1    2    0    0 -0.16927291249E+02  0.53801056874E+01  0.59331148284E+01  0.72461532693E+02  0.69999951017E+02 0.  0.
        -12    1    1    2    0    0  0.16927291249E+02 -0.53801056874E+01 -0.59331148284E+01  0.18726467307E+02  0.00000000000E+00 0.  1.
         11    1    3    3    0    0 -0.23317288101E+02  0.33328305562E+01  0.21675343963E+02  0.32009751953E+02  0.51100000000E-03 0. -1.
        -11    1    3    3    0    0 -0.15214582167E+02  0.52520327200E+00 -0.93681573736E+01  0.17875170540E+02  0.51100000000E-03 0.  1.
        -12    1    3    3    0    0  0.21604579019E+02  0.15220718592E+01 -0.63740717612E+01  0.22576610200E+02  0.00000000000E+00 0.  1.
</event>
<event>
 7    1  0.2656097E-013  0.7246157E+02  0.7816164E-02  0.1226708E+00
        -11   -1    0    0    0    0  0.00000000000E+00  0.00000000000E+00  0.45593999997E+02  0.45594000000E+02  0.51100000000E-03 0. -1.
         11   -1    0    0    0    0 -0.00000000000E+00 -0.00000000000E+00 -0.45593999997E+02  0.45594000000E+02  0.51100000000E-03 0.  1.
    9900012    2    1    2    0    0 -0.15236964053E+02  0.23218674918E+01  0.10635937743E+02  0.72461566440E+02  0.69999994979E+02 0.  0.
        -12    1    1    2    0    0  0.15236964053E+02 -0.23218674918E+01 -0.10635937743E+02  0.18726433560E+02  0.00000000000E+00 0.  1.
         11    1    3    3    0    0  0.57623986102E+01  0.47523047127E+01 -0.88699895374E+00  0.75217288724E+01  0.51100000000E-03 0. -1.
        -11    1    3    3    0    0  0.16781404857E+02  0.51604788831E+01 -0.10596614475E+02  0.20506933703E+02  0.51100000000E-03 0.  1.
        -12    1    3    3    0    0 -0.37780767521E+02 -0.75909161040E+01  0.22119551173E+02  0.44432903864E+02  0.00000000000E+00 0.  1.
</event>
<event>
 7    1  0.2656097E-013  0.7246155E+02  0.7816164E-02  0.1226708E+00
        -11   -1    0    0    0    0  0.00000000000E+00  0.00000000000E+00  0.45593999997E+02  0.45594000000E+02  0.51100000000E-03 0.  1.
         11   -1    0    0    0    0 -0.00000000000E+00 -0.00000000000E+00 -0.45593999997E+02  0.45594000000E+02  0.51100000000E-03 0. -1.
    9900012    2    1    2    0    0 -0.18079251537E+02 -0.48108337574E+00 -0.48568575089E+01  0.72461552333E+02  0.69999976602E+02 0.  0.
        -12    1    1    2    0    0  0.18079251537E+02  0.48108337574E+00  0.48568575089E+01  0.18726447667E+02  0.00000000000E+00 0.  1.
         11    1    3    3    0    0  0.27150276136E+01  0.99430117112E+01 -0.31099622911E+01  0.10765998446E+02  0.51100000000E-03 0. -1.
        -11    1    3    3    0    0 -0.12072531219E+02  0.14328791560E+00 -0.28878357042E+02  0.31300575828E+02  0.51100000000E-03 0.  1.
        -12    1    3    3    0    0 -0.87217479319E+01 -0.10567383003E+02  0.27131461824E+02  0.30394978059E+02  0.00000000000E+00 0.  1.
</event>
<event>
 7    1  0.2656097E-013  0.7246159E+02  0.7816164E-02  0.1226708E+00
        -11   -1    0    0    0    0  0.00000000000E+00  0.00000000000E+00  0.45593999997E+02  0.45594000000E+02  0.51100000000E-03 0.  1.
         11   -1    0    0    0    0 -0.00000000000E+00 -0.00000000000E+00 -0.45593999997E+02  0.45594000000E+02  0.51100000000E-03 0. -1.
    9900012    2    1    2    0    0  0.64387627124E+01  0.14891344172E+02 -0.93524690408E+01  0.72461588873E+02  0.70000024202E+02 0.  0.
        -12    1    1    2    0    0 -0.64387627124E+01 -0.14891344172E+02  0.93524690408E+01  0.18726411127E+02  0.00000000000E+00 0.  1.
         11    1    3    3    0    0  0.24510172356E+01  0.21553391726E+02  0.73005410188E+01  0.22887858786E+02  0.51100000000E-03 0. -1.
        -11    1    3    3    0    0 -0.11484897518E+02  0.15095032311E+02 -0.12078811597E+02  0.22486897548E+02  0.51100000000E-03 0.  1.
        -12    1    3    3    0    0  0.15472642995E+02 -0.21757079864E+02 -0.45741984630E+01  0.27086832540E+02  0.00000000000E+00 0.  1.
</event>
<event>
 7    1  0.2656097E-013  0.7246196E+02  0.7816164E-02  0.1226707E+00
        -11   -1    0    0    0    0  0.00000000000E+00  0.00000000000E+00  0.45593999997E+02  0.45594000000E+02  0.51100000000E-03 0. -1.
         11   -1    0    0    0    0 -0.00000000000E+00 -0.00000000000E+00 -0.45593999997E+02  0.45594000000E+02  0.51100000000E-03 0.  1.
    9900012    2    1    2    0    0 -0.13196764463E+01  0.15813333418E+02 -0.99429150430E+01  0.72461958794E+02  0.70000506091E+02 0.  0.
        -12    1    1    2    0    0  0.13196764463E+01 -0.15813333418E+02  0.99429150430E+01  0.18726041206E+02  0.00000000000E+00 0.  1.
         11    1    3    3    0    0  0.88425978929E+01 -0.27341287834E+01  0.19338929677E+02  0.21439710796E+02  0.51100000000E-03 0. -1.
        -11    1    3    3    0    0  0.13852212009E+01  0.31727263524E+01  0.81973573231E+01  0.88984098370E+01  0.51100000000E-03 0.  1.
        -12    1    3    3    0    0 -0.11547495540E+02  0.15374735849E+02 -0.37479202043E+02  0.42123838161E+02  0.00000000000E+00 0.  1.
</event>
<event>
 7    1  0.2656097E-013  0.7246156E+02  0.7816164E-02  0.1226708E+00
        -11   -1    0    0    0    0  0.00000000000E+00  0.00000000000E+00  0.45593999997E+02  0.45594000000E+02  0.51100000000E-03 0.  1.
         11   -1    0    0    0    0 -0.00000000000E+00 -0.00000000000E+00 -0.45593999997E+02  0.45594000000E+02  0.51100000000E-03 0. -1.
    9900012    2    1    2    0    0 -0.86726722463E+01 -0.16328087219E+02  0.29762121674E+01  0.72461561071E+02  0.69999987984E+02 0.  0.
        -12    1    1    2    0    0  0.86726722463E+01  0.16328087219E+02 -0.29762121674E+01  0.18726438929E+02  0.00000000000E+00 0.  1.
         11    1    3    3    0    0  0.15387475026E+01 -0.11801022809E+02 -0.10491012360E+02  0.15864842382E+02  0.51100000000E-03 0. -1.
        -11    1    3    3    0    0  0.18033381819E+02  0.11678643273E+02  0.34218261028E+00  0.21487453495E+02  0.51100000000E-03 0.  1.
         12    1    3    3    0    0 -0.28244801567E+02 -0.16205707683E+02  0.13125041917E+02  0.35109265193E+02  0.00000000000E+00 0. -1.
</event>
<event>
 7    1  0.2656097E-013  0.7246166E+02  0.7816164E-02  0.1226708E+00
        -11   -1    0    0    0    0  0.00000000000E+00  0.00000000000E+00  0.45593999997E+02  0.45594000000E+02  0.51100000000E-03 0.  1.
         11   -1    0    0    0    0 -0.00000000000E+00 -0.00000000000E+00 -0.45593999997E+02  0.45594000000E+02  0.51100000000E-03 0. -1.
    9900012    2    1    2    0    0 -0.27943930754E+01  0.52717205796E+01 -0.17750388863E+02  0.72461655581E+02  0.70000111101E+02 0.  0.
        -12    1    1    2    0    0  0.27943930754E+01 -0.52717205796E+01  0.17750388863E+02  0.18726344419E+02  0.00000000000E+00 0.  1.
         11    1    3    3    0    0  0.13746526501E+02  0.15098950715E+02 -0.16887286817E+02  0.26497655742E+02  0.51100000000E-03 0. -1.
        -11    1    3    3    0    0  0.12572698609E+02  0.17555262382E+01  0.57571857260E+01  0.13939146689E+02  0.51100000000E-03 0.  1.
         12    1    3    3    0    0 -0.29113618185E+02 -0.11582756373E+02 -0.66202877721E+01  0.32024853149E+02  0.00000000000E+00 0. -1.
</event>
<event>
 7    1  0.2656097E-013  0.7246157E+02  0.7816164E-02  0.1226708E+00
        -11   -1    0    0    0    0  0.00000000000E+00  0.00000000000E+00  0.45593999997E+02  0.45594000000E+02  0.51100000000E-03 0.  1.
         11   -1    0    0    0    0 -0.00000000000E+00 -0.00000000000E+00 -0.45593999997E+02  0.45594000000E+02  0.51100000000E-03 0. -1.
    9900012    2    1    2    0    0  0.11273805122E+02 -0.40210672201E+01 -0.14401785671E+02  0.72461572310E+02  0.70000002626E+02 0.  0.
        -12    1    1    2    0    0 -0.11273805122E+02  0.40210672201E+01  0.14401785671E+02  0.18726427690E+02  0.00000000000E+00 0.  1.
         11    1    3    3    0    0 -0.39536182753E+01  0.67039471416E+01 -0.15884806559E+02  0.17689010273E+02  0.51100000000E-03 0. -1.
        -11    1    3    3    0    0  0.15697901615E+02  0.19200174275E+02  0.14618550576E+01  0.24843667760E+02  0.51100000000E-03 0.  1.
         12    1    3    3    0    0 -0.47047821793E+00 -0.29925188637E+02  0.21165830674E-01  0.29928894278E+02  0.00000000000E+00 0. -1.
</event>
<event>
 7    1  0.2656097E-013  0.7246159E+02  0.7816164E-02  0.1226708E+00
        -11   -1    0    0    0    0  0.00000000000E+00  0.00000000000E+00  0.45593999997E+02  0.45594000000E+02  0.51100000000E-03 0. -1.
         11   -1    0    0    0    0 -0.00000000000E+00 -0.00000000000E+00 -0.45593999997E+02  0.45594000000E+02  0.51100000000E-03 0.  1.
    9900012    2    1    2    0    0  0.80247328810E+01  0.16797901307E+02  0.20279373539E+01  0.72461592015E+02  0.70000028295E+02 0.  0.
        -12    1    1    2    0    0 -0.80247328810E+01 -0.16797901307E+02 -0.20279373539E+01  0.18726407985E+02  0.00000000000E+00 0.  1.
         11    1    3    3    0    0 -0.64119566785E+01  0.96289343793E+00 -0.59647173808E+01  0.88101195176E+01  0.51100000000E-03 0. -1.
        -11    1    3    3    0    0  0.58570365218E+01 -0.90269943600E+01 -0.21556408064E+02  0.24092949858E+02  0.51100000000E-03 0.  1.
         12    1    3    3    0    0  0.85796530378E+01  0.24862002229E+02  0.29549062799E+02  0.39558522639E+02  0.00000000000E+00 0. -1.
</event>
<event>
 7    1  0.2656097E-013  0.7246157E+02  0.7816164E-02  0.1226708E+00
        -11   -1    0    0    0    0  0.00000000000E+00  0.00000000000E+00  0.45593999997E+02  0.45594000000E+02  0.51100000000E-03 0. -1.
         11   -1    0    0    0    0 -0.00000000000E+00 -0.00000000000E+00 -0.45593999997E+02  0.45594000000E+02  0.51100000000E-03 0.  1.
    9900012    2    1    2    0    0 -0.15827761312E+02  0.76258706581E+01  0.64813009312E+01  0.72461569662E+02  0.69999999177E+02 0.  0.
        -12    1    1    2    0    0  0.15827761312E+02 -0.76258706581E+01 -0.64813009312E+01  0.18726430338E+02  0.00000000000E+00 0.  1.
         11    1    3    3    0    0 -0.17845912149E+02  0.31635924559E+02 -0.10201882058E+02  0.37727797457E+02  0.51100000000E-03 0. -1.
        -11    1    3    3    0    0 -0.17853212260E+01  0.72008384414E+00 -0.25356801374E+01  0.31836404701E+01  0.51100000000E-03 0.  1.
        -12    1    3    3    0    0  0.38034720636E+01 -0.24730137745E+02  0.19218863127E+02  0.31550131735E+02  0.00000000000E+00 0.  1.
</event>
<event>
 7    1  0.2656097E-013  0.7246159E+02  0.7816164E-02  0.1226708E+00
        -11   -1    0    0    0    0  0.00000000000E+00  0.00000000000E+00  0.45593999997E+02  0.45594000000E+02  0.51100000000E-03 0.  1.
         11   -1    0    0    0    0 -0.00000000000E+00 -0.00000000000E+00 -0.45593999997E+02  0.45594000000E+02  0.51100000000E-03 0. -1.
    9900012    2    1    2    0    0 -0.17229619602E+02  0.70097348861E+01 -0.21638842640E+01  0.72461586305E+02  0.70000020856E+02 0.  0.
        -12    1    1    2    0    0  0.17229619602E+02 -0.70097348861E+01  0.21638842640E+01  0.18726413695E+02  0.00000000000E+00 0.  1.
         11    1    3    3    0    0 -0.20198025831E+01 -0.21464150594E+01 -0.42743819938E+01  0.51920171198E+01  0.51100000000E-03 0. -1.
        -11    1    3    3    0    0 -0.42903918096E+01 -0.19630960340E+02 -0.20778140941E+02  0.28905245319E+02  0.51100000000E-03 0.  1.
         12    1    3    3    0    0 -0.10919425209E+02  0.28787110285E+02  0.22888638670E+02  0.38364323866E+02  0.00000000000E+00 0. -1.
</event>
<event>
 7    1  0.2656097E-013  0.7246097E+02  0.7816164E-02  0.1226710E+00
        -11   -1    0    0    0    0  0.00000000000E+00  0.00000000000E+00  0.45593999997E+02  0.45594000000E+02  0.51100000000E-03 0.  1.
         11   -1    0    0    0    0 -0.00000000000E+00 -0.00000000000E+00 -0.45593999997E+02  0.45594000000E+02  0.51100000000E-03 0. -1.
    9900012    2    1    2    0    0  0.11243406527E+02  0.57622354718E+01 -0.13823323267E+02  0.72460965689E+02  0.69999212384E+02 0.  0.
        -12    1    1    2    0    0 -0.11243406527E+02 -0.57622354718E+01  0.13823323267E+02  0.18727034311E+02  0.00000000000E+00 0.  1.
         11    1    3    3    0    0 -0.15907642817E+02 -0.99023947965E+01 -0.88239457526E+01  0.20711652315E+02  0.51100000000E-03 0. -1.
        -11    1    3    3    0    0 -0.55660123230E+01  0.15616719232E+01 -0.13876737082E+02  0.15032735768E+02  0.51100000000E-03 0.  1.
         12    1    3    3    0    0  0.32717061667E+02  0.14102958345E+02  0.88773595676E+01  0.36716577606E+02  0.00000000000E+00 0. -1.
</event>
<event>
 7    1  0.2656097E-013  0.7246163E+02  0.7816164E-02  0.1226708E+00
        -11   -1    0    0    0    0  0.00000000000E+00  0.00000000000E+00  0.45593999997E+02  0.45594000000E+02  0.51100000000E-03 0. -1.
         11   -1    0    0    0    0 -0.00000000000E+00 -0.00000000000E+00 -0.45593999997E+02  0.45594000000E+02  0.51100000000E-03 0.  1.
    9900012    2    1    2    0    0  0.11259779405E+02  0.24075203327E+01  0.14768151915E+02  0.72461625621E+02  0.70000072074E+02 0.  0.
        -12    1    1    2    0    0 -0.11259779405E+02 -0.24075203327E+01 -0.14768151915E+02  0.18726374379E+02  0.00000000000E+00 0.  1.
         11    1    3    3    0    0 -0.16234757971E+02  0.32141239980E+00  0.54785831141E+01  0.17137256067E+02  0.51100000000E-03 0. -1.
        -11    1    3    3    0    0 -0.54219844747E+01  0.12732499402E+02  0.14834547113E+02  0.20287391281E+02  0.51100000000E-03 0.  1.
         12    1    3    3    0    0  0.32916521851E+02 -0.10646391469E+02 -0.55449783127E+01  0.35036978274E+02  0.00000000000E+00 0. -1.
</event>
<event>
 7    1  0.2656097E-013  0.7246157E+02  0.7816164E-02  0.1226708E+00
        -11   -1    0    0    0    0  0.00000000000E+00  0.00000000000E+00  0.45593999997E+02  0.45594000000E+02  0.51100000000E-03 0.  1.
         11   -1    0    0    0    0 -0.00000000000E+00 -0.00000000000E+00 -0.45593999997E+02  0.45594000000E+02  0.51100000000E-03 0. -1.
    9900012    2    1    2    0    0 -0.15721144700E+02  0.13931988013E+01 -0.10078874336E+02  0.72461572111E+02  0.70000002367E+02 0.  0.
        -12    1    1    2    0    0  0.15721144700E+02 -0.13931988013E+01  0.10078874336E+02  0.18726427889E+02  0.00000000000E+00 0.  1.
         11    1    3    3    0    0  0.40990866004E+01 -0.15087360305E+01 -0.25039658600E+02  0.25417775246E+02  0.51100000000E-03 0. -1.
        -11    1    3    3    0    0 -0.19644834517E+02  0.55808218000E+01 -0.94381307207E+01  0.22497631140E+02  0.51100000000E-03 0.  1.
        -12    1    3    3    0    0 -0.17539678397E+00 -0.26788869681E+01  0.24398914984E+02  0.24546165726E+02  0.00000000000E+00 0.  1.
</event>
<event>
 7    1  0.2656097E-013  0.7246157E+02  0.7816164E-02  0.1226708E+00
        -11   -1    0    0    0    0  0.00000000000E+00  0.00000000000E+00  0.45593999997E+02  0.45594000000E+02  0.51100000000E-03 0. -1.
         11   -1    0    0    0    0 -0.00000000000E+00 -0.00000000000E+00 -0.45593999997E+02  0.45594000000E+02  0.51100000000E-03 0.  1.
    9900012    2    1    2    0    0 -0.10534243846E+02 -0.12426722165E+02  0.92350125563E+01  0.72461570173E+02  0.69999999841E+02 0.  0.
        -12    1    1    2    0    0  0.10534243846E+02  0.12426722165E+02 -0.92350125563E+01  0.18726429827E+02  0.00000000000E+00 0.  1.
         11    1    3    3    0    0 -0.19016155761E+01 -0.64758379784E+01  0.76721118962E+01  0.10218312998E+02  0.51100000000E-03 0. -1.
        -11    1    3    3    0    0 -0.10780944279E+02 -0.30791316199E+02  0.12604796180E+02  0.34974487842E+02  0.51100000000E-03 0.  1.
        -12    1    3    3    0    0  0.21483160097E+01  0.24840432012E+02 -0.11041895520E+02  0.27268769332E+02  0.00000000000E+00 0.  1.
</event>
<event>
 7    1  0.2656097E-013  0.7246155E+02  0.7816164E-02  0.1226708E+00
        -11   -1    0    0    0    0  0.00000000000E+00  0.00000000000E+00  0.45593999997E+02  0.45594000000E+02  0.51100000000E-03 0.  1.
         11   -1    0    0    0    0 -0.00000000000E+00 -0.00000000000E+00 -0.45593999997E+02  0.45594000000E+02  0.51100000000E-03 0. -1.
    9900012    2    1    2    0    0 -0.82943054189E+01  0.34353582718E+01 -0.16434197131E+02  0.72461547475E+02  0.69999970274E+02 0.  0.
        -12    1    1    2    0    0  0.82943054189E+01 -0.34353582718E+01  0.16434197131E+02  0.18726452525E+02  0.00000000000E+00 0.  1.
         11    1    3    3    0    0 -0.22234825245E+02  0.15027399128E+02  0.19991878543E+01  0.26911093076E+02  0.51100000000E-03 0. -1.
        -11    1    3    3    0    0  0.11844234191E+02  0.78781181689E+01  0.49395676677E+01  0.15058218967E+02  0.51100000000E-03 0.  1.
        -12    1    3    3    0    0  0.20962856357E+01 -0.19470159025E+02 -0.23372952653E+02  0.30492235432E+02  0.00000000000E+00 0.  1.
</event>
<event>
 7    1  0.2656097E-013  0.7246159E+02  0.7816164E-02  0.1226708E+00
        -11   -1    0    0    0    0  0.00000000000E+00  0.00000000000E+00  0.45593999997E+02  0.45594000000E+02  0.51100000000E-03 0.  1.
         11   -1    0    0    0    0 -0.00000000000E+00 -0.00000000000E+00 -0.45593999997E+02  0.45594000000E+02  0.51100000000E-03 0. -1.
    9900012    2    1    2    0    0  0.27456088729E+01  0.13410462344E+02 -0.12778877099E+02  0.72461586348E+02  0.70000020912E+02 0.  0.
        -12    1    1    2    0    0 -0.27456088729E+01 -0.13410462344E+02  0.12778877099E+02  0.18726413652E+02  0.00000000000E+00 0.  1.
         11    1    3    3    0    0 -0.60856613941E+01  0.35653916554E+01 -0.29637235027E+02  0.30464946949E+02  0.51100000000E-03 0. -1.
        -11    1    3    3    0    0 -0.13106372176E+02  0.15899533939E+01  0.13538906575E+00  0.13203153936E+02  0.51100000000E-03 0.  1.
        -12    1    3    3    0    0  0.21937642443E+02  0.82551172948E+01  0.16722968863E+02  0.28793485462E+02  0.00000000000E+00 0.  1.
</event>
<event>
 7    1  0.2656097E-013  0.7246159E+02  0.7816164E-02  0.1226708E+00
        -11   -1    0    0    0    0  0.00000000000E+00  0.00000000000E+00  0.45593999997E+02  0.45594000000E+02  0.51100000000E-03 0.  1.
         11   -1    0    0    0    0 -0.00000000000E+00 -0.00000000000E+00 -0.45593999997E+02  0.45594000000E+02  0.51100000000E-03 0. -1.
    9900012    2    1    2    0    0  0.23358407689E+01  0.18218683056E+02  0.36471960161E+01  0.72461585416E+02  0.70000019698E+02 0.  0.
        -12    1    1    2    0    0 -0.23358407689E+01 -0.18218683056E+02 -0.36471960161E+01  0.18726414584E+02  0.00000000000E+00 0.  1.
         11    1    3    3    0    0  0.15907755591E+02  0.34127490389E+02 -0.67898755497E+01  0.38260223450E+02  0.51100000000E-03 0. -1.
        -11    1    3    3    0    0  0.11645218520E+01  0.89313815221E+00 -0.61799930932E+01  0.63518597116E+01  0.51100000000E-03 0.  1.
        -12    1    3    3    0    0 -0.14736436675E+02 -0.16801945484E+02  0.16617064659E+02  0.27849502254E+02  0.00000000000E+00 0.  1.
</event>
<event>
 7    1  0.2656097E-013  0.7246083E+02  0.7816164E-02  0.1226710E+00
        -11   -1    0    0    0    0  0.00000000000E+00  0.00000000000E+00  0.45593999997E+02  0.45594000000E+02  0.51100000000E-03 0. -1.
         11   -1    0    0    0    0 -0.00000000000E+00 -0.00000000000E+00 -0.45593999997E+02  0.45594000000E+02  0.51100000000E-03 0.  1.
    9900012    2    1    2    0    0  0.64217775399E+01 -0.17358619354E+02  0.28541501290E+01  0.72460825477E+02  0.69999029730E+02 0.  0.
        -12    1    1    2    0    0 -0.64217775399E+01  0.17358619354E+02 -0.28541501290E+01  0.18727174523E+02  0.00000000000E+00 0.  1.
         11    1    3    3    0    0  0.53858817922E+01  0.70854722664E+00 -0.11592424896E+01  0.55546021696E+01  0.51100000000E-03 0. -1.
        -11    1    3    3    0    0 -0.93956704547E+01  0.19074042379E+02 -0.12805627435E+02  0.24820995352E+02  0.51100000000E-03 0.  1.
         12    1    3    3    0    0  0.10431566202E+02 -0.37141208961E+02  0.16819020054E+02  0.42085227955E+02  0.00000000000E+00 0. -1.
</event>
<event>
 7    1  0.2656097E-013  0.7246158E+02  0.7816164E-02  0.1226708E+00
        -11   -1    0    0    0    0  0.00000000000E+00  0.00000000000E+00  0.45593999997E+02  0.45594000000E+02  0.51100000000E-03 0.  1.
         11   -1    0    0    0    0 -0.00000000000E+00 -0.00000000000E+00 -0.45593999997E+02  0.45594000000E+02  0.51100000000E-03 0. -1.
    9900012    2    1    2    0    0 -0.98089593813E+01  0.11050954800E+02 -0.11503884176E+02  0.72461584506E+02  0.70000018513E+02 0.  0.
        -12    1    1    2    0    0  0.98089593813E+01 -0.11050954800E+02  0.11503884176E+02  0.18726415494E+02  0.00000000000E+00 0.  1.
         11    1    3    3    0    0 -0.54038138631E+00  0.65238470297E+01  0.15454433074E+01  0.67261420879E+01  0.51100000000E-03 0. -1.
        -11    1    3    3    0    0 -0.12710349547E+02  0.31287998021E+02  0.37075627428E+01  0.33974075815E+02  0.51100000000E-03 0.  1.
         12    1    3    3    0    0  0.34417715517E+01 -0.26760890251E+02 -0.16756890226E+02  0.31761366602E+02  0.00000000000E+00 0. -1.
</event>
<event>
 7    1  0.2656097E-013  0.7246160E+02  0.7816164E-02  0.1226708E+00
        -11   -1    0    0    0    0  0.00000000000E+00  0.00000000000E+00  0.45593999997E+02  0.45594000000E+02  0.51100000000E-03 0. -1.
         11   -1    0    0    0    0 -0.00000000000E+00 -0.00000000000E+00 -0.45593999997E+02  0.45594000000E+02  0.51100000000E-03 0.  1.
    9900012    2    1    2    0    0  0.12995966257E+01  0.63623999419E+01  0.17564422157E+02  0.72461601251E+02  0.70000040327E+02 0.  0.
        -12    1    1    2    0    0 -0.12995966257E+01 -0.63623999419E+01 -0.17564422157E+02  0.18726398749E+02  0.00000000000E+00 0.  1.
         11    1    3    3    0    0 -0.83895034773E+00 -0.24937431633E+02  0.31314759808E+01  0.25147275722E+02  0.51100000000E-03 0. -1.
        -11    1    3    3    0    0 -0.63662001618E+01  0.77322522405E+00 -0.66611080108E+01  0.92464448271E+01  0.51100000000E-03 0.  1.
        -12    1    3    3    0    0  0.85047471352E+01  0.30526606351E+02  0.21094054187E+02  0.38067880702E+02  0.00000000000E+00 0.  1.
</event>
<event>
 7    1  0.2656097E-013  0.7246163E+02  0.7816164E-02  0.1226708E+00
        -11   -1    0    0    0    0  0.00000000000E+00  0.00000000000E+00  0.45593999997E+02  0.45594000000E+02  0.51100000000E-03 0. -1.
         11   -1    0    0    0    0 -0.00000000000E+00 -0.00000000000E+00 -0.45593999997E+02  0.45594000000E+02  0.51100000000E-03 0.  1.
    9900012    2    1    2    0    0 -0.13283962979E+02  0.97718577526E+01  0.88726506776E+01  0.72461633390E+02  0.70000082194E+02 0.  0.
        -12    1    1    2    0    0  0.13283962979E+02 -0.97718577526E+01 -0.88726506776E+01  0.18726366610E+02  0.00000000000E+00 0.  1.
         11    1    3    3    0    0  0.50929978553E+01  0.37414481141E+01 -0.41733135884E+00  0.63333424721E+01  0.51100000000E-03 0. -1.
        -11    1    3    3    0    0  0.18139746844E+02  0.18497207593E+02  0.93471959270E+01  0.27542098254E+02  0.51100000000E-03 0.  1.
         12    1    3    3    0    0 -0.36516707678E+02 -0.12466797954E+02 -0.57213890560E-01  0.38586192664E+02  0.00000000000E+00 0. -1.
</event>
<event>
 7    1  0.2656097E-013  0.7246156E+02  0.7816164E-02  0.1226708E+00
        -11   -1    0    0    0    0  0.00000000000E+00  0.00000000000E+00  0.45593999997E+02  0.45594000000E+02  0.51100000000E-03 0.  1.
         11   -1    0    0    0    0 -0.00000000000E+00 -0.00000000000E+00 -0.45593999997E+02  0.45594000000E+02  0.51100000000E-03 0. -1.
    9900012    2    1    2    0    0  0.30723383679E+01  0.14466721127E+02 -0.11487130193E+02  0.72461562985E+02  0.69999990478E+02 0.  0.
        -12    1    1    2    0    0 -0.30723383679E+01 -0.14466721127E+02  0.11487130193E+02  0.18726437015E+02  0.00000000000E+00 0.  1.
         11    1    3    3    0    0  0.65093483581E+01 -0.20479240908E+02 -0.72981049674E+01  0.22694344242E+02  0.51100000000E-03 0. -1.
        -11    1    3    3    0    0  0.71947464934E+01  0.89439015072E+01 -0.15666294324E+02  0.19421393600E+02  0.51100000000E-03 0.  1.
         12    1    3    3    0    0 -0.10631756484E+02  0.26002060528E+02  0.11477269098E+02  0.30345825142E+02  0.00000000000E+00 0. -1.
</event>
<event>
 7    1  0.2656097E-013  0.7246167E+02  0.7816164E-02  0.1226708E+00
        -11   -1    0    0    0    0  0.00000000000E+00  0.00000000000E+00  0.45593999997E+02  0.45594000000E+02  0.51100000000E-03 0.  1.
         11   -1    0    0    0    0 -0.00000000000E+00 -0.00000000000E+00 -0.45593999997E+02  0.45594000000E+02  0.51100000000E-03 0. -1.
    9900012    2    1    2    0    0 -0.11191415911E+02 -0.94067093488E+01 -0.11702200999E+02  0.72461668830E+02  0.70000128361E+02 0.  0.
        -12    1    1    2    0    0  0.11191415911E+02  0.94067093488E+01  0.11702200999E+02  0.18726331170E+02  0.00000000000E+00 0.  1.
         11    1    3    3    0    0 -0.43603677880E+01 -0.15679488380E+02  0.33626043659E+01  0.16618251156E+02  0.51100000000E-03 0. -1.
        -11    1    3    3    0    0 -0.12744528220E+02  0.70747177902E+01  0.17477627459E+02  0.22758341179E+02  0.51100000000E-03 0.  1.
         12    1    3    3    0    0  0.59134800968E+01 -0.80193875931E+00 -0.32542432824E+02  0.33085076496E+02  0.00000000000E+00 0. -1.
</event>
<event>
 7    1  0.2656097E-013  0.7246157E+02  0.7816164E-02  0.1226708E+00
        -11   -1    0    0    0    0  0.00000000000E+00  0.00000000000E+00  0.45593999997E+02  0.45594000000E+02  0.51100000000E-03 0.  1.
         11   -1    0    0    0    0 -0.00000000000E+00 -0.00000000000E+00 -0.45593999997E+02  0.45594000000E+02  0.51100000000E-03 0. -1.
    9900012    2    1    2    0    0  0.74629665258E+01 -0.27702450222E+01 -0.16950193032E+02  0.72461570264E+02  0.69999999960E+02 0.  0.
        -12    1    1    2    0    0 -0.74629665258E+01  0.27702450222E+01  0.16950193032E+02  0.18726429736E+02  0.00000000000E+00 0.  1.
         11    1    3    3    0    0 -0.24272546076E+01 -0.72503465139E+01 -0.84996049362E+01  0.11432513890E+02  0.51100000000E-03 0. -1.
        -11    1    3    3    0    0 -0.22481372054E+02  0.13358061138E+02 -0.83854336044E+01  0.27462071731E+02  0.51100000000E-03 0.  1.
        -12    1    3    3    0    0  0.32371593187E+02 -0.88779596460E+01 -0.65154491060E-01  0.33566984643E+02  0.00000000000E+00 0.  1.
</event>
<event>
 7    1  0.2656097E-013  0.7246158E+02  0.7816164E-02  0.1226708E+00
        -11   -1    0    0    0    0  0.00000000000E+00  0.00000000000E+00  0.45593999997E+02  0.45594000000E+02  0.51100000000E-03 0. -1.
         11   -1    0    0    0    0 -0.00000000000E+00 -0.00000000000E+00 -0.45593999997E+02  0.45594000000E+02  0.51100000000E-03 0.  1.
    9900012    2    1    2    0    0  0.10678809226E+02  0.98529726211E+01 -0.11813585958E+02  0.72461578849E+02  0.70000011143E+02 0.  0.
        -12    1    1    2    0    0 -0.10678809226E+02 -0.98529726211E+01  0.11813585958E+02  0.18726421151E+02  0.00000000000E+00 0.  1.
         11    1    3    3    0    0  0.21250636538E+02  0.18332721792E+02  0.10724056288E+02  0.30044693793E+02  0.51100000000E-03 0. -1.
        -11    1    3    3    0    0  0.48651228044E+01  0.26515803246E+01  0.59669210054E+01  0.81427541204E+01  0.51100000000E-03 0.  1.
        -12    1    3    3    0    0 -0.15436950116E+02 -0.11131329496E+02 -0.28504563251E+02  0.34274130935E+02  0.00000000000E+00 0.  1.
</event>
<event>
 7    1  0.2656097E-013  0.7246160E+02  0.7816164E-02  0.1226708E+00
        -11   -1    0    0    0    0  0.00000000000E+00  0.00000000000E+00  0.45593999997E+02  0.45594000000E+02  0.51100000000E-03 0.  1.
         11   -1    0    0    0    0 -0.00000000000E+00 -0.00000000000E+00 -0.45593999997E+02  0.45594000000E+02  0.51100000000E-03 0. -1.
    9900012    2    1    2    0    0 -0.17794965933E+02 -0.24622203133E+01 -0.52872318436E+01  0.72461597195E+02  0.70000035043E+02 0.  0.
        -12    1    1    2    0    0  0.17794965933E+02  0.24622203133E+01  0.52872318436E+01  0.18726402805E+02  0.00000000000E+00 0.  1.
         11    1    3    3    0    0  0.73029822330E+01  0.78966706952E+01 -0.16527411805E+02  0.19719186058E+02  0.51100000000E-03 0. -1.
        -11    1    3    3    0    0 -0.18200201598E+02  0.87196328082E+01  0.21937010056E+02  0.29807914133E+02  0.51100000000E-03 0.  1.
         12    1    3    3    0    0 -0.68977465682E+01 -0.19078523817E+02 -0.10696830095E+02  0.22934497004E+02  0.00000000000E+00 0. -1.
</event>
<event>
 7    1  0.2656097E-013  0.7246153E+02  0.7816164E-02  0.1226708E+00
        -11   -1    0    0    0    0  0.00000000000E+00  0.00000000000E+00  0.45593999997E+02  0.45594000000E+02  0.51100000000E-03 0.  1.
         11   -1    0    0    0    0 -0.00000000000E+00 -0.00000000000E+00 -0.45593999997E+02  0.45594000000E+02  0.51100000000E-03 0. -1.
    9900012    2    1    2    0    0  0.93314951301E+01  0.50617285293E+01 -0.15426693315E+02  0.72461527730E+02  0.69999944551E+02 0.  0.
        -12    1    1    2    0    0 -0.93314951301E+01 -0.50617285293E+01  0.15426693315E+02  0.18726472270E+02  0.00000000000E+00 0.  1.
         11    1    3    3    0    0  0.16008472780E+02 -0.20721137763E+01 -0.20065976983E+02  0.25752830694E+02  0.51100000000E-03 0. -1.
        -11    1    3    3    0    0 -0.12895753756E+02 -0.15922140912E+02 -0.47776956703E+01  0.21039044948E+02  0.51100000000E-03 0.  1.
        -12    1    3    3    0    0  0.62187761056E+01  0.23055983218E+02  0.94169793380E+01  0.25669652087E+02  0.00000000000E+00 0.  1.
</event>
<event>
 7    1  0.2656097E-013  0.7246158E+02  0.7816164E-02  0.1226708E+00
        -11   -1    0    0    0    0  0.00000000000E+00  0.00000000000E+00  0.45593999997E+02  0.45594000000E+02  0.51100000000E-03 0. -1.
         11   -1    0    0    0    0 -0.00000000000E+00 -0.00000000000E+00 -0.45593999997E+02  0.45594000000E+02  0.51100000000E-03 0.  1.
    9900012    2    1    2    0    0 -0.12239485419E+02 -0.13711307655E+02 -0.35879890738E+01  0.72461584792E+02  0.70000018886E+02 0.  0.
        -12    1    1    2    0    0  0.12239485419E+02  0.13711307655E+02  0.35879890738E+01  0.18726415208E+02  0.00000000000E+00 0.  1.
         11    1    3    3    0    0 -0.29262892107E+01  0.13802590524E+02 -0.16387447522E+02  0.21624595031E+02  0.51100000000E-03 0. -1.
        -11    1    3    3    0    0  0.14732049697E+01  0.32570956049E+01 -0.10283242113E+02  0.10886876194E+02  0.51100000000E-03 0.  1.
         12    1    3    3    0    0 -0.10786401178E+02 -0.30770993783E+02  0.23082700561E+02  0.39950113567E+02  0.00000000000E+00 0. -1.
</event>
<event>
 7    1  0.2656097E-013  0.7246154E+02  0.7816164E-02  0.1226708E+00
        -11   -1    0    0    0    0  0.00000000000E+00  0.00000000000E+00  0.45593999997E+02  0.45594000000E+02  0.51100000000E-03 0. -1.
         11   -1    0    0    0    0 -0.00000000000E+00 -0.00000000000E+00 -0.45593999997E+02  0.45594000000E+02  0.51100000000E-03 0.  1.
    9900012    2    1    2    0    0  0.23901921428E+01  0.17729820490E+02  0.55335901385E+01  0.72461543503E+02  0.69999965100E+02 0.  0.
        -12    1    1    2    0    0 -0.23901921428E+01 -0.17729820490E+02 -0.55335901385E+01  0.18726456497E+02  0.00000000000E+00 0.  1.
         11    1    3    3    0    0  0.66116483742E+01  0.10014952755E+02  0.18442988032E+02  0.22003567455E+02  0.51100000000E-03 0. -1.
        -11    1    3    3    0    0  0.19445159050E+01  0.56556862638E+01  0.17950619752E+02  0.18920694463E+02  0.51100000000E-03 0.  1.
        -12    1    3    3    0    0 -0.61659721364E+01  0.20591814715E+01 -0.30860017646E+02  0.31537281586E+02  0.00000000000E+00 0.  1.
</event>
<event>
 7    1  0.2656097E-013  0.7246159E+02  0.7816164E-02  0.1226708E+00
        -11   -1    0    0    0    0  0.00000000000E+00  0.00000000000E+00  0.45593999997E+02  0.45594000000E+02  0.51100000000E-03 0. -1.
         11   -1    0    0    0    0 -0.00000000000E+00 -0.00000000000E+00 -0.45593999997E+02  0.45594000000E+02  0.51100000000E-03 0.  1.
    9900012    2    1    2    0    0  0.99318976379E+01  0.15689206000E+02 -0.24258065750E+01  0.72461593160E+02  0.70000029787E+02 0.  0.
        -12    1    1    2    0    0 -0.99318976379E+01 -0.15689206000E+02  0.24258065750E+01  0.18726406840E+02  0.00000000000E+00 0.  1.
         11    1    3    3    0    0  0.61984868782E+01  0.18755677111E+02 -0.15442524250E+02  0.25073257048E+02  0.51100000000E-03 0. -1.
        -11    1    3    3    0    0 -0.19455359275E+02 -0.70430416412E+01  0.40701900188E+00  0.20694953608E+02  0.51100000000E-03 0.  1.
         12    1    3    3    0    0  0.23188770035E+02  0.39765705295E+01  0.12609698674E+02  0.26693382505E+02  0.00000000000E+00 0. -1.
</event>
<event>
 7    1  0.2656097E-013  0.7246157E+02  0.7816164E-02  0.1226708E+00
        -11   -1    0    0    0    0  0.00000000000E+00  0.00000000000E+00  0.45593999997E+02  0.45594000000E+02  0.51100000000E-03 0.  1.
         11   -1    0    0    0    0 -0.00000000000E+00 -0.00000000000E+00 -0.45593999997E+02  0.45594000000E+02  0.51100000000E-03 0. -1.
    9900012    2    1    2    0    0  0.97270925352E+01 -0.15799385355E+02  0.25381667740E+01  0.72461569551E+02  0.69999999032E+02 0.  0.
        -12    1    1    2    0    0 -0.97270925352E+01  0.15799385355E+02 -0.25381667740E+01  0.18726430449E+02  0.00000000000E+00 0.  1.
         11    1    3    3    0    0  0.22328261672E+02 -0.20975760360E+02 -0.94665728515E+01  0.32064774968E+02  0.51100000000E-03 0. -1.
        -11    1    3    3    0    0  0.38276751033E+01 -0.13282001193E+02  0.51764335040E+01  0.14760017496E+02  0.51100000000E-03 0.  1.
        -12    1    3    3    0    0 -0.16428844240E+02  0.18458376197E+02  0.68283061214E+01  0.25636777087E+02  0.00000000000E+00 0.  1.
</event>
<event>
 7    1  0.2656097E-013  0.7246156E+02  0.7816164E-02  0.1226708E+00
        -11   -1    0    0    0    0  0.00000000000E+00  0.00000000000E+00  0.45593999997E+02  0.45594000000E+02  0.51100000000E-03 0.  1.
         11   -1    0    0    0    0 -0.00000000000E+00 -0.00000000000E+00 -0.45593999997E+02  0.45594000000E+02  0.51100000000E-03 0. -1.
    9900012    2    1    2    0    0  0.59725503872E+01 -0.15990051447E+02  0.77023626167E+01  0.72461561650E+02  0.69999988739E+02 0.  0.
        -12    1    1    2    0    0 -0.59725503872E+01  0.15990051447E+02 -0.77023626167E+01  0.18726438350E+02  0.00000000000E+00 0.  1.
         11    1    3    3    0    0  0.15947199561E+01 -0.31308988877E+02 -0.15023354086E+02  0.34763444658E+02  0.51100000000E-03 0. -1.
        -11    1    3    3    0    0  0.95352921504E+00 -0.44029314972E+01  0.15936716615E+02  0.16561218568E+02  0.51100000000E-03 0.  1.
        -12    1    3    3    0    0  0.34243012161E+01  0.19721868927E+02  0.67890000883E+01  0.21136898424E+02  0.00000000000E+00 0.  1.
</event>
<event>
 7    1  0.2656097E-013  0.7246178E+02  0.7816164E-02  0.1226707E+00
        -11   -1    0    0    0    0  0.00000000000E+00  0.00000000000E+00  0.45593999997E+02  0.45594000000E+02  0.51100000000E-03 0.  1.
         11   -1    0    0    0    0 -0.00000000000E+00 -0.00000000000E+00 -0.45593999997E+02  0.45594000000E+02  0.51100000000E-03 0. -1.
    9900012    2    1    2    0    0  0.13314328858E+02  0.18705109986E+00 -0.13166817849E+02  0.72461776853E+02  0.70000269081E+02 0.  0.
        -12    1    1    2    0    0 -0.13314328858E+02 -0.18705109986E+00  0.13166817849E+02  0.18726223147E+02  0.00000000000E+00 0.  1.
         11    1    3    3    0    0 -0.30575799243E-01 -0.40901412267E+01  0.18726401784E+01  0.44985521707E+01  0.51100000000E-03 0. -1.
        -11    1    3    3    0    0 -0.25536506749E+01 -0.28863945126E+02 -0.23280781010E+01  0.29070060335E+02  0.51100000000E-03 0.  1.
         12    1    3    3    0    0  0.15898555333E+02  0.33141137452E+02 -0.12711379927E+02  0.38893164347E+02  0.00000000000E+00 0. -1.
</event>
<event>
 7    1  0.2656097E-013  0.7246165E+02  0.7816164E-02  0.1226708E+00
        -11   -1    0    0    0    0  0.00000000000E+00  0.00000000000E+00  0.45593999997E+02  0.45594000000E+02  0.51100000000E-03 0. -1.
         11   -1    0    0    0    0 -0.00000000000E+00 -0.00000000000E+00 -0.45593999997E+02  0.45594000000E+02  0.51100000000E-03 0.  1.
    9900012    2    1    2    0    0 -0.53286000717E+01 -0.17657717642E+02  0.32384227939E+01  0.72461645490E+02  0.70000097956E+02 0.  0.
        -12    1    1    2    0    0  0.53286000717E+01  0.17657717642E+02 -0.32384227939E+01  0.18726354510E+02  0.00000000000E+00 0.  1.
         11    1    3    3    0    0 -0.13401272044E+02  0.13340163455E+02  0.15009767036E+02  0.24142227738E+02  0.51100000000E-03 0. -1.
        -11    1    3    3    0    0 -0.36119450739E+01  0.50631333963E+01  0.38558884345E+01  0.73177416521E+01  0.51100000000E-03 0.  1.
        -12    1    3    3    0    0  0.11684617046E+02 -0.36061014494E+02 -0.15627232677E+02  0.41001676100E+02  0.00000000000E+00 0.  1.
</event>
<event>
 7    1  0.2656097E-013  0.7246160E+02  0.7816164E-02  0.1226708E+00
        -11   -1    0    0    0    0  0.00000000000E+00  0.00000000000E+00  0.45593999997E+02  0.45594000000E+02  0.51100000000E-03 0. -1.
         11   -1    0    0    0    0 -0.00000000000E+00 -0.00000000000E+00 -0.45593999997E+02  0.45594000000E+02  0.51100000000E-03 0.  1.
    9900012    2    1    2    0    0 -0.69993382921E+00 -0.10204117070E+01  0.18685468966E+02  0.72461604247E+02  0.70000044230E+02 0.  0.
        -12    1    1    2    0    0  0.69993382921E+00  0.10204117070E+01 -0.18685468966E+02  0.18726395753E+02  0.00000000000E+00 0.  1.
         11    1    3    3    0    0 -0.20251325801E+01  0.10530821498E+02  0.14880007361E+02  0.18341591608E+02  0.51100000000E-03 0. -1.
        -11    1    3    3    0    0  0.35168833243E+01  0.25442267740E+00  0.27410587473E+02  0.27636452469E+02  0.51100000000E-03 0.  1.
        -12    1    3    3    0    0 -0.21916845734E+01 -0.11805655882E+02 -0.23605125867E+02  0.26483560170E+02  0.00000000000E+00 0.  1.
</event>
<event>
 7    1  0.2656097E-013  0.7246180E+02  0.7816164E-02  0.1226707E+00
        -11   -1    0    0    0    0  0.00000000000E+00  0.00000000000E+00  0.45593999997E+02  0.45594000000E+02  0.51100000000E-03 0. -1.
         11   -1    0    0    0    0 -0.00000000000E+00 -0.00000000000E+00 -0.45593999997E+02  0.45594000000E+02  0.51100000000E-03 0.  1.
    9900012    2    1    2    0    0  0.92583236770E+01 -0.12144072537E+02  0.10838618715E+02  0.72461796147E+02  0.70000294214E+02 0.  0.
        -12    1    1    2    0    0 -0.92583236770E+01  0.12144072537E+02 -0.10838618715E+02  0.18726203853E+02  0.00000000000E+00 0.  1.
         11    1    3    3    0    0 -0.66767969170E+01 -0.34411156343E+02  0.17863450720E+02  0.39342218669E+02  0.51100000000E-03 0. -1.
        -11    1    3    3    0    0 -0.50792233826E+00 -0.17072020955E+01  0.20014553440E+01  0.26792438955E+01  0.51100000000E-03 0.  1.
        -12    1    3    3    0    0  0.16443042932E+02  0.23974285901E+02 -0.90262873494E+01  0.30440333583E+02  0.00000000000E+00 0.  1.
</event>
<event>
 7    1  0.2656097E-013  0.7246156E+02  0.7816164E-02  0.1226708E+00
        -11   -1    0    0    0    0  0.00000000000E+00  0.00000000000E+00  0.45593999997E+02  0.45594000000E+02  0.51100000000E-03 0. -1.
         11   -1    0    0    0    0 -0.00000000000E+00 -0.00000000000E+00 -0.45593999997E+02  0.45594000000E+02  0.51100000000E-03 0.  1.
    9900012    2    1    2    0    0 -0.41751138580E+01 -0.15017695934E+02  0.10378678371E+02  0.72461555286E+02  0.69999980449E+02 0.  0.
        -12    1    1    2    0    0  0.41751138580E+01  0.15017695934E+02 -0.10378678371E+02  0.18726444714E+02  0.00000000000E+00 0.  1.
         11    1    3    3    0    0 -0.59488094312E+00 -0.88894915521E+01 -0.75960493038E+01  0.11707984826E+02  0.51100000000E-03 0. -1.
        -11    1    3    3    0    0  0.97885274900E+01 -0.29395921520E+02  0.70158654735E+01  0.31767244782E+02  0.51100000000E-03 0.  1.
         12    1    3    3    0    0 -0.13368760405E+02  0.23267717139E+02  0.10958862201E+02  0.28986325679E+02  0.00000000000E+00 0. -1.
</event>
<event>
 7    1  0.2656097E-013  0.7246167E+02  0.7816164E-02  0.1226708E+00
        -11   -1    0    0    0    0  0.00000000000E+00  0.00000000000E+00  0.45593999997E+02  0.45594000000E+02  0.51100000000E-03 0. -1.
         11   -1    0    0    0    0 -0.00000000000E+00 -0.00000000000E+00 -0.45593999997E+02  0.45594000000E+02  0.51100000000E-03 0.  1.
    9900012    2    1    2    0    0  0.15971037580E+02  0.46611205848E+01  0.85950709136E+01  0.72461672797E+02  0.70000133529E+02 0.  0.
        -12    1    1    2    0    0 -0.15971037580E+02 -0.46611205848E+01 -0.85950709136E+01  0.18726327203E+02  0.00000000000E+00 0.  1.
         11    1    3    3    0    0  0.83218631027E+01 -0.10444452866E+02 -0.41008882554E+01  0.13969870647E+02  0.51100000000E-03 0. -1.
        -11    1    3    3    0    0  0.48113148527E+01  0.23781319075E+02 -0.15542681704E+02  0.28814490146E+02  0.51100000000E-03 0.  1.
         12    1    3    3    0    0  0.28378596245E+01 -0.86757456248E+01  0.28238640873E+02  0.29677312004E+02  0.00000000000E+00 0. -1.
</event>
<event>
 7    1  0.2656097E-013  0.7246153E+02  0.7816164E-02  0.1226708E+00
        -11   -1    0    0    0    0  0.00000000000E+00  0.00000000000E+00  0.45593999997E+02  0.45594000000E+02  0.51100000000E-03 0. -1.
         11   -1    0    0    0    0 -0.00000000000E+00 -0.00000000000E+00 -0.45593999997E+02  0.45594000000E+02  0.51100000000E-03 0.  1.
    9900012    2    1    2    0    0 -0.99259659347E+01  0.61068808428E+01  0.14658164594E+02  0.72461532564E+02  0.69999950849E+02 0.  0.
        -12    1    1    2    0    0  0.99259659347E+01 -0.61068808428E+01 -0.14658164594E+02  0.18726467436E+02  0.00000000000E+00 0.  1.
         11    1    3    3    0    0 -0.86137782246E+01  0.13786605756E+02  0.13215943641E+00  0.16256849017E+02  0.51100000000E-03 0. -1.
        -11    1    3    3    0    0  0.18051392805E+02  0.14866909337E+02  0.62426140077E+00  0.23393748695E+02  0.51100000000E-03 0.  1.
        -12    1    3    3    0    0 -0.19363580515E+02 -0.22546634251E+02  0.13901743757E+02  0.32810934852E+02  0.00000000000E+00 0.  1.
</event>
<event>
 7    1  0.2656097E-013  0.7246160E+02  0.7816164E-02  0.1226708E+00
        -11   -1    0    0    0    0  0.00000000000E+00  0.00000000000E+00  0.45593999997E+02  0.45594000000E+02  0.51100000000E-03 0.  1.
         11   -1    0    0    0    0 -0.00000000000E+00 -0.00000000000E+00 -0.45593999997E+02  0.45594000000E+02  0.51100000000E-03 0. -1.
    9900012    2    1    2    0    0 -0.47195297107E+00  0.85882813588E+01 -0.16634207258E+02  0.72461597051E+02  0.70000034856E+02 0.  0.
        -12    1    1    2    0    0  0.47195297107E+00 -0.85882813588E+01  0.16634207258E+02  0.18726402949E+02  0.00000000000E+00 0.  1.
         11    1    3    3    0    0 -0.10661040603E+02  0.58139479032E+01 -0.39166728776E+02  0.41006004685E+02  0.51100000000E-03 0. -1.
        -11    1    3    3    0    0  0.47128599214E+01  0.85704842649E+01  0.28013716772E+01  0.10174081418E+02  0.51100000000E-03 0.  1.
        -12    1    3    3    0    0  0.54762277104E+01 -0.57961508092E+01  0.19731149841E+02  0.21281510947E+02  0.00000000000E+00 0.  1.
</event>
<event>
 7    1  0.2656097E-013  0.7246160E+02  0.7816164E-02  0.1226708E+00
        -11   -1    0    0    0    0  0.00000000000E+00  0.00000000000E+00  0.45593999997E+02  0.45594000000E+02  0.51100000000E-03 0.  1.
         11   -1    0    0    0    0 -0.00000000000E+00 -0.00000000000E+00 -0.45593999997E+02  0.45594000000E+02  0.51100000000E-03 0. -1.
    9900012    2    1    2    0    0  0.17134587908E+02  0.60232418924E+01  0.45611781404E+01  0.72461604413E+02  0.70000044446E+02 0.  0.
        -12    1    1    2    0    0 -0.17134587908E+02 -0.60232418924E+01 -0.45611781404E+01  0.18726395587E+02  0.00000000000E+00 0.  1.
         11    1    3    3    0    0 -0.23236736485E+02  0.80805681604E+01 -0.30608577583E+01  0.24791336284E+02  0.51100000000E-03 0. -1.
        -11    1    3    3    0    0  0.16490959534E+01 -0.64710923045E+01  0.54798354467E+01  0.86384691850E+01  0.51100000000E-03 0.  1.
        -12    1    3    3    0    0  0.38722228440E+02  0.44137660365E+01  0.21422004520E+01  0.39031798943E+02  0.00000000000E+00 0.  1.
</event>
<event>
 7    1  0.2656097E-013  0.7246159E+02  0.7816164E-02  0.1226708E+00
        -11   -1    0    0    0    0  0.00000000000E+00  0.00000000000E+00  0.45593999997E+02  0.45594000000E+02  0.51100000000E-03 0.  1.
         11   -1    0    0    0    0 -0.00000000000E+00 -0.00000000000E+00 -0.45593999997E+02  0.45594000000E+02  0.51100000000E-03 0. -1.
    9900012    2    1    2    0    0  0.12610984902E+02 -0.10075617614E+02 -0.94933448166E+01  0.72461585332E+02  0.70000019590E+02 0.  0.
        -12    1    1    2    0    0 -0.12610984902E+02  0.10075617614E+02  0.94933448166E+01  0.18726414668E+02  0.00000000000E+00 0.  1.
         11    1    3    3    0    0  0.35430481510E+02  0.10771240797E+02 -0.38377009126E+01  0.37229915348E+02  0.51100000000E-03 0. -1.
        -11    1    3    3    0    0  0.13791176511E+01  0.51572067248E+00 -0.23643375823E+01  0.27853232796E+01  0.51100000000E-03 0.  1.
        -12    1    3    3    0    0 -0.24198614259E+02 -0.21362579083E+02 -0.32913063218E+01  0.32446346704E+02  0.00000000000E+00 0.  1.
</event>
<event>
 7    1  0.2656097E-013  0.7246159E+02  0.7816164E-02  0.1226708E+00
        -11   -1    0    0    0    0  0.00000000000E+00  0.00000000000E+00  0.45593999997E+02  0.45594000000E+02  0.51100000000E-03 0.  1.
         11   -1    0    0    0    0 -0.00000000000E+00 -0.00000000000E+00 -0.45593999997E+02  0.45594000000E+02  0.51100000000E-03 0. -1.
    9900012    2    1    2    0    0 -0.47807764406E+01 -0.17509039132E+02  0.46104255315E+01  0.72461593556E+02  0.70000030303E+02 0.  0.
        -12    1    1    2    0    0  0.47807764406E+01  0.17509039132E+02 -0.46104255315E+01  0.18726406444E+02  0.00000000000E+00 0.  1.
         11    1    3    3    0    0 -0.55807686146E+01 -0.18717984885E+02 -0.66971701521E+01  0.20648487228E+02  0.51100000000E-03 0. -1.
        -11    1    3    3    0    0  0.19013411193E+02 -0.56767357405E+01 -0.10605262297E+02  0.22499038258E+02  0.51100000000E-03 0.  1.
        -12    1    3    3    0    0 -0.18213419019E+02  0.68856814932E+01  0.21912857980E+02  0.29314068071E+02  0.00000000000E+00 0.  1.
</event>
<event>
 7    1  0.2656097E-013  0.7246179E+02  0.7816164E-02  0.1226707E+00
        -11   -1    0    0    0    0  0.00000000000E+00  0.00000000000E+00  0.45593999997E+02  0.45594000000E+02  0.51100000000E-03 0. -1.
         11   -1    0    0    0    0 -0.00000000000E+00 -0.00000000000E+00 -0.45593999997E+02  0.45594000000E+02  0.51100000000E-03 0.  1.
    9900012    2    1    2    0    0  0.17532882582E+01 -0.14848762012E+02  0.11274362933E+02  0.72461788088E+02  0.70000283717E+02 0.  0.
        -12    1    1    2    0    0 -0.17532882582E+01  0.14848762012E+02 -0.11274362933E+02  0.18726211912E+02  0.00000000000E+00 0.  1.
         11    1    3    3    0    0  0.22092430184E+02 -0.15075855036E+02  0.21764763895E+01  0.26834565885E+02  0.51100000000E-03 0. -1.
        -11    1    3    3    0    0 -0.11272164974E+02 -0.17610662043E+02  0.13825108729E+02  0.25066526533E+02  0.51100000000E-03 0.  1.
        -12    1    3    3    0    0 -0.90669769518E+01  0.17837755067E+02 -0.47272221855E+01  0.20560695670E+02  0.00000000000E+00 0.  1.
</event>
<event>
 7    1  0.2656097E-013  0.7246151E+02  0.7816164E-02  0.1226708E+00
        -11   -1    0    0    0    0  0.00000000000E+00  0.00000000000E+00  0.45593999997E+02  0.45594000000E+02  0.51100000000E-03 0.  1.
         11   -1    0    0    0    0 -0.00000000000E+00 -0.00000000000E+00 -0.45593999997E+02  0.45594000000E+02  0.51100000000E-03 0. -1.
    9900012    2    1    2    0    0 -0.77494415539E+01 -0.21750257209E+01 -0.16908480359E+02  0.72461513695E+02  0.69999926269E+02 0.  0.
        -12    1    1    2    0    0  0.77494415539E+01  0.21750257209E+01  0.16908480359E+02  0.18726486305E+02  0.00000000000E+00 0.  1.
         11    1    3    3    0    0 -0.10664675494E+02  0.19525665433E+01 -0.17039032537E+02  0.20195951316E+02  0.51100000000E-03 0. -1.
        -11    1    3    3    0    0  0.28788843507E+01 -0.64843173031E+01  0.25662452831E+02  0.26625097775E+02  0.51100000000E-03 0.  1.
         12    1    3    3    0    0  0.36349588977E-01  0.23567250389E+01 -0.25531900652E+02  0.25640464604E+02  0.00000000000E+00 0. -1.
</event>
<event>
 7    1  0.2656097E-013  0.7246157E+02  0.7816164E-02  0.1226708E+00
        -11   -1    0    0    0    0  0.00000000000E+00  0.00000000000E+00  0.45593999997E+02  0.45594000000E+02  0.51100000000E-03 0.  1.
         11   -1    0    0    0    0 -0.00000000000E+00 -0.00000000000E+00 -0.45593999997E+02  0.45594000000E+02  0.51100000000E-03 0. -1.
    9900012    2    1    2    0    0  0.49266292742E+01  0.16974133587E+02 -0.61875778030E+01  0.72461574658E+02  0.70000005684E+02 0.  0.
        -12    1    1    2    0    0 -0.49266292742E+01 -0.16974133587E+02  0.61875778030E+01  0.18726425342E+02  0.00000000000E+00 0.  1.
         11    1    3    3    0    0  0.28971510469E+01 -0.57381215171E+00 -0.22984111575E+02  0.23173090638E+02  0.51100000000E-03 0. -1.
        -11    1    3    3    0    0 -0.19604704046E+01 -0.10120057331E+02 -0.70964032296E+01  0.12514709091E+02  0.51100000000E-03 0.  1.
        -12    1    3    3    0    0  0.39899486319E+01  0.27668003069E+02  0.23892937002E+02  0.36773774928E+02  0.00000000000E+00 0.  1.
</event>
<event>
 7    1  0.2656097E-013  0.7246157E+02  0.7816164E-02  0.1226708E+00
        -11   -1    0    0    0    0  0.00000000000E+00  0.00000000000E+00  0.45593999997E+02  0.45594000000E+02  0.51100000000E-03 0. -1.
         11   -1    0    0    0    0 -0.00000000000E+00 -0.00000000000E+00 -0.45593999997E+02  0.45594000000E+02  0.51100000000E-03 0.  1.
    9900012    2    1    2    0    0 -0.75040689800E+01 -0.45960547432E+01  0.16530105202E+02  0.72461570857E+02  0.70000000732E+02 0.  0.
        -12    1    1    2    0    0  0.75040689800E+01  0.45960547432E+01 -0.16530105202E+02  0.18726429143E+02  0.00000000000E+00 0.  1.
         11    1    3    3    0    0 -0.76821337436E+01 -0.28609055499E+02  0.25235319535E+02  0.38914195195E+02  0.51100000000E-03 0. -1.
        -11    1    3    3    0    0 -0.84798019401E+01  0.14491690235E+02  0.18651684552E+01  0.16893637277E+02  0.51100000000E-03 0.  1.
        -12    1    3    3    0    0  0.86578667037E+01  0.95213105208E+01 -0.10570382788E+02  0.16653738384E+02  0.00000000000E+00 0.  1.
</event>
<event>
 7    1  0.2656097E-013  0.7246130E+02  0.7816164E-02  0.1226709E+00
        -11   -1    0    0    0    0  0.00000000000E+00  0.00000000000E+00  0.45593999997E+02  0.45594000000E+02  0.51100000000E-03 0.  1.
         11   -1    0    0    0    0 -0.00000000000E+00 -0.00000000000E+00 -0.45593999997E+02  0.45594000000E+02  0.51100000000E-03 0. -1.
    9900012    2    1    2    0    0 -0.53694451695E+01  0.17757577147E+02 -0.25547499797E+01  0.72461301545E+02  0.69999649903E+02 0.  0.
        -12    1    1    2    0    0  0.53694451695E+01 -0.17757577147E+02  0.25547499797E+01  0.18726698455E+02  0.00000000000E+00 0.  1.
         11    1    3    3    0    0 -0.14248458488E+02  0.27382367596E+02  0.12877484948E+02  0.33446109539E+02  0.51100000000E-03 0. -1.
        -11    1    3    3    0    0  0.34360126316E+00  0.67108362623E+01 -0.19078142351E+02  0.20226935037E+02  0.51100000000E-03 0.  1.
        -12    1    3    3    0    0  0.85354120554E+01 -0.16335626711E+02  0.36459074231E+01  0.18788256969E+02  0.00000000000E+00 0.  1.
</event>
<event>
 7    1  0.2656097E-013  0.7246158E+02  0.7816164E-02  0.1226708E+00
        -11   -1    0    0    0    0  0.00000000000E+00  0.00000000000E+00  0.45593999997E+02  0.45594000000E+02  0.51100000000E-03 0.  1.
         11   -1    0    0    0    0 -0.00000000000E+00 -0.00000000000E+00 -0.45593999997E+02  0.45594000000E+02  0.51100000000E-03 0. -1.
    9900012    2    1    2    0    0 -0.18323097778E+02 -0.22208118159E+01  0.31639826634E+01  0.72461582735E+02  0.70000016206E+02 0.  0.
        -12    1    1    2    0    0  0.18323097778E+02  0.22208118159E+01 -0.31639826634E+01  0.18726417265E+02  0.00000000000E+00 0.  1.
         11    1    3    3    0    0  0.70048887143E+01  0.89124593537E+01 -0.12400998330E+01  0.11403431303E+02  0.51100000000E-03 0. -1.
        -11    1    3    3    0    0  0.79075751130E+01  0.14940517761E+02  0.79237525173E+01  0.18669083248E+02  0.51100000000E-03 0.  1.
         12    1    3    3    0    0 -0.33235561605E+02 -0.26073788930E+02 -0.35196700209E+01  0.42389068183E+02  0.00000000000E+00 0. -1.
</event>
<event>
 7    1  0.2656097E-013  0.7246158E+02  0.7816164E-02  0.1226708E+00
        -11   -1    0    0    0    0  0.00000000000E+00  0.00000000000E+00  0.45593999997E+02  0.45594000000E+02  0.51100000000E-03 0. -1.
         11   -1    0    0    0    0 -0.00000000000E+00 -0.00000000000E+00 -0.45593999997E+02  0.45594000000E+02  0.51100000000E-03 0.  1.
    9900012    2    1    2    0    0 -0.14766886064E+02  0.89864500419E+01 -0.72015058000E+01  0.72461577646E+02  0.70000009577E+02 0.  0.
        -12    1    1    2    0    0  0.14766886064E+02 -0.89864500419E+01  0.72015058000E+01  0.18726422354E+02  0.00000000000E+00 0.  1.
         11    1    3    3    0    0 -0.44298400806E+00  0.11470409571E+01 -0.35186079964E+00  0.12789621074E+01  0.51100000000E-03 0. -1.
        -11    1    3    3    0    0 -0.13441507469E+02  0.52794424762E+01 -0.37618346966E+02  0.40294995529E+02  0.51100000000E-03 0.  1.
         12    1    3    3    0    0 -0.88239458658E+00  0.25599666085E+01  0.30768701966E+02  0.30887620010E+02  0.00000000000E+00 0. -1.
</event>
<event>
 7    1  0.2656097E-013  0.7246158E+02  0.7816164E-02  0.1226708E+00
        -11   -1    0    0    0    0  0.00000000000E+00  0.00000000000E+00  0.45593999997E+02  0.45594000000E+02  0.51100000000E-03 0. -1.
         11   -1    0    0    0    0 -0.00000000000E+00 -0.00000000000E+00 -0.45593999997E+02  0.45594000000E+02  0.51100000000E-03 0.  1.
    9900012    2    1    2    0    0  0.26328513833E+01  0.17523482716E+02 -0.60559343452E+01  0.72461582998E+02  0.70000016550E+02 0.  0.
        -12    1    1    2    0    0 -0.26328513833E+01 -0.17523482716E+02  0.60559343452E+01  0.18726417002E+02  0.00000000000E+00 0.  1.
         11    1    3    3    0    0  0.13161439874E+02 -0.62067291692E+01 -0.50423243554E+01  0.15400390310E+02  0.51100000000E-03 0. -1.
        -11    1    3    3    0    0 -0.15056894889E+02 -0.13423991443E+01  0.19272215658E+02  0.24493477004E+02  0.51100000000E-03 0.  1.
         12    1    3    3    0    0  0.45283063982E+01  0.25072611030E+02 -0.20285825647E+02  0.32567715684E+02  0.00000000000E+00 0. -1.
</event>
<event>
 7    1  0.2656097E-013  0.7246156E+02  0.7816164E-02  0.1226708E+00
        -11   -1    0    0    0    0  0.00000000000E+00  0.00000000000E+00  0.45593999997E+02  0.45594000000E+02  0.51100000000E-03 0.  1.
         11   -1    0    0    0    0 -0.00000000000E+00 -0.00000000000E+00 -0.45593999997E+02  0.45594000000E+02  0.51100000000E-03 0. -1.
    9900012    2    1    2    0    0  0.54900874287E+01 -0.86832545089E+01 -0.15656938688E+02  0.72461556186E+02  0.69999981622E+02 0.  0.
        -12    1    1    2    0    0 -0.54900874287E+01  0.86832545089E+01  0.15656938688E+02  0.18726443814E+02  0.00000000000E+00 0.  1.
         11    1    3    3    0    0  0.96783980433E+01 -0.28301751357E+02  0.60665681140E+01  0.30519891342E+02  0.51100000000E-03 0. -1.
        -11    1    3    3    0    0 -0.72881913963E+01 -0.89641357391E+00  0.44161294067E+01  0.85687508029E+01  0.51100000000E-03 0.  1.
         12    1    3    3    0    0  0.30998807818E+01  0.20514910423E+02 -0.26139636208E+02  0.33372914041E+02  0.00000000000E+00 0. -1.
</event>
<event>
 7    1  0.2656097E-013  0.7246128E+02  0.7816164E-02  0.1226709E+00
        -11   -1    0    0    0    0  0.00000000000E+00  0.00000000000E+00  0.45593999997E+02  0.45594000000E+02  0.51100000000E-03 0.  1.
         11   -1    0    0    0    0 -0.00000000000E+00 -0.00000000000E+00 -0.45593999997E+02  0.45594000000E+02  0.51100000000E-03 0. -1.
    9900012    2    1    2    0    0  0.64099286848E+01  0.17581843068E+02  0.69393075010E+00  0.72461282955E+02  0.69999625686E+02 0.  0.
        -12    1    1    2    0    0 -0.64099286848E+01 -0.17581843068E+02 -0.69393075010E+00  0.18726717045E+02  0.00000000000E+00 0.  1.
         11    1    3    3    0    0  0.18064169018E+02  0.20109097519E+01  0.22305864646E+02  0.28773417562E+02  0.51100000000E-03 0. -1.
        -11    1    3    3    0    0 -0.65477381701E+01 -0.99232458057E+01 -0.81006984627E+01  0.14386278126E+02  0.51100000000E-03 0.  1.
        -12    1    3    3    0    0 -0.51065021629E+01  0.25494179121E+02 -0.13511235434E+02  0.29301587267E+02  0.00000000000E+00 0.  1.
</event>
<event>
 7    1  0.2656097E-013  0.7246161E+02  0.7816164E-02  0.1226708E+00
        -11   -1    0    0    0    0  0.00000000000E+00  0.00000000000E+00  0.45593999997E+02  0.45594000000E+02  0.51100000000E-03 0. -1.
         11   -1    0    0    0    0 -0.00000000000E+00 -0.00000000000E+00 -0.45593999997E+02  0.45594000000E+02  0.51100000000E-03 0.  1.
    9900012    2    1    2    0    0 -0.17731851156E+01 -0.44446308014E+01  0.18104663475E+02  0.72461607716E+02  0.70000048749E+02 0.  0.
        -12    1    1    2    0    0  0.17731851156E+01  0.44446308014E+01 -0.18104663475E+02  0.18726392284E+02  0.00000000000E+00 0.  1.
         11    1    3    3    0    0  0.60309488729E+01 -0.78022320809E+01  0.18833085173E+02  0.21258698623E+02  0.51100000000E-03 0. -1.
        -11    1    3    3    0    0  0.21035013130E+02  0.60340927943E+01 -0.32792853301E+01  0.22127714879E+02  0.51100000000E-03 0.  1.
        -12    1    3    3    0    0 -0.28839147118E+02 -0.26764915148E+01  0.25508636324E+01  0.29075194215E+02  0.00000000000E+00 0.  1.
</event>
<event>
 7    1  0.2656097E-013  0.7246157E+02  0.7816164E-02  0.1226708E+00
        -11   -1    0    0    0    0  0.00000000000E+00  0.00000000000E+00  0.45593999997E+02  0.45594000000E+02  0.51100000000E-03 0.  1.
         11   -1    0    0    0    0 -0.00000000000E+00 -0.00000000000E+00 -0.45593999997E+02  0.45594000000E+02  0.51100000000E-03 0. -1.
    9900012    2    1    2    0    0  0.36789382278E+01 -0.19413761903E+00 -0.18360472562E+02  0.72461568717E+02  0.69999997945E+02 0.  0.
        -12    1    1    2    0    0 -0.36789382278E+01  0.19413761903E+00  0.18360472562E+02  0.18726431283E+02  0.00000000000E+00 0.  1.
         11    1    3    3    0    0 -0.83160891719E+01  0.48670198442E+01 -0.10892642095E+02  0.14542863313E+02  0.51100000000E-03 0. -1.
        -11    1    3    3    0    0 -0.33165038265E+00  0.23181411279E+02  0.65112609014E+01  0.24080787770E+02  0.51100000000E-03 0.  1.
         12    1    3    3    0    0  0.12326677782E+02 -0.28242568742E+02 -0.13979091368E+02  0.33837917633E+02  0.00000000000E+00 0. -1.
</event>
<event>
 7    1  0.2656097E-013  0.7246159E+02  0.7816164E-02  0.1226708E+00
        -11   -1    0    0    0    0  0.00000000000E+00  0.00000000000E+00  0.45593999997E+02  0.45594000000E+02  0.51100000000E-03 0.  1.
         11   -1    0    0    0    0 -0.00000000000E+00 -0.00000000000E+00 -0.45593999997E+02  0.45594000000E+02  0.51100000000E-03 0. -1.
    9900012    2    1    2    0    0  0.83588701602E+01 -0.12635215150E+02 -0.11007227692E+02  0.72461589941E+02  0.70000025593E+02 0.  0.
        -12    1    1    2    0    0 -0.83588701602E+01  0.12635215150E+02  0.11007227692E+02  0.18726410059E+02  0.00000000000E+00 0.  1.
         11    1    3    3    0    0  0.29301592306E+01 -0.56151682276E+01 -0.79207714858E+01  0.10141724140E+02  0.51100000000E-03 0. -1.
        -11    1    3    3    0    0 -0.47310093365E+01 -0.10815173163E+02 -0.30572037319E+02  0.32771937477E+02  0.51100000000E-03 0.  1.
        -12    1    3    3    0    0  0.10159720266E+02  0.37951262406E+01  0.27485581113E+02  0.29547928323E+02  0.00000000000E+00 0.  1.
</event>
<event>
 7    1  0.2656097E-013  0.7246188E+02  0.7816164E-02  0.1226707E+00
        -11   -1    0    0    0    0  0.00000000000E+00  0.00000000000E+00  0.45593999997E+02  0.45594000000E+02  0.51100000000E-03 0.  1.
         11   -1    0    0    0    0 -0.00000000000E+00 -0.00000000000E+00 -0.45593999997E+02  0.45594000000E+02  0.51100000000E-03 0. -1.
    9900012    2    1    2    0    0  0.28070478070E+01 -0.47372693578E+01 -0.17898218523E+02  0.72461882820E+02  0.70000407121E+02 0.  0.
        -12    1    1    2    0    0 -0.28070478070E+01  0.47372693578E+01  0.17898218523E+02  0.18726117180E+02  0.00000000000E+00 0.  1.
         11    1    3    3    0    0  0.27637221553E+02 -0.31170344085E+01 -0.18110454086E+02  0.33189161877E+02  0.51100000000E-03 0. -1.
        -11    1    3    3    0    0 -0.54858571362E+01  0.57148449928E+01 -0.12640061356E+02  0.14917279683E+02  0.51100000000E-03 0.  1.
        -12    1    3    3    0    0 -0.19344316610E+02 -0.73350799421E+01  0.12852296919E+02  0.24355441259E+02  0.00000000000E+00 0.  1.
</event>
<event>
 7    1  0.2656097E-013  0.7246157E+02  0.7816164E-02  0.1226708E+00
        -11   -1    0    0    0    0  0.00000000000E+00  0.00000000000E+00  0.45593999997E+02  0.45594000000E+02  0.51100000000E-03 0.  1.
         11   -1    0    0    0    0 -0.00000000000E+00 -0.00000000000E+00 -0.45593999997E+02  0.45594000000E+02  0.51100000000E-03 0. -1.
    9900012    2    1    2    0    0 -0.83529082794E+01 -0.90448656035E+00 -0.16735894063E+02  0.72461566203E+02  0.69999994671E+02 0.  0.
        -12    1    1    2    0    0  0.83529082794E+01  0.90448656035E+00  0.16735894063E+02  0.18726433797E+02  0.00000000000E+00 0.  1.
         11    1    3    3    0    0  0.19185671414E+02  0.56373479340E+01 -0.88305291088E+00  0.20016229966E+02  0.51100000000E-03 0. -1.
        -11    1    3    3    0    0  0.88072125720E+01  0.56829799783E+01  0.10592161332E+01  0.10534951058E+02  0.51100000000E-03 0.  1.
        -12    1    3    3    0    0 -0.36345792265E+02 -0.12224814473E+02 -0.16912057285E+02  0.41910385180E+02  0.00000000000E+00 0.  1.
</event>
<event>
 7    1  0.2656097E-013  0.7246151E+02  0.7816164E-02  0.1226708E+00
        -11   -1    0    0    0    0  0.00000000000E+00  0.00000000000E+00  0.45593999997E+02  0.45594000000E+02  0.51100000000E-03 0. -1.
         11   -1    0    0    0    0 -0.00000000000E+00 -0.00000000000E+00 -0.45593999997E+02  0.45594000000E+02  0.51100000000E-03 0.  1.
    9900012    2    1    2    0    0  0.59340212229E+00  0.17413267220E+02 -0.68634747099E+01  0.72461513772E+02  0.69999926369E+02 0.  0.
        -12    1    1    2    0    0 -0.59340212229E+00 -0.17413267220E+02  0.68634747099E+01  0.18726486228E+02  0.00000000000E+00 0.  1.
         11    1    3    3    0    0  0.15263800158E+02  0.74270599208E+01  0.19791297516E+01  0.17089814778E+02  0.51100000000E-03 0. -1.
        -11    1    3    3    0    0  0.48543046362E+01  0.15479380989E+02 -0.24751518260E+02  0.29594140734E+02  0.51100000000E-03 0.  1.
        -12    1    3    3    0    0 -0.19524702671E+02 -0.54931736896E+01  0.15908913799E+02  0.25777558260E+02  0.00000000000E+00 0.  1.
</event>
<event>
 7    1  0.2656097E-013  0.7246154E+02  0.7816164E-02  0.1226708E+00
        -11   -1    0    0    0    0  0.00000000000E+00  0.00000000000E+00  0.45593999997E+02  0.45594000000E+02  0.51100000000E-03 0.  1.
         11   -1    0    0    0    0 -0.00000000000E+00 -0.00000000000E+00 -0.45593999997E+02  0.45594000000E+02  0.51100000000E-03 0. -1.
    9900012    2    1    2    0    0  0.64424280631E+01 -0.51119424541E+01 -0.16823893936E+02  0.72461541655E+02  0.69999962691E+02 0.  0.
        -12    1    1    2    0    0 -0.64424280631E+01  0.51119424541E+01  0.16823893936E+02  0.18726458345E+02  0.00000000000E+00 0.  1.
         11    1    3    3    0    0  0.29451158436E+01  0.66868537223E+01 -0.22653152076E+01  0.76497956369E+01  0.51100000000E-03 0. -1.
        -11    1    3    3    0    0  0.61879749413E+01  0.25121123484E+02 -0.89221845418E+01  0.27367266144E+02  0.51100000000E-03 0.  1.
         12    1    3    3    0    0 -0.26906627217E+01 -0.36919919660E+02 -0.56363941863E+01  0.37444479874E+02  0.00000000000E+00 0. -1.
</event>
<event>
 7    1  0.2656097E-013  0.7246153E+02  0.7816164E-02  0.1226708E+00
        -11   -1    0    0    0    0  0.00000000000E+00  0.00000000000E+00  0.45593999997E+02  0.45594000000E+02  0.51100000000E-03 0. -1.
         11   -1    0    0    0    0 -0.00000000000E+00 -0.00000000000E+00 -0.45593999997E+02  0.45594000000E+02  0.51100000000E-03 0.  1.
    9900012    2    1    2    0    0 -0.86263645368E+01  0.11996864087E+02  0.11503986848E+02  0.72461531394E+02  0.69999949325E+02 0.  0.
        -12    1    1    2    0    0  0.86263645368E+01 -0.11996864087E+02 -0.11503986848E+02  0.18726468606E+02  0.00000000000E+00 0.  1.
         11    1    3    3    0    0 -0.57559450892E+01  0.15000837715E+02  0.34018898070E+02  0.37622353225E+02  0.51100000000E-03 0. -1.
        -11    1    3    3    0    0 -0.11956188668E+02  0.41238073405E+01 -0.44672408059E+01  0.13413145609E+02  0.51100000000E-03 0.  1.
        -12    1    3    3    0    0  0.90857692203E+01 -0.71277809689E+01 -0.18047670416E+02  0.21426032561E+02  0.00000000000E+00 0.  1.
</event>
<event>
 7    1  0.2656097E-013  0.7246182E+02  0.7816164E-02  0.1226707E+00
        -11   -1    0    0    0    0  0.00000000000E+00  0.00000000000E+00  0.45593999997E+02  0.45594000000E+02  0.51100000000E-03 0. -1.
         11   -1    0    0    0    0 -0.00000000000E+00 -0.00000000000E+00 -0.45593999997E+02  0.45594000000E+02  0.51100000000E-03 0.  1.
    9900012    2    1    2    0    0 -0.15825142863E+02  0.62209155680E+00  0.99923840175E+01  0.72461818251E+02  0.70000323009E+02 0.  0.
        -12    1    1    2    0    0  0.15825142863E+02 -0.62209155680E+00 -0.99923840175E+01  0.18726181749E+02  0.00000000000E+00 0.  1.
         11    1    3    3    0    0 -0.27961741406E+02 -0.65462934091E+01  0.24021406692E+02  0.37439830656E+02  0.51100000000E-03 0. -1.
        -11    1    3    3    0    0 -0.26053338869E+01 -0.93481419217E+01 -0.63134947948E+01  0.11577380482E+02  0.51100000000E-03 0.  1.
        -12    1    3    3    0    0  0.14741932430E+02  0.16516526888E+02 -0.77155278797E+01  0.23444607112E+02  0.00000000000E+00 0.  1.
</event>
<event>
 7    1  0.2656097E-013  0.7246143E+02  0.7816164E-02  0.1226708E+00
        -11   -1    0    0    0    0  0.00000000000E+00  0.00000000000E+00  0.45593999997E+02  0.45594000000E+02  0.51100000000E-03 0. -1.
         11   -1    0    0    0    0 -0.00000000000E+00 -0.00000000000E+00 -0.45593999997E+02  0.45594000000E+02  0.51100000000E-03 0.  1.
    9900012    2    1    2    0    0  0.15037677160E+02 -0.73655891330E+01  0.83845619257E+01  0.72461427534E+02  0.69999814028E+02 0.  0.
        -12    1    1    2    0    0 -0.15037677160E+02  0.73655891330E+01 -0.83845619257E+01  0.18726572466E+02  0.00000000000E+00 0.  1.
         11    1    3    3    0    0 -0.18008756468E+01  0.10725101679E+02  0.68396170563E+01  0.12847230085E+02  0.51100000000E-03 0. -1.
        -11    1    3    3    0    0  0.23995634998E+01  0.14681517564E+02  0.15217500467E+02  0.21280911252E+02  0.51100000000E-03 0.  1.
        -12    1    3    3    0    0  0.14438989307E+02 -0.32772208377E+02 -0.13672555598E+02  0.38333286197E+02  0.00000000000E+00 0.  1.
</event>
<event>
 7    1  0.2656097E-013  0.7246158E+02  0.7816164E-02  0.1226708E+00
        -11   -1    0    0    0    0  0.00000000000E+00  0.00000000000E+00  0.45593999997E+02  0.45594000000E+02  0.51100000000E-03 0. -1.
         11   -1    0    0    0    0 -0.00000000000E+00 -0.00000000000E+00 -0.45593999997E+02  0.45594000000E+02  0.51100000000E-03 0.  1.
    9900012    2    1    2    0    0 -0.13304738800E+02 -0.81987112376E+01  0.10317158917E+02  0.72461582601E+02  0.70000016032E+02 0.  0.
        -12    1    1    2    0    0  0.13304738800E+02  0.81987112376E+01 -0.10317158917E+02  0.18726417399E+02  0.00000000000E+00 0.  1.
         11    1    3    3    0    0 -0.95254715121E+01 -0.85601176143E+01  0.35289419011E+01  0.13283962221E+02  0.51100000000E-03 0. -1.
        -11    1    3    3    0    0 -0.14221106935E+01 -0.17986855272E+02 -0.19799490382E+02  0.26787481797E+02  0.51100000000E-03 0.  1.
         12    1    3    3    0    0 -0.23571565940E+01  0.18348261649E+02  0.26587707397E+02  0.32390138582E+02  0.00000000000E+00 0. -1.
</event>
<event>
 7    1  0.2656097E-013  0.7246207E+02  0.7816164E-02  0.1226707E+00
        -11   -1    0    0    0    0  0.00000000000E+00  0.00000000000E+00  0.45593999997E+02  0.45594000000E+02  0.51100000000E-03 0. -1.
         11   -1    0    0    0    0 -0.00000000000E+00 -0.00000000000E+00 -0.45593999997E+02  0.45594000000E+02  0.51100000000E-03 0.  1.
    9900012    2    1    2    0    0  0.47985099325E+01  0.35669331320E+01  0.17745750430E+02  0.72462072309E+02  0.70000653965E+02 0.  0.
        -12    1    1    2    0    0 -0.47985099325E+01 -0.35669331320E+01 -0.17745750430E+02  0.18725927691E+02  0.00000000000E+00 0.  1.
         11    1    3    3    0    0  0.41827984647E+00 -0.12438563513E+02  0.11538045507E+02  0.16971131803E+02  0.51100000000E-03 0. -1.
        -11    1    3    3    0    0 -0.22814778957E+02  0.15185614942E+02  0.69479596983E+01  0.28273506755E+02  0.51100000000E-03 0.  1.
         12    1    3    3    0    0  0.27195009043E+02  0.81988170306E+00 -0.74025477514E+00  0.27217433751E+02  0.00000000000E+00 0. -1.
</event>
<event>
 7    1  0.2656097E-013  0.7246154E+02  0.7816164E-02  0.1226708E+00
        -11   -1    0    0    0    0  0.00000000000E+00  0.00000000000E+00  0.45593999997E+02  0.45594000000E+02  0.51100000000E-03 0. -1.
         11   -1    0    0    0    0 -0.00000000000E+00 -0.00000000000E+00 -0.45593999997E+02  0.45594000000E+02  0.51100000000E-03 0.  1.
    9900012    2    1    2    0    0  0.69004581613E+01 -0.17460907739E+01  0.17320943433E+02  0.72461541786E+02  0.69999962863E+02 0.  0.
        -12    1    1    2    0    0 -0.69004581613E+01  0.17460907739E+01 -0.17320943433E+02  0.18726458214E+02  0.00000000000E+00 0.  1.
         11    1    3    3    0    0  0.92875407362E+01 -0.55783522734E+01 -0.23959721729E+02  0.26295335948E+02  0.51100000000E-03 0.  1.
        -11    1    3    3    0    0  0.83212660135E+01  0.43238503977E+01  0.24719733539E+02  0.26438690906E+02  0.51100000000E-03 0. -1.
        -12    1    3    3    0    0 -0.10708348588E+02 -0.49158889811E+00  0.16560931624E+02  0.19727514932E+02  0.00000000000E+00 0.  1.
</event>
<event>
 7    1  0.2656097E-013  0.7246157E+02  0.7816164E-02  0.1226708E+00
        -11   -1    0    0    0    0  0.00000000000E+00  0.00000000000E+00  0.45593999997E+02  0.45594000000E+02  0.51100000000E-03 0.  1.
         11   -1    0    0    0    0 -0.00000000000E+00 -0.00000000000E+00 -0.45593999997E+02  0.45594000000E+02  0.51100000000E-03 0. -1.
    9900012    2    1    2    0    0 -0.13440215305E+02  0.10721901833E+02 -0.74216390384E+01  0.72461567014E+02  0.69999995727E+02 0.  0.
        -12    1    1    2    0    0  0.13440215305E+02 -0.10721901833E+02  0.74216390384E+01  0.18726432986E+02  0.00000000000E+00 0.  1.
         11    1    3    3    0    0  0.11801334539E+02  0.14196269147E+02 -0.25202049878E+02  0.31240180424E+02  0.51100000000E-03 0. -1.
        -11    1    3    3    0    0  0.44774764201E+01 -0.36333140482E+01 -0.12910957796E+01  0.59089503839E+01  0.51100000000E-03 0.  1.
        -12    1    3    3    0    0 -0.29719026264E+02  0.15894673426E+00  0.19071506619E+02  0.35312436207E+02  0.00000000000E+00 0.  1.
</event>
<event>
 7    1  0.2656097E-013  0.7246163E+02  0.7816164E-02  0.1226708E+00
        -11   -1    0    0    0    0  0.00000000000E+00  0.00000000000E+00  0.45593999997E+02  0.45594000000E+02  0.51100000000E-03 0. -1.
         11   -1    0    0    0    0 -0.00000000000E+00 -0.00000000000E+00 -0.45593999997E+02  0.45594000000E+02  0.51100000000E-03 0.  1.
    9900012    2    1    2    0    0  0.21338582889E+01  0.31748958082E+01  0.18331491134E+02  0.72461631377E+02  0.70000079572E+02 0.  0.
        -12    1    1    2    0    0 -0.21338582889E+01 -0.31748958082E+01 -0.18331491134E+02  0.18726368623E+02  0.00000000000E+00 0.  1.
         11    1    3    3    0    0 -0.37616019640E+01  0.60321452827E+01 -0.80930956495E+01  0.10771936850E+02  0.51100000000E-03 0. -1.
        -11    1    3    3    0    0 -0.14977620027E+01  0.24115802014E+02  0.14695589501E+01  0.24206916400E+02  0.51100000000E-03 0.  1.
         12    1    3    3    0    0  0.73932222557E+01 -0.26973051489E+02  0.24955027834E+02  0.37482778127E+02  0.00000000000E+00 0. -1.
</event>
<event>
 7    1  0.2656097E-013  0.7246156E+02  0.7816164E-02  0.1226708E+00
        -11   -1    0    0    0    0  0.00000000000E+00  0.00000000000E+00  0.45593999997E+02  0.45594000000E+02  0.51100000000E-03 0. -1.
         11   -1    0    0    0    0 -0.00000000000E+00 -0.00000000000E+00 -0.45593999997E+02  0.45594000000E+02  0.51100000000E-03 0.  1.
    9900012    2    1    2    0    0  0.10764685017E+00  0.17993775841E+02 -0.51857527270E+01  0.72461559115E+02  0.69999985437E+02 0.  0.
        -12    1    1    2    0    0 -0.10764685017E+00 -0.17993775841E+02  0.51857527270E+01  0.18726440885E+02  0.00000000000E+00 0.  1.
         11    1    3    3    0    0  0.25792357522E+01  0.23253590986E+02  0.12281294192E+02  0.26423704095E+02  0.51100000000E-03 0. -1.
        -11    1    3    3    0    0  0.25074160607E+01  0.15803487333E+02  0.29648423724E+01  0.16273525670E+02  0.51100000000E-03 0.  1.
        -12    1    3    3    0    0 -0.49790049628E+01 -0.21063302477E+02 -0.20431889291E+02  0.29764329350E+02  0.00000000000E+00 0.  1.
</event>
<event>
 7    1  0.2656097E-013  0.7246157E+02  0.7816164E-02  0.1226708E+00
        -11   -1    0    0    0    0  0.00000000000E+00  0.00000000000E+00  0.45593999997E+02  0.45594000000E+02  0.51100000000E-03 0.  1.
         11   -1    0    0    0    0 -0.00000000000E+00 -0.00000000000E+00 -0.45593999997E+02  0.45594000000E+02  0.51100000000E-03 0. -1.
    9900012    2    1    2    0    0 -0.38427537759E+01  0.16994411177E+02 -0.68631279484E+01  0.72461566996E+02  0.69999995703E+02 0.  0.
        -12    1    1    2    0    0  0.38427537759E+01 -0.16994411177E+02  0.68631279484E+01  0.18726433004E+02  0.00000000000E+00 0.  1.
         11    1    3    3    0    0  0.26169986898E+01 -0.97001017670E+01  0.21720433290E+02  0.23931524795E+02  0.51100000000E-03 0. -1.
        -11    1    3    3    0    0  0.10243104264E+02  0.66641469027E+01 -0.44756991456E+01  0.13013989473E+02  0.51100000000E-03 0.  1.
         12    1    3    3    0    0 -0.16702856730E+02  0.20030366041E+02 -0.24107862093E+02  0.35516052728E+02  0.00000000000E+00 0. -1.
</event>
<event>
 7    1  0.2656097E-013  0.7246156E+02  0.7816164E-02  0.1226708E+00
        -11   -1    0    0    0    0  0.00000000000E+00  0.00000000000E+00  0.45593999997E+02  0.45594000000E+02  0.51100000000E-03 0.  1.
         11   -1    0    0    0    0 -0.00000000000E+00 -0.00000000000E+00 -0.45593999997E+02  0.45594000000E+02  0.51100000000E-03 0. -1.
    9900012    2    1    2    0    0 -0.90771174906E+00 -0.88994749253E+01 -0.16451599082E+02  0.72461555946E+02  0.69999981308E+02 0.  0.
        -12    1    1    2    0    0  0.90771174906E+00  0.88994749253E+01  0.16451599082E+02  0.18726444054E+02  0.00000000000E+00 0.  1.
         11    1    3    3    0    0 -0.15100748657E+02  0.94108992347E+01 -0.16080063712E+02  0.23982620450E+02  0.51100000000E-03 0.  1.
        -11    1    3    3    0    0  0.19889967938E+02  0.38778048481E+01 -0.11185862295E+02  0.23146742979E+02  0.51100000000E-03 0. -1.
        -12    1    3    3    0    0 -0.56969310294E+01 -0.22188179008E+02  0.10814326925E+02  0.25332192516E+02  0.00000000000E+00 0.  1.
</event>
<event>
 7    1  0.2656097E-013  0.7246156E+02  0.7816164E-02  0.1226708E+00
        -11   -1    0    0    0    0  0.00000000000E+00  0.00000000000E+00  0.45593999997E+02  0.45594000000E+02  0.51100000000E-03 0. -1.
         11   -1    0    0    0    0 -0.00000000000E+00 -0.00000000000E+00 -0.45593999997E+02  0.45594000000E+02  0.51100000000E-03 0.  1.
    9900012    2    1    2    0    0  0.59000485134E+01  0.17025728920E+02 -0.50983763543E+01  0.72461562561E+02  0.69999989926E+02 0.  0.
        -12    1    1    2    0    0 -0.59000485134E+01 -0.17025728920E+02  0.50983763543E+01  0.18726437439E+02  0.00000000000E+00 0.  1.
         11    1    3    3    0    0 -0.82502169719E+01  0.27741616343E+02 -0.31559507770E+00  0.28944135121E+02  0.51100000000E-03 0. -1.
        -11    1    3    3    0    0 -0.12156320238E+02  0.20439073111E+01 -0.70347971517E+01  0.14193028220E+02  0.51100000000E-03 0.  1.
        -12    1    3    3    0    0  0.26306585724E+02 -0.12759794734E+02  0.22520158751E+01  0.29324399220E+02  0.00000000000E+00 0.  1.
</event>
<event>
 7    1  0.2656097E-013  0.7246153E+02  0.7816164E-02  0.1226708E+00
        -11   -1    0    0    0    0  0.00000000000E+00  0.00000000000E+00  0.45593999997E+02  0.45594000000E+02  0.51100000000E-03 0.  1.
         11   -1    0    0    0    0 -0.00000000000E+00 -0.00000000000E+00 -0.45593999997E+02  0.45594000000E+02  0.51100000000E-03 0. -1.
    9900012    2    1    2    0    0 -0.18418233522E+02  0.33742894026E+01 -0.25189764735E+00  0.72461531900E+02  0.69999949985E+02 0.  0.
        -12    1    1    2    0    0  0.18418233522E+02 -0.33742894026E+01  0.25189764735E+00  0.18726468100E+02  0.00000000000E+00 0.  1.
         11    1    3    3    0    0  0.23408288851E+02 -0.25401806327E+01 -0.18452095085E+01  0.23617902171E+02  0.51100000000E-03 0. -1.
        -11    1    3    3    0    0  0.24326517116E+01 -0.35762679467E+00  0.32933044153E+01  0.41099325429E+01  0.51100000000E-03 0.  1.
        -12    1    3    3    0    0 -0.44259174085E+02  0.62720968300E+01 -0.16999925542E+01  0.44733697187E+02  0.00000000000E+00 0.  1.
</event>
<event>
 7    1  0.2656097E-013  0.7246158E+02  0.7816164E-02  0.1226708E+00
        -11   -1    0    0    0    0  0.00000000000E+00  0.00000000000E+00  0.45593999997E+02  0.45594000000E+02  0.51100000000E-03 0.  1.
         11   -1    0    0    0    0 -0.00000000000E+00 -0.00000000000E+00 -0.45593999997E+02  0.45594000000E+02  0.51100000000E-03 0. -1.
    9900012    2    1    2    0    0  0.16184681934E+02 -0.30544311006E+01 -0.89109579154E+01  0.72461584176E+02  0.70000018083E+02 0.  0.
        -12    1    1    2    0    0 -0.16184681934E+02  0.30544311006E+01  0.89109579154E+01  0.18726415824E+02  0.00000000000E+00 0.  1.
         11    1    3    3    0    0  0.24306136190E+02 -0.76182741315E+01 -0.21286870183E+02  0.33195740686E+02  0.51100000000E-03 0. -1.
        -11    1    3    3    0    0  0.34136780453E+01 -0.10000673834E+02  0.17094400785E+02  0.20096895616E+02  0.51100000000E-03 0.  1.
        -12    1    3    3    0    0 -0.11535132301E+02  0.14564516865E+02 -0.47184885175E+01  0.19168947874E+02  0.00000000000E+00 0.  1.
</event>
<event>
 7    1  0.2656097E-013  0.7246148E+02  0.7816164E-02  0.1226708E+00
        -11   -1    0    0    0    0  0.00000000000E+00  0.00000000000E+00  0.45593999997E+02  0.45594000000E+02  0.51100000000E-03 0. -1.
         11   -1    0    0    0    0 -0.00000000000E+00 -0.00000000000E+00 -0.45593999997E+02  0.45594000000E+02  0.51100000000E-03 0.  1.
    9900012    2    1    2    0    0  0.81245565407E+01 -0.16866816462E+02 -0.42947973750E+00  0.72461484858E+02  0.69999888703E+02 0.  0.
        -12    1    1    2    0    0 -0.81245565407E+01  0.16866816462E+02  0.42947973750E+00  0.18726515142E+02  0.00000000000E+00 0.  1.
         11    1    3    3    0    0 -0.12179591371E+02 -0.13096398949E+01  0.29612130214E+01  0.12602634067E+02  0.51100000000E-03 0. -1.
        -11    1    3    3    0    0 -0.10133331770E+02  0.52280661082E+01 -0.17084224273E+02  0.20539907674E+02  0.51100000000E-03 0.  1.
         12    1    3    3    0    0  0.30437479682E+02 -0.20785242675E+02  0.13693531514E+02  0.39318943116E+02  0.00000000000E+00 0. -1.
</event>
<event>
 7    1  0.2656097E-013  0.7246122E+02  0.7816164E-02  0.1226709E+00
        -11   -1    0    0    0    0  0.00000000000E+00  0.00000000000E+00  0.45593999997E+02  0.45594000000E+02  0.51100000000E-03 0.  1.
         11   -1    0    0    0    0 -0.00000000000E+00 -0.00000000000E+00 -0.45593999997E+02  0.45594000000E+02  0.51100000000E-03 0. -1.
    9900012    2    1    2    0    0  0.12301246701E+02  0.11608143128E+02 -0.80388194833E+01  0.72461220353E+02  0.69999544135E+02 0.  0.
        -12    1    1    2    0    0 -0.12301246701E+02 -0.11608143128E+02  0.80388194833E+01  0.18726779647E+02  0.00000000000E+00 0.  1.
         11    1    3    3    0    0  0.44070312963E+01  0.15975104970E+02 -0.27535270257E+02  0.32137470529E+02  0.51100000000E-03 0. -1.
        -11    1    3    3    0    0  0.57554664367E+01 -0.29387326200E+01 -0.93483323514E+01  0.11364544044E+02  0.51100000000E-03 0.  1.
        -12    1    3    3    0    0  0.21387489676E+01 -0.14282292218E+01  0.28844783125E+02  0.28959205780E+02  0.00000000000E+00 0.  1.
</event>
<event>
 7    1  0.2656097E-013  0.7246174E+02  0.7816164E-02  0.1226708E+00
        -11   -1    0    0    0    0  0.00000000000E+00  0.00000000000E+00  0.45593999997E+02  0.45594000000E+02  0.51100000000E-03 0. -1.
         11   -1    0    0    0    0 -0.00000000000E+00 -0.00000000000E+00 -0.45593999997E+02  0.45594000000E+02  0.51100000000E-03 0.  1.
    9900012    2    1    2    0    0 -0.95952418576E+00 -0.24946557101E+01  0.18534534752E+02  0.72461735763E+02  0.70000215554E+02 0.  0.
        -12    1    1    2    0    0  0.95952418576E+00  0.24946557101E+01 -0.18534534752E+02  0.18726264237E+02  0.00000000000E+00 0.  1.
         11    1    3    3    0    0 -0.28310291227E+02 -0.90272381474E+01  0.97884982923E+01  0.31285432984E+02  0.51100000000E-03 0. -1.
        -11    1    3    3    0    0 -0.27628959837E+01  0.63997390920E+01 -0.44797142713E+01  0.82860180350E+01  0.51100000000E-03 0.  1.
        -12    1    3    3    0    0  0.30113663025E+02  0.13284334534E+00  0.13225750732E+02  0.32890284744E+02  0.00000000000E+00 0.  1.
</event>
<event>
 7    1  0.2656097E-013  0.7246161E+02  0.7816164E-02  0.1226708E+00
        -11   -1    0    0    0    0  0.00000000000E+00  0.00000000000E+00  0.45593999997E+02  0.45594000000E+02  0.51100000000E-03 0. -1.
         11   -1    0    0    0    0 -0.00000000000E+00 -0.00000000000E+00 -0.45593999997E+02  0.45594000000E+02  0.51100000000E-03 0.  1.
    9900012    2    1    2    0    0  0.10378879736E+02 -0.13693357116E+02 -0.74463811897E+01  0.72461607755E+02  0.70000048800E+02 0.  0.
        -12    1    1    2    0    0 -0.10378879736E+02  0.13693357116E+02  0.74463811897E+01  0.18726392245E+02  0.00000000000E+00 0.  1.
         11    1    3    3    0    0 -0.12806624405E+01 -0.25127777427E+01 -0.14888204888E+01  0.31891589769E+01  0.51100000000E-03 0. -1.
        -11    1    3    3    0    0  0.76787565764E+01 -0.32893101970E+02 -0.23439816578E+02  0.41113798916E+02  0.51100000000E-03 0.  1.
         12    1    3    3    0    0  0.39807855999E+01  0.21712522597E+02  0.17482255877E+02  0.28158649862E+02  0.00000000000E+00 0. -1.
</event>
<event>
 7    1  0.2656097E-013  0.7246162E+02  0.7816164E-02  0.1226708E+00
        -11   -1    0    0    0    0  0.00000000000E+00  0.00000000000E+00  0.45593999997E+02  0.45594000000E+02  0.51100000000E-03 0. -1.
         11   -1    0    0    0    0 -0.00000000000E+00 -0.00000000000E+00 -0.45593999997E+02  0.45594000000E+02  0.51100000000E-03 0.  1.
    9900012    2    1    2    0    0  0.32253877189E+01  0.18441567402E+02  0.42764784504E+00  0.72461617090E+02  0.70000060961E+02 0.  0.
        -12    1    1    2    0    0 -0.32253877189E+01 -0.18441567402E+02 -0.42764784504E+00  0.18726382910E+02  0.00000000000E+00 0.  1.
         11    1    3    3    0    0  0.12276838900E+02  0.36957387646E+02  0.34988072945E+01  0.39100011864E+02  0.51100000000E-03 0. -1.
        -11    1    3    3    0    0 -0.76778440692E+01 -0.56521786780E+01 -0.13650193799E+02  0.16650051182E+02  0.51100000000E-03 0.  1.
        -12    1    3    3    0    0 -0.13736071120E+01 -0.12863641566E+02  0.10579034349E+02  0.16711554045E+02  0.00000000000E+00 0.  1.
</event>
<event>
 7    1  0.2656097E-013  0.7246157E+02  0.7816164E-02  0.1226708E+00
        -11   -1    0    0    0    0  0.00000000000E+00  0.00000000000E+00  0.45593999997E+02  0.45594000000E+02  0.51100000000E-03 0. -1.
         11   -1    0    0    0    0 -0.00000000000E+00 -0.00000000000E+00 -0.45593999997E+02  0.45594000000E+02  0.51100000000E-03 0.  1.
    9900012    2    1    2    0    0 -0.12123735337E+02 -0.14160556962E+02 -0.17812080935E+01  0.72461573906E+02  0.70000004705E+02 0.  0.
        -12    1    1    2    0    0  0.12123735337E+02  0.14160556962E+02  0.17812080935E+01  0.18726426094E+02  0.00000000000E+00 0.  1.
         11    1    3    3    0    0 -0.71670585742E+01 -0.27098968799E+02  0.19085480723E+02  0.33911302146E+02  0.51100000000E-03 0. -1.
        -11    1    3    3    0    0  0.11969218870E+02  0.90241851015E+01 -0.85787737538E+01  0.17271174728E+02  0.51100000000E-03 0.  1.
        -12    1    3    3    0    0 -0.16925895633E+02  0.39142267355E+01 -0.12287915063E+02  0.21279097032E+02  0.00000000000E+00 0.  1.
</event>
<event>
 7    1  0.2656097E-013  0.7246154E+02  0.7816164E-02  0.1226708E+00
        -11   -1    0    0    0    0  0.00000000000E+00  0.00000000000E+00  0.45593999997E+02  0.45594000000E+02  0.51100000000E-03 0.  1.
         11   -1    0    0    0    0 -0.00000000000E+00 -0.00000000000E+00 -0.45593999997E+02  0.45594000000E+02  0.51100000000E-03 0. -1.
    9900012    2    1    2    0    0 -0.78520504516E+01  0.12065873080E+02  0.11976656648E+02  0.72461540272E+02  0.69999960890E+02 0.  0.
        -12    1    1    2    0    0  0.78520504516E+01 -0.12065873080E+02 -0.11976656648E+02  0.18726459728E+02  0.00000000000E+00 0.  1.
         11    1    3    3    0    0 -0.18838088127E+02  0.34205312488E+01  0.18245832058E+02  0.26447759566E+02  0.51100000000E-03 0. -1.
        -11    1    3    3    0    0  0.12376814632E+02  0.34853930359E+01  0.17463660943E+02  0.21686700045E+02  0.51100000000E-03 0.  1.
        -12    1    3    3    0    0 -0.13907769568E+01  0.51599487957E+01 -0.23732836353E+02  0.24327080661E+02  0.00000000000E+00 0.  1.
</event>
<event>
 7    1  0.2656097E-013  0.7246156E+02  0.7816164E-02  0.1226708E+00
        -11   -1    0    0    0    0  0.00000000000E+00  0.00000000000E+00  0.45593999997E+02  0.45594000000E+02  0.51100000000E-03 0.  1.
         11   -1    0    0    0    0 -0.00000000000E+00 -0.00000000000E+00 -0.45593999997E+02  0.45594000000E+02  0.51100000000E-03 0. -1.
    9900012    2    1    2    0    0  0.15205544633E+02 -0.58290107920E+01 -0.92462718403E+01  0.72461561542E+02  0.69999988598E+02 0.  0.
        -12    1    1    2    0    0 -0.15205544633E+02  0.58290107920E+01  0.92462718403E+01  0.18726438458E+02  0.00000000000E+00 0.  1.
         11    1    3    3    0    0 -0.19702991504E+01 -0.11935885502E+02 -0.60482975457E+01  0.13525137520E+02  0.51100000000E-03 0. -1.
        -11    1    3    3    0    0  0.22478798494E+02  0.12776980134E+02  0.20982234921E+02  0.33298675433E+02  0.51100000000E-03 0.  1.
         12    1    3    3    0    0 -0.53029547109E+01 -0.66701054235E+01 -0.24180209215E+02  0.25637748589E+02  0.00000000000E+00 0. -1.
</event>
<event>
 7    1  0.2656097E-013  0.7246155E+02  0.7816164E-02  0.1226708E+00
        -11   -1    0    0    0    0  0.00000000000E+00  0.00000000000E+00  0.45593999997E+02  0.45594000000E+02  0.51100000000E-03 0. -1.
         11   -1    0    0    0    0 -0.00000000000E+00 -0.00000000000E+00 -0.45593999997E+02  0.45594000000E+02  0.51100000000E-03 0.  1.
    9900012    2    1    2    0    0  0.17319481031E+02  0.18259141141E+01  0.68834379168E+01  0.72461545368E+02  0.69999967529E+02 0.  0.
        -12    1    1    2    0    0 -0.17319481031E+02 -0.18259141141E+01 -0.68834379168E+01  0.18726454632E+02  0.00000000000E+00 0.  1.
         11    1    3    3    0    0 -0.15836675259E+01 -0.38041637522E+01  0.10669500857E+02  0.11437565890E+02  0.51100000000E-03 0. -1.
        -11    1    3    3    0    0 -0.95843596193E+01 -0.44810408224E+01 -0.22923073118E+02  0.25246919765E+02  0.51100000000E-03 0.  1.
        -12    1    3    3    0    0  0.28487508176E+02  0.10111118689E+02  0.19137010178E+02  0.35777059713E+02  0.00000000000E+00 0.  1.
</event>
<event>
 7    1  0.2656097E-013  0.7246157E+02  0.7816164E-02  0.1226708E+00
        -11   -1    0    0    0    0  0.00000000000E+00  0.00000000000E+00  0.45593999997E+02  0.45594000000E+02  0.51100000000E-03 0.  1.
         11   -1    0    0    0    0 -0.00000000000E+00 -0.00000000000E+00 -0.45593999997E+02  0.45594000000E+02  0.51100000000E-03 0. -1.
    9900012    2    1    2    0    0  0.10228740972E+02 -0.87722673269E+01 -0.13003822905E+02  0.72461568785E+02  0.69999998033E+02 0.  0.
        -12    1    1    2    0    0 -0.10228740972E+02  0.87722673269E+01  0.13003822905E+02  0.18726431215E+02  0.00000000000E+00 0.  1.
         11    1    3    3    0    0  0.57769786992E+01 -0.13398066565E+02 -0.92800594319E+01  0.17291650409E+02  0.51100000000E-03 0. -1.
        -11    1    3    3    0    0 -0.16365430016E+02 -0.17605311388E+02  0.22198398984E+01  0.24139220744E+02  0.51100000000E-03 0.  1.
         12    1    3    3    0    0  0.20817192289E+02  0.22231110626E+02 -0.59436033711E+01  0.31030697631E+02  0.00000000000E+00 0. -1.
</event>
<event>
 7    1  0.2656097E-013  0.7246156E+02  0.7816164E-02  0.1226708E+00
        -11   -1    0    0    0    0  0.00000000000E+00  0.00000000000E+00  0.45593999997E+02  0.45594000000E+02  0.51100000000E-03 0. -1.
         11   -1    0    0    0    0 -0.00000000000E+00 -0.00000000000E+00 -0.45593999997E+02  0.45594000000E+02  0.51100000000E-03 0.  1.
    9900012    2    1    2    0    0  0.17903494493E+02 -0.30672791563E+01  0.45536968247E+01  0.72461562238E+02  0.69999989505E+02 0.  0.
        -12    1    1    2    0    0 -0.17903494493E+02  0.30672791563E+01 -0.45536968247E+01  0.18726437762E+02  0.00000000000E+00 0.  1.
         11    1    3    3    0    0  0.24638083998E+02 -0.12324656814E+02  0.13498055845E+02  0.30677839893E+02  0.51100000000E-03 0. -1.
        -11    1    3    3    0    0 -0.54967550776E+01 -0.63289792219E+01  0.12618233014E+02  0.15148930623E+02  0.51100000000E-03 0.  1.
         12    1    3    3    0    0 -0.12378344271E+01  0.15586356879E+02 -0.21562592034E+02  0.26634791722E+02  0.00000000000E+00 0. -1.
</event>
<event>
 7    1  0.2656097E-013  0.7246156E+02  0.7816164E-02  0.1226708E+00
        -11   -1    0    0    0    0  0.00000000000E+00  0.00000000000E+00  0.45593999997E+02  0.45594000000E+02  0.51100000000E-03 0. -1.
         11   -1    0    0    0    0 -0.00000000000E+00 -0.00000000000E+00 -0.45593999997E+02  0.45594000000E+02  0.51100000000E-03 0.  1.
    9900012    2    1    2    0    0  0.16683185092E+02  0.18383286647E+01 -0.83049036191E+01  0.72461560370E+02  0.69999987072E+02 0.  0.
        -12    1    1    2    0    0 -0.16683185092E+02 -0.18383286647E+01  0.83049036191E+01  0.18726439630E+02  0.00000000000E+00 0.  1.
         11    1    3    3    0    0  0.19676235783E+02 -0.88950779041E+01  0.18676879772E+02  0.28550000066E+02  0.51100000000E-03 0. -1.
        -11    1    3    3    0    0  0.53288165980E+01 -0.37831171563E+01  0.47223322218E+01  0.80627962660E+01  0.51100000000E-03 0.  1.
        -12    1    3    3    0    0 -0.83218672894E+01  0.14516523725E+02 -0.31704115613E+02  0.35848764038E+02  0.00000000000E+00 0.  1.
</event>
<event>
 7    1  0.2656097E-013  0.7246155E+02  0.7816164E-02  0.1226708E+00
        -11   -1    0    0    0    0  0.00000000000E+00  0.00000000000E+00  0.45593999997E+02  0.45594000000E+02  0.51100000000E-03 0. -1.
         11   -1    0    0    0    0 -0.00000000000E+00 -0.00000000000E+00 -0.45593999997E+02  0.45594000000E+02  0.51100000000E-03 0.  1.
    9900012    2    1    2    0    0 -0.75958685314E+01  0.11881844149E+02  0.12320892897E+02  0.72461552369E+02  0.69999976648E+02 0.  0.
        -12    1    1    2    0    0  0.75958685314E+01 -0.11881844149E+02 -0.12320892897E+02  0.18726447631E+02  0.00000000000E+00 0.  1.
         11    1    3    3    0    0 -0.22283905275E+02  0.10522290022E+02  0.22501609509E+01  0.24745792494E+02  0.51100000000E-03 0. -1.
        -11    1    3    3    0    0  0.18894367048E+02  0.13369365216E+02  0.20763648494E+02  0.31094471075E+02  0.51100000000E-03 0.  1.
        -12    1    3    3    0    0 -0.42063303042E+01 -0.12009811089E+02 -0.10692916548E+02  0.16621288799E+02  0.00000000000E+00 0.  1.
</event>
<event>
 7    1  0.2656097E-013  0.7246157E+02  0.7816164E-02  0.1226708E+00
        -11   -1    0    0    0    0  0.00000000000E+00  0.00000000000E+00  0.45593999997E+02  0.45594000000E+02  0.51100000000E-03 0.  1.
         11   -1    0    0    0    0 -0.00000000000E+00 -0.00000000000E+00 -0.45593999997E+02  0.45594000000E+02  0.51100000000E-03 0. -1.
    9900012    2    1    2    0    0 -0.64661277717E+01 -0.14409242830E+02  0.10061917403E+02  0.72461567635E+02  0.69999996536E+02 0.  0.
        -12    1    1    2    0    0  0.64661277717E+01  0.14409242830E+02 -0.10061917403E+02  0.18726432365E+02  0.00000000000E+00 0.  1.
         11    1    3    3    0    0 -0.17988273000E+01 -0.83724497462E+01 -0.20231541680E+02  0.21969273393E+02  0.51100000000E-03 0. -1.
        -11    1    3    3    0    0  0.14002821730E+02  0.52117742322E+01  0.24643544031E+01  0.15143138708E+02  0.51100000000E-03 0.  1.
        -12    1    3    3    0    0 -0.18670122202E+02 -0.11248567316E+02  0.27829104680E+02  0.35349155534E+02  0.00000000000E+00 0.  1.
</event>
<event>
 7    1  0.2656097E-013  0.7246157E+02  0.7816164E-02  0.1226708E+00
        -11   -1    0    0    0    0  0.00000000000E+00  0.00000000000E+00  0.45593999997E+02  0.45594000000E+02  0.51100000000E-03 0.  1.
         11   -1    0    0    0    0 -0.00000000000E+00 -0.00000000000E+00 -0.45593999997E+02  0.45594000000E+02  0.51100000000E-03 0. -1.
    9900012    2    1    2    0    0 -0.26023456661E+01  0.16122463244E+01 -0.18474512189E+02  0.72461571035E+02  0.70000000965E+02 0.  0.
        -12    1    1    2    0    0  0.26023456661E+01 -0.16122463244E+01  0.18474512189E+02  0.18726428965E+02  0.00000000000E+00 0.  1.
         11    1    3    3    0    0 -0.16935781957E+02  0.11146950436E+02 -0.14361210605E+02  0.24845916865E+02  0.51100000000E-03 0. -1.
        -11    1    3    3    0    0  0.55467908620E+01  0.17673866518E+02  0.10816580156E+01  0.18555388190E+02  0.51100000000E-03 0.  1.
         12    1    3    3    0    0  0.87866454292E+01 -0.27208570630E+02 -0.51949595988E+01  0.29060265980E+02  0.00000000000E+00 0. -1.
</event>
<event>
 7    1  0.2656097E-013  0.7246191E+02  0.7816164E-02  0.1226707E+00
        -11   -1    0    0    0    0  0.00000000000E+00  0.00000000000E+00  0.45593999997E+02  0.45594000000E+02  0.51100000000E-03 0.  1.
         11   -1    0    0    0    0 -0.00000000000E+00 -0.00000000000E+00 -0.45593999997E+02  0.45594000000E+02  0.51100000000E-03 0. -1.
    9900012    2    1    2    0    0  0.85229010890E+00 -0.14037309453E+02 -0.12365033397E+02  0.72461908416E+02  0.70000440465E+02 0.  0.
        -12    1    1    2    0    0 -0.85229010890E+00  0.14037309453E+02  0.12365033397E+02  0.18726091584E+02  0.00000000000E+00 0.  1.
         11    1    3    3    0    0  0.56652938151E+01  0.41158629001E+01 -0.57188684790E+01  0.90410916578E+01  0.51100000000E-03 0. -1.
        -11    1    3    3    0    0  0.12511855297E+02  0.44257867333E+01 -0.25870776977E+02  0.29076299848E+02  0.51100000000E-03 0.  1.
        -12    1    3    3    0    0 -0.17324859004E+02 -0.22578959086E+02  0.19224612059E+02  0.34344516910E+02  0.00000000000E+00 0.  1.
</event>
<event>
 7    1  0.2656097E-013  0.7246163E+02  0.7816164E-02  0.1226708E+00
        -11   -1    0    0    0    0  0.00000000000E+00  0.00000000000E+00  0.45593999997E+02  0.45594000000E+02  0.51100000000E-03 0.  1.
         11   -1    0    0    0    0 -0.00000000000E+00 -0.00000000000E+00 -0.45593999997E+02  0.45594000000E+02  0.51100000000E-03 0. -1.
    9900012    2    1    2    0    0 -0.91778894684E+01 -0.76270974005E+01 -0.14431591213E+02  0.72461625690E+02  0.70000072163E+02 0.  0.
        -12    1    1    2    0    0  0.91778894684E+01  0.76270974005E+01  0.14431591213E+02  0.18726374310E+02  0.00000000000E+00 0.  1.
         11    1    3    3    0    0  0.27604596769E+01  0.29256254890E+01  0.61636499630E+00  0.40693154460E+01  0.51100000000E-03 0. -1.
        -11    1    3    3    0    0  0.62777630118E+01 -0.29298523110E+02 -0.26362509200E+02  0.39909844104E+02  0.51100000000E-03 0.  1.
         12    1    3    3    0    0 -0.18216112157E+02  0.18745800220E+02  0.11314552991E+02  0.28482466140E+02  0.00000000000E+00 0. -1.
</event>
<event>
 7    1  0.2656097E-013  0.7246155E+02  0.7816164E-02  0.1226708E+00
        -11   -1    0    0    0    0  0.00000000000E+00  0.00000000000E+00  0.45593999997E+02  0.45594000000E+02  0.51100000000E-03 0. -1.
         11   -1    0    0    0    0 -0.00000000000E+00 -0.00000000000E+00 -0.45593999997E+02  0.45594000000E+02  0.51100000000E-03 0.  1.
    9900012    2    1    2    0    0  0.15639703997E+02  0.90005890092E+01  0.50068846034E+01  0.72461552471E+02  0.69999976781E+02 0.  0.
        -12    1    1    2    0    0 -0.15639703997E+02 -0.90005890092E+01 -0.50068846034E+01  0.18726447529E+02  0.00000000000E+00 0.  1.
         11    1    3    3    0    0  0.17879092227E+02 -0.42405086244E+01  0.15790518626E+02  0.24227759513E+02  0.51100000000E-03 0. -1.
        -11    1    3    3    0    0 -0.10837896656E+02 -0.98533439746E+01  0.85065802768E+01  0.16938426718E+02  0.51100000000E-03 0.  1.
         12    1    3    3    0    0  0.85985084267E+01  0.23094441608E+02 -0.19290214300E+02  0.31295366240E+02  0.00000000000E+00 0. -1.
</event>
<event>
 7    1  0.2656097E-013  0.7246157E+02  0.7816164E-02  0.1226708E+00
        -11   -1    0    0    0    0  0.00000000000E+00  0.00000000000E+00  0.45593999997E+02  0.45594000000E+02  0.51100000000E-03 0.  1.
         11   -1    0    0    0    0 -0.00000000000E+00 -0.00000000000E+00 -0.45593999997E+02  0.45594000000E+02  0.51100000000E-03 0. -1.
    9900012    2    1    2    0    0 -0.49570791808E+01 -0.14314903216E+02 -0.11008644117E+02  0.72461565919E+02  0.69999994300E+02 0.  0.
        -12    1    1    2    0    0  0.49570791808E+01  0.14314903216E+02  0.11008644117E+02  0.18726434081E+02  0.00000000000E+00 0.  1.
         11    1    3    3    0    0 -0.19834342064E+02  0.13096668764E+02  0.22863973243E+01  0.23877844769E+02  0.51100000000E-03 0. -1.
        -11    1    3    3    0    0 -0.69682706298E+01  0.13021244523E+01  0.44571939680E+01  0.83737030034E+01  0.51100000000E-03 0.  1.
        -12    1    3    3    0    0  0.21845533513E+02 -0.28713696432E+02 -0.17752235410E+02  0.40210018146E+02  0.00000000000E+00 0.  1.
</event>
<event>
 7    1  0.2656097E-013  0.7246156E+02  0.7816164E-02  0.1226708E+00
        -11   -1    0    0    0    0  0.00000000000E+00  0.00000000000E+00  0.45593999997E+02  0.45594000000E+02  0.51100000000E-03 0.  1.
         11   -1    0    0    0    0 -0.00000000000E+00 -0.00000000000E+00 -0.45593999997E+02  0.45594000000E+02  0.51100000000E-03 0. -1.
    9900012    2    1    2    0    0  0.40092547448E+01 -0.99846754754E+01 -0.15326832065E+02  0.72461557489E+02  0.69999983319E+02 0.  0.
        -12    1    1    2    0    0 -0.40092547448E+01  0.99846754754E+01  0.15326832065E+02  0.18726442511E+02  0.00000000000E+00 0.  1.
         11    1    3    3    0    0 -0.15880561663E+01 -0.27109876292E+02 -0.44928084766E+01  0.27525490790E+02  0.51100000000E-03 0. -1.
        -11    1    3    3    0    0 -0.74998350420E+01 -0.89633812318E-01  0.11573605198E+02  0.13791442906E+02  0.51100000000E-03 0.  1.
        -12    1    3    3    0    0  0.13097145953E+02  0.17214834629E+02 -0.22407628787E+02  0.31144623794E+02  0.00000000000E+00 0.  1.
</event>
<event>
 7    1  0.2656097E-013  0.7246137E+02  0.7816164E-02  0.1226709E+00
        -11   -1    0    0    0    0  0.00000000000E+00  0.00000000000E+00  0.45593999997E+02  0.45594000000E+02  0.51100000000E-03 0. -1.
         11   -1    0    0    0    0 -0.00000000000E+00 -0.00000000000E+00 -0.45593999997E+02  0.45594000000E+02  0.51100000000E-03 0.  1.
    9900012    2    1    2    0    0  0.86872547807E+01  0.33648603557E+01  0.16244876791E+02  0.72461369155E+02  0.69999737978E+02 0.  0.
        -12    1    1    2    0    0 -0.86872547807E+01 -0.33648603557E+01 -0.16244876791E+02  0.18726630845E+02  0.00000000000E+00 0.  1.
         11    1    3    3    0    0  0.13443129304E+02 -0.82793886638E+01  0.22976244770E+02  0.27877837544E+02  0.51100000000E-03 0. -1.
        -11    1    3    3    0    0  0.51214553567E+01  0.14870379437E+02  0.14216196106E+02  0.21200417957E+02  0.51100000000E-03 0.  1.
         12    1    3    3    0    0 -0.98773298805E+01 -0.32261304176E+01 -0.20947564085E+02  0.23383113653E+02  0.00000000000E+00 0. -1.
</event>
<event>
 7    1  0.2656097E-013  0.7246157E+02  0.7816164E-02  0.1226708E+00
        -11   -1    0    0    0    0  0.00000000000E+00  0.00000000000E+00  0.45593999997E+02  0.45594000000E+02  0.51100000000E-03 0.  1.
         11   -1    0    0    0    0 -0.00000000000E+00 -0.00000000000E+00 -0.45593999997E+02  0.45594000000E+02  0.51100000000E-03 0. -1.
    9900012    2    1    2    0    0 -0.13208668081E+01  0.60846462178E+01  0.17661013526E+02  0.72461574620E+02  0.70000005635E+02 0.  0.
        -12    1    1    2    0    0  0.13208668081E+01 -0.60846462178E+01 -0.17661013526E+02  0.18726425380E+02  0.00000000000E+00 0.  1.
         11    1    3    3    0    0 -0.23227921352E+02  0.22529920649E+02  0.14180895998E+02  0.35330319364E+02  0.51100000000E-03 0. -1.
        -11    1    3    3    0    0 -0.35049508767E+01  0.31044831182E+01  0.18296520462E+01  0.50269397203E+01  0.51100000000E-03 0.  1.
        -12    1    3    3    0    0  0.25412005420E+02 -0.19549757550E+02  0.16504654818E+01  0.32104315536E+02  0.00000000000E+00 0.  1.
</event>
<event>
 7    1  0.2656097E-013  0.7246156E+02  0.7816164E-02  0.1226708E+00
        -11   -1    0    0    0    0  0.00000000000E+00  0.00000000000E+00  0.45593999997E+02  0.45594000000E+02  0.51100000000E-03 0. -1.
         11   -1    0    0    0    0 -0.00000000000E+00 -0.00000000000E+00 -0.45593999997E+02  0.45594000000E+02  0.51100000000E-03 0.  1.
    9900012    2    1    2    0    0 -0.26892079255E+01  0.91042858380E+01  0.16141856424E+02  0.72461564442E+02  0.69999992376E+02 0.  0.
        -12    1    1    2    0    0  0.26892079255E+01 -0.91042858380E+01 -0.16141856424E+02  0.18726435558E+02  0.00000000000E+00 0.  1.
         11    1    3    3    0    0  0.59696611249E+00  0.17213625960E+02  0.14814526279E+02  0.22718615195E+02  0.51100000000E-03 0. -1.
        -11    1    3    3    0    0  0.13502710273E+02  0.14653714754E+02  0.65600767402E+01  0.20978301836E+02  0.51100000000E-03 0.  1.
        -12    1    3    3    0    0 -0.16788884311E+02 -0.22763054877E+02 -0.52327465949E+01  0.28764647411E+02  0.00000000000E+00 0.  1.
</event>
<event>
 7    1  0.2656097E-013  0.7246158E+02  0.7816164E-02  0.1226708E+00
        -11   -1    0    0    0    0  0.00000000000E+00  0.00000000000E+00  0.45593999997E+02  0.45594000000E+02  0.51100000000E-03 0. -1.
         11   -1    0    0    0    0 -0.00000000000E+00 -0.00000000000E+00 -0.45593999997E+02  0.45594000000E+02  0.51100000000E-03 0.  1.
    9900012    2    1    2    0    0  0.93996474919E+01  0.16089584888E+02  0.18575958336E+01  0.72461580771E+02  0.70000013648E+02 0.  0.
        -12    1    1    2    0    0 -0.93996474919E+01 -0.16089584888E+02 -0.18575958336E+01  0.18726419229E+02  0.00000000000E+00 0.  1.
         11    1    3    3    0    0  0.27600832012E+02 -0.14735342734E+02  0.11049861739E+02  0.33181857964E+02  0.51100000000E-03 0. -1.
        -11    1    3    3    0    0  0.16065864301E+00 -0.80640880374E+00  0.10162133985E+01  0.13072093523E+01  0.51100000000E-03 0.  1.
        -12    1    3    3    0    0 -0.18361843163E+02  0.31631336425E+02 -0.10208479303E+02  0.37972513455E+02  0.00000000000E+00 0.  1.
</event>
<event>
 7    1  0.2656097E-013  0.7246143E+02  0.7816164E-02  0.1226708E+00
        -11   -1    0    0    0    0  0.00000000000E+00  0.00000000000E+00  0.45593999997E+02  0.45594000000E+02  0.51100000000E-03 0.  1.
         11   -1    0    0    0    0 -0.00000000000E+00 -0.00000000000E+00 -0.45593999997E+02  0.45594000000E+02  0.51100000000E-03 0. -1.
    9900012    2    1    2    0    0 -0.15691941107E+02  0.85143822571E+01 -0.56526613489E+01  0.72461433276E+02  0.69999821508E+02 0.  0.
        -12    1    1    2    0    0  0.15691941107E+02 -0.85143822571E+01  0.56526613489E+01  0.18726566724E+02  0.00000000000E+00 0.  1.
         11    1    3    3    0    0 -0.10619842290E+01 -0.85689798097E+01 -0.19200979772E+02  0.21053095970E+02  0.51100000000E-03 0. -1.
        -11    1    3    3    0    0  0.66558693354E+01 -0.32761448625E+01  0.19933531188E+02  0.21269212201E+02  0.51100000000E-03 0.  1.
        -12    1    3    3    0    0 -0.21285826214E+02  0.20359506929E+02 -0.63852127654E+01  0.30139125105E+02  0.00000000000E+00 0.  1.
</event>
<event>
 7    1  0.2656097E-013  0.7246153E+02  0.7816164E-02  0.1226708E+00
        -11   -1    0    0    0    0  0.00000000000E+00  0.00000000000E+00  0.45593999997E+02  0.45594000000E+02  0.51100000000E-03 0. -1.
         11   -1    0    0    0    0 -0.00000000000E+00 -0.00000000000E+00 -0.45593999997E+02  0.45594000000E+02  0.51100000000E-03 0.  1.
    9900012    2    1    2    0    0  0.35187801213E+00  0.16822171114E+02  0.82201886469E+01  0.72461527814E+02  0.69999944662E+02 0.  0.
        -12    1    1    2    0    0 -0.35187801213E+00 -0.16822171114E+02 -0.82201886469E+01  0.18726472186E+02  0.00000000000E+00 0.  1.
         11    1    3    3    0    0 -0.25570868046E+01 -0.96537728932E+01  0.51944934361E+01  0.11256855081E+02  0.51100000000E-03 0.  1.
        -11    1    3    3    0    0  0.26090224171E+02  0.13238134738E+01 -0.35783115679E+01  0.26367718774E+02  0.51100000000E-03 0. -1.
         12    1    3    3    0    0 -0.23181259354E+02  0.25152130533E+02  0.66040067787E+01  0.34836953959E+02  0.00000000000E+00 0. -1.
</event>
<event>
 7    1  0.2656097E-013  0.7246123E+02  0.7816164E-02  0.1226709E+00
        -11   -1    0    0    0    0  0.00000000000E+00  0.00000000000E+00  0.45593999997E+02  0.45594000000E+02  0.51100000000E-03 0.  1.
         11   -1    0    0    0    0 -0.00000000000E+00 -0.00000000000E+00 -0.45593999997E+02  0.45594000000E+02  0.51100000000E-03 0. -1.
    9900012    2    1    2    0    0 -0.76844884621E+01 -0.15695439521E+02 -0.67300632435E+01  0.72461229431E+02  0.69999555961E+02 0.  0.
        -12    1    1    2    0    0  0.76844884621E+01  0.15695439521E+02  0.67300632435E+01  0.18726770569E+02  0.00000000000E+00 0.  1.
         11    1    3    3    0    0  0.19645154159E+02 -0.13028732533E+02 -0.64683054643E+01  0.24444200318E+02  0.51100000000E-03 0. -1.
        -11    1    3    3    0    0  0.45836479261E+00  0.13511141155E+02  0.67450885516E+01  0.15108184981E+02  0.51100000000E-03 0.  1.
        -12    1    3    3    0    0 -0.27788007414E+02 -0.16177848143E+02 -0.70068463308E+01  0.32908844132E+02  0.00000000000E+00 0.  1.
</event>
<event>
 7    1  0.2656097E-013  0.7246160E+02  0.7816164E-02  0.1226708E+00
        -11   -1    0    0    0    0  0.00000000000E+00  0.00000000000E+00  0.45593999997E+02  0.45594000000E+02  0.51100000000E-03 0. -1.
         11   -1    0    0    0    0 -0.00000000000E+00 -0.00000000000E+00 -0.45593999997E+02  0.45594000000E+02  0.51100000000E-03 0.  1.
    9900012    2    1    2    0    0 -0.16032792070E+02 -0.95429028941E+01  0.16002380507E+01  0.72461596740E+02  0.70000034451E+02 0.  0.
        -12    1    1    2    0    0  0.16032792070E+02  0.95429028941E+01 -0.16002380507E+01  0.18726403260E+02  0.00000000000E+00 0.  1.
         11    1    3    3    0    0 -0.72898845238E+01  0.16024189362E+02 -0.81534693321E+01  0.19400930995E+02  0.51100000000E-03 0.  1.
        -11    1    3    3    0    0  0.87561765720E+01  0.95144061814E+01  0.30932271597E+01  0.13295209952E+02  0.51100000000E-03 0. -1.
         12    1    3    3    0    0 -0.17499084119E+02 -0.35081498438E+02  0.66604802231E+01  0.39765455793E+02  0.00000000000E+00 0. -1.
</event>
<event>
 7    1  0.2656097E-013  0.7246157E+02  0.7816164E-02  0.1226708E+00
        -11   -1    0    0    0    0  0.00000000000E+00  0.00000000000E+00  0.45593999997E+02  0.45594000000E+02  0.51100000000E-03 0.  1.
         11   -1    0    0    0    0 -0.00000000000E+00 -0.00000000000E+00 -0.45593999997E+02  0.45594000000E+02  0.51100000000E-03 0. -1.
    9900012    2    1    2    0    0  0.16663838492E+02 -0.10230589805E+01 -0.84822714416E+01  0.72461572370E+02  0.70000002704E+02 0.  0.
        -12    1    1    2    0    0 -0.16663838492E+02  0.10230589805E+01  0.84822714416E+01  0.18726427630E+02  0.00000000000E+00 0.  1.
         11    1    3    3    0    0  0.90293559744E+01 -0.25616639526E+01 -0.54847832006E+01  0.10870797512E+02  0.51100000000E-03 0. -1.
        -11    1    3    3    0    0  0.26470650431E+02 -0.18096771418E+02  0.66015062323E+01  0.32737873401E+02  0.51100000000E-03 0.  1.
        -12    1    3    3    0    0 -0.18836167914E+02  0.19635376390E+02 -0.95989944732E+01  0.28852901458E+02  0.00000000000E+00 0.  1.
</event>
<event>
 7    1  0.2656097E-013  0.7246157E+02  0.7816164E-02  0.1226708E+00
        -11   -1    0    0    0    0  0.00000000000E+00  0.00000000000E+00  0.45593999997E+02  0.45594000000E+02  0.51100000000E-03 0.  1.
         11   -1    0    0    0    0 -0.00000000000E+00 -0.00000000000E+00 -0.45593999997E+02  0.45594000000E+02  0.51100000000E-03 0. -1.
    9900012    2    1    2    0    0 -0.69539810653E+01 -0.11806454746E+02 -0.12764359211E+02  0.72461572354E+02  0.70000002683E+02 0.  0.
        -12    1    1    2    0    0  0.69539810653E+01  0.11806454746E+02  0.12764359211E+02  0.18726427646E+02  0.00000000000E+00 0.  1.
         11    1    3    3    0    0 -0.15329436159E+02 -0.34098476474E+01 -0.89179454689E+01  0.18059579884E+02  0.51100000000E-03 0. -1.
        -11    1    3    3    0    0  0.56937584645E+01  0.15955018359E+02 -0.19109698181E+02  0.25537463874E+02  0.51100000000E-03 0.  1.
        -12    1    3    3    0    0  0.26816966290E+01 -0.24351625457E+02  0.15263284439E+02  0.28864528596E+02  0.00000000000E+00 0.  1.
</event>
<event>
 7    1  0.2656097E-013  0.7246130E+02  0.7816164E-02  0.1226709E+00
        -11   -1    0    0    0    0  0.00000000000E+00  0.00000000000E+00  0.45593999997E+02  0.45594000000E+02  0.51100000000E-03 0.  1.
         11   -1    0    0    0    0 -0.00000000000E+00 -0.00000000000E+00 -0.45593999997E+02  0.45594000000E+02  0.51100000000E-03 0. -1.
    9900012    2    1    2    0    0  0.14151756323E+02 -0.45576945443E+01 -0.11386148808E+02  0.72461303248E+02  0.69999652121E+02 0.  0.
        -12    1    1    2    0    0 -0.14151756323E+02  0.45576945443E+01  0.11386148808E+02  0.18726696752E+02  0.00000000000E+00 0.  1.
         11    1    3    3    0    0  0.62410204992E+01 -0.43894313013E+01  0.43181763706E+00  0.76422451383E+01  0.51100000000E-03 0. -1.
        -11    1    3    3    0    0 -0.28396077942E+01 -0.13509530592E+02  0.22536855660E+02  0.26428784546E+02  0.51100000000E-03 0.  1.
         12    1    3    3    0    0  0.10750343618E+02  0.13341267349E+02 -0.34354822106E+02  0.38390273564E+02  0.00000000000E+00 0. -1.
</event>
<event>
 7    1  0.2656097E-013  0.7246158E+02  0.7816164E-02  0.1226708E+00
        -11   -1    0    0    0    0  0.00000000000E+00  0.00000000000E+00  0.45593999997E+02  0.45594000000E+02  0.51100000000E-03 0.  1.
         11   -1    0    0    0    0 -0.00000000000E+00 -0.00000000000E+00 -0.45593999997E+02  0.45594000000E+02  0.51100000000E-03 0. -1.
    9900012    2    1    2    0    0  0.53405042629E+01 -0.41340620769E+01 -0.17466173782E+02  0.72461583322E+02  0.70000016971E+02 0.  0.
        -12    1    1    2    0    0 -0.53405042629E+01  0.41340620769E+01  0.17466173782E+02  0.18726416678E+02  0.00000000000E+00 0.  1.
         11    1    3    3    0    0  0.17770457653E+02  0.72061347629E+01 -0.34217272772E+02  0.39224218279E+02  0.51100000000E-03 0. -1.
        -11    1    3    3    0    0 -0.15720807461E+01 -0.22324539869E+01 -0.59096670534E+01  0.65099503546E+01  0.51100000000E-03 0.  1.
        -12    1    3    3    0    0 -0.10857872644E+02 -0.91077428529E+01  0.22660766043E+02  0.26727414688E+02  0.00000000000E+00 0.  1.
</event>
<event>
 7    1  0.2656097E-013  0.7246158E+02  0.7816164E-02  0.1226708E+00
        -11   -1    0    0    0    0  0.00000000000E+00  0.00000000000E+00  0.45593999997E+02  0.45594000000E+02  0.51100000000E-03 0. -1.
         11   -1    0    0    0    0 -0.00000000000E+00 -0.00000000000E+00 -0.45593999997E+02  0.45594000000E+02  0.51100000000E-03 0.  1.
    9900012    2    1    2    0    0  0.90061617429E+01  0.12851598771E+02  0.10217834904E+02  0.72461583086E+02  0.70000016663E+02 0.  0.
        -12    1    1    2    0    0 -0.90061617429E+01 -0.12851598771E+02 -0.10217834904E+02  0.18726416914E+02  0.00000000000E+00 0.  1.
         11    1    3    3    0    0 -0.17583390549E+02  0.23944145827E+00  0.94588698984E+01  0.19967553066E+02  0.51100000000E-03 0. -1.
        -11    1    3    3    0    0 -0.14601090497E+01  0.22504009165E+02  0.25635562177E+01  0.22696567311E+02  0.51100000000E-03 0.  1.
        -12    1    3    3    0    0  0.28049661342E+02 -0.98918518521E+01 -0.18045912116E+01  0.29797462709E+02  0.00000000000E+00 0.  1.
</event>
<event>
 7    1  0.2656097E-013  0.7246157E+02  0.7816164E-02  0.1226708E+00
        -11   -1    0    0    0    0  0.00000000000E+00  0.00000000000E+00  0.45593999997E+02  0.45594000000E+02  0.51100000000E-03 0. -1.
         11   -1    0    0    0    0 -0.00000000000E+00 -0.00000000000E+00 -0.45593999997E+02  0.45594000000E+02  0.51100000000E-03 0.  1.
    9900012    2    1    2    0    0  0.90184695449E+01 -0.15344539865E+02  0.58216550378E+01  0.72461565102E+02  0.69999993236E+02 0.  0.
        -12    1    1    2    0    0 -0.90184695449E+01  0.15344539865E+02 -0.58216550378E+01  0.18726434898E+02  0.00000000000E+00 0.  1.
         11    1    3    3    0    0  0.68790750045E+01  0.21352920491E+02 -0.42848901608E-01  0.22433696144E+02  0.51100000000E-03 0. -1.
        -11    1    3    3    0    0  0.53457876008E+01  0.51739357412E+01 -0.89551524837E+00  0.74932639049E+01  0.51100000000E-03 0.  1.
        -12    1    3    3    0    0 -0.32063930604E+01 -0.41871396097E+02  0.67600191878E+01  0.42534605053E+02  0.00000000000E+00 0.  1.
</event>
<event>
 7    1  0.2656097E-013  0.7246157E+02  0.7816164E-02  0.1226708E+00
        -11   -1    0    0    0    0  0.00000000000E+00  0.00000000000E+00  0.45593999997E+02  0.45594000000E+02  0.51100000000E-03 0. -1.
         11   -1    0    0    0    0 -0.00000000000E+00 -0.00000000000E+00 -0.45593999997E+02  0.45594000000E+02  0.51100000000E-03 0.  1.
    9900012    2    1    2    0    0  0.59326686839E+01 -0.21192879215E+01  0.17634944251E+02  0.72461569541E+02  0.69999999019E+02 0.  0.
        -12    1    1    2    0    0 -0.59326686839E+01  0.21192879215E+01 -0.17634944251E+02  0.18726430459E+02  0.00000000000E+00 0.  1.
         11    1    3    3    0    0  0.64289410905E+01  0.58790241281E+01 -0.36561110311E+01  0.94478228380E+01  0.51100000000E-03 0. -1.
        -11    1    3    3    0    0  0.50209525049E+01 -0.23500932730E+02 -0.11261063948E+02  0.26538940535E+02  0.51100000000E-03 0.  1.
         12    1    3    3    0    0 -0.55172249115E+01  0.15502620680E+02  0.32552119230E+02  0.36474806168E+02  0.00000000000E+00 0. -1.
</event>
<event>
 7    1  0.2656097E-013  0.7246159E+02  0.7816164E-02  0.1226708E+00
        -11   -1    0    0    0    0  0.00000000000E+00  0.00000000000E+00  0.45593999997E+02  0.45594000000E+02  0.51100000000E-03 0. -1.
         11   -1    0    0    0    0 -0.00000000000E+00 -0.00000000000E+00 -0.45593999997E+02  0.45594000000E+02  0.51100000000E-03 0.  1.
    9900012    2    1    2    0    0 -0.14051220138E+02  0.11521966387E+01 -0.12325347730E+02  0.72461587073E+02  0.70000021857E+02 0.  0.
        -12    1    1    2    0    0  0.14051220138E+02 -0.11521966387E+01  0.12325347730E+02  0.18726412927E+02  0.00000000000E+00 0.  1.
         11    1    3    3    0    0  0.16268042763E+02  0.75080434742E+01 -0.19627005343E+02  0.26575162673E+02  0.51100000000E-03 0. -1.
        -11    1    3    3    0    0 -0.34408564036E+01 -0.44532083548E+01 -0.11653717359E+02  0.12941394283E+02  0.51100000000E-03 0.  1.
         12    1    3    3    0    0 -0.26878406497E+02 -0.19026384808E+01  0.18955374972E+02  0.32945030116E+02  0.00000000000E+00 0. -1.
</event>
<event>
 7    1  0.2656097E-013  0.7246157E+02  0.7816164E-02  0.1226708E+00
        -11   -1    0    0    0    0  0.00000000000E+00  0.00000000000E+00  0.45593999997E+02  0.45594000000E+02  0.51100000000E-03 0. -1.
         11   -1    0    0    0    0 -0.00000000000E+00 -0.00000000000E+00 -0.45593999997E+02  0.45594000000E+02  0.51100000000E-03 0.  1.
    9900012    2    1    2    0    0 -0.11412642246E+02 -0.13074692835E+02  0.70344199180E+01  0.72461573236E+02  0.70000003832E+02 0.  0.
        -12    1    1    2    0    0  0.11412642246E+02  0.13074692835E+02 -0.70344199180E+01  0.18726426764E+02  0.00000000000E+00 0.  1.
         11    1    3    3    0    0  0.23528008860E+01 -0.14310994099E+02  0.12938283578E+02  0.19435519193E+02  0.51100000000E-03 0. -1.
        -11    1    3    3    0    0  0.61921684935E+01 -0.15183899246E+02 -0.18121484544E+02  0.24439352473E+02  0.51100000000E-03 0.  1.
         12    1    3    3    0    0 -0.19957611626E+02  0.16420200509E+02  0.12217620885E+02  0.28586701570E+02  0.00000000000E+00 0. -1.
</event>
<event>
 7    1  0.2656097E-013  0.7246161E+02  0.7816164E-02  0.1226708E+00
        -11   -1    0    0    0    0  0.00000000000E+00  0.00000000000E+00  0.45593999997E+02  0.45594000000E+02  0.51100000000E-03 0. -1.
         11   -1    0    0    0    0 -0.00000000000E+00 -0.00000000000E+00 -0.45593999997E+02  0.45594000000E+02  0.51100000000E-03 0.  1.
    9900012    2    1    2    0    0 -0.70986910341E+01 -0.12054505063E+02  0.12448906609E+02  0.72461607329E+02  0.70000048244E+02 0.  0.
        -12    1    1    2    0    0  0.70986910341E+01  0.12054505063E+02 -0.12448906609E+02  0.18726392671E+02  0.00000000000E+00 0.  1.
         11    1    3    3    0    0  0.62694007304E+01 -0.10615705363E+02  0.29036385038E+02  0.31545367999E+02  0.51100000000E-03 0. -1.
        -11    1    3    3    0    0 -0.94891324049E+01  0.16508048319E+02 -0.83036528056E+01  0.20772817413E+02  0.51100000000E-03 0.  1.
        -12    1    3    3    0    0 -0.38789593596E+01 -0.17946848019E+02 -0.82838256233E+01  0.20143421916E+02  0.00000000000E+00 0.  1.
</event>
<event>
 7    1  0.2656097E-013  0.7246157E+02  0.7816164E-02  0.1226708E+00
        -11   -1    0    0    0    0  0.00000000000E+00  0.00000000000E+00  0.45593999997E+02  0.45594000000E+02  0.51100000000E-03 0. -1.
         11   -1    0    0    0    0 -0.00000000000E+00 -0.00000000000E+00 -0.45593999997E+02  0.45594000000E+02  0.51100000000E-03 0.  1.
    9900012    2    1    2    0    0  0.18713272331E+02  0.60237882822E+00 -0.36029299747E+00  0.72461568610E+02  0.69999997805E+02 0.  0.
        -12    1    1    2    0    0 -0.18713272331E+02 -0.60237882822E+00  0.36029299747E+00  0.18726431390E+02  0.00000000000E+00 0.  1.
         11    1    3    3    0    0  0.17107699259E+01 -0.13705502337E+02  0.13295572690E+02  0.19171327066E+02  0.51100000000E-03 0. -1.
        -11    1    3    3    0    0  0.71136301223E+01  0.17525974661E+02  0.14138025113E+02  0.23614556436E+02  0.51100000000E-03 0.  1.
        -12    1    3    3    0    0  0.98888722825E+01 -0.32180934954E+01 -0.27793890801E+02  0.29675685108E+02  0.00000000000E+00 0.  1.
</event>
<event>
 7    1  0.2656097E-013  0.7246156E+02  0.7816164E-02  0.1226708E+00
        -11   -1    0    0    0    0  0.00000000000E+00  0.00000000000E+00  0.45593999997E+02  0.45594000000E+02  0.51100000000E-03 0. -1.
         11   -1    0    0    0    0 -0.00000000000E+00 -0.00000000000E+00 -0.45593999997E+02  0.45594000000E+02  0.51100000000E-03 0.  1.
    9900012    2    1    2    0    0  0.91553314785E+01  0.71310171175E+01  0.14697207496E+02  0.72461563933E+02  0.69999991713E+02 0.  0.
        -12    1    1    2    0    0 -0.91553314785E+01 -0.71310171175E+01 -0.14697207496E+02  0.18726436067E+02  0.00000000000E+00 0.  1.
         11    1    3    3    0    0 -0.63659830007E+01  0.10027231115E+02  0.35546245114E+02  0.37478082200E+02  0.51100000000E-03 0. -1.
        -11    1    3    3    0    0 -0.66027035645E+00  0.22294988068E+01  0.41555596061E+01  0.47618586470E+01  0.51100000000E-03 0.  1.
        -12    1    3    3    0    0  0.16181584836E+02 -0.51257128047E+01 -0.25004597225E+02  0.30221623085E+02  0.00000000000E+00 0.  1.
</event>
<event>
 7    1  0.2656097E-013  0.7246157E+02  0.7816164E-02  0.1226708E+00
        -11   -1    0    0    0    0  0.00000000000E+00  0.00000000000E+00  0.45593999997E+02  0.45594000000E+02  0.51100000000E-03 0.  1.
         11   -1    0    0    0    0 -0.00000000000E+00 -0.00000000000E+00 -0.45593999997E+02  0.45594000000E+02  0.51100000000E-03 0. -1.
    9900012    2    1    2    0    0 -0.57057079260E+00 -0.10554158155E+02 -0.15458441592E+02  0.72461568897E+02  0.69999998180E+02 0.  0.
        -12    1    1    2    0    0  0.57057079260E+00  0.10554158155E+02  0.15458441592E+02  0.18726431103E+02  0.00000000000E+00 0.  1.
         11    1    3    3    0    0  0.14142094155E+02  0.10713146649E+02 -0.19873954674E+01  0.17852733102E+02  0.51100000000E-03 0. -1.
        -11    1    3    3    0    0  0.12962479869E+02 -0.19454492932E+02  0.85469406183E+00  0.23393026349E+02  0.51100000000E-03 0.  1.
         12    1    3    3    0    0 -0.27675144816E+02 -0.18128118721E+01 -0.14325740186E+02  0.31215809446E+02  0.00000000000E+00 0. -1.
</event>
<event>
 7    1  0.2656097E-013  0.7246078E+02  0.7816164E-02  0.1226710E+00
        -11   -1    0    0    0    0  0.00000000000E+00  0.00000000000E+00  0.45593999997E+02  0.45594000000E+02  0.51100000000E-03 0.  1.
         11   -1    0    0    0    0 -0.00000000000E+00 -0.00000000000E+00 -0.45593999997E+02  0.45594000000E+02  0.51100000000E-03 0. -1.
    9900012    2    1    2    0    0  0.15767484841E+02  0.56479110717E+00 -0.10088423047E+02  0.72460777921E+02  0.69998967779E+02 0.  0.
        -12    1    1    2    0    0 -0.15767484841E+02 -0.56479110717E+00  0.10088423047E+02  0.18727222079E+02  0.00000000000E+00 0.  1.
         11    1    3    3    0    0 -0.13580788784E+02  0.16624378522E+01 -0.23808766797E+02  0.27460132925E+02  0.51100000000E-03 0. -1.
        -11    1    3    3    0    0  0.99539028391E+01 -0.14377552316E+02 -0.56274540570E+00  0.17496024548E+02  0.51100000000E-03 0.  1.
        -12    1    3    3    0    0  0.19394370786E+02  0.13279905571E+02  0.14283089156E+02  0.27504620448E+02  0.00000000000E+00 0.  1.
</event>
<event>
 7    1  0.2656097E-013  0.7246155E+02  0.7816164E-02  0.1226708E+00
        -11   -1    0    0    0    0  0.00000000000E+00  0.00000000000E+00  0.45593999997E+02  0.45594000000E+02  0.51100000000E-03 0. -1.
         11   -1    0    0    0    0 -0.00000000000E+00 -0.00000000000E+00 -0.45593999997E+02  0.45594000000E+02  0.51100000000E-03 0.  1.
    9900012    2    1    2    0    0  0.11295463764E+01  0.12719777824E+02  0.13697134348E+02  0.72461545123E+02  0.69999967210E+02 0.  0.
        -12    1    1    2    0    0 -0.11295463764E+01 -0.12719777824E+02 -0.13697134348E+02  0.18726454877E+02  0.00000000000E+00 0.  1.
         11    1    3    3    0    0 -0.27163120582E+01 -0.18823319566E+02  0.84065830261E+01  0.20793420814E+02  0.51100000000E-03 0. -1.
        -11    1    3    3    0    0  0.47615788694E+01  0.46885798025E+01  0.19963881889E+02  0.21052600653E+02  0.51100000000E-03 0.  1.
        -12    1    3    3    0    0 -0.91572043482E+00  0.26854517588E+02 -0.14673330568E+02  0.30615523657E+02  0.00000000000E+00 0.  1.
</event>
<event>
 7    1  0.2656097E-013  0.7246138E+02  0.7816164E-02  0.1226709E+00
        -11   -1    0    0    0    0  0.00000000000E+00  0.00000000000E+00  0.45593999997E+02  0.45594000000E+02  0.51100000000E-03 0. -1.
         11   -1    0    0    0    0 -0.00000000000E+00 -0.00000000000E+00 -0.45593999997E+02  0.45594000000E+02  0.51100000000E-03 0.  1.
    9900012    2    1    2    0    0 -0.13898140587E+02 -0.69383721231E+01  0.10458814728E+02  0.72461384582E+02  0.69999758075E+02 0.  0.
        -12    1    1    2    0    0  0.13898140587E+02  0.69383721231E+01 -0.10458814728E+02  0.18726615418E+02  0.00000000000E+00 0.  1.
         11    1    3    3    0    0 -0.15786492377E+02 -0.33569872657E+02 -0.21796461340E+01  0.37160470251E+02  0.51100000000E-03 0. -1.
        -11    1    3    3    0    0  0.65968351887E+01  0.20263447412E+01 -0.67038737660E+00  0.69335219775E+01  0.51100000000E-03 0.  1.
        -12    1    3    3    0    0 -0.47084833984E+01  0.24605155793E+02  0.13308848239E+02  0.28367392353E+02  0.00000000000E+00 0.  1.
</event>
<event>
 7    1  0.2656097E-013  0.7246139E+02  0.7816164E-02  0.1226708E+00
        -11   -1    0    0    0    0  0.00000000000E+00  0.00000000000E+00  0.45593999997E+02  0.45594000000E+02  0.51100000000E-03 0.  1.
         11   -1    0    0    0    0 -0.00000000000E+00 -0.00000000000E+00 -0.45593999997E+02  0.45594000000E+02  0.51100000000E-03 0. -1.
    9900012    2    1    2    0    0 -0.29824696965E+01  0.82972694997E+01 -0.16521075346E+02  0.72461394936E+02  0.69999771562E+02 0.  0.
        -12    1    1    2    0    0  0.29824696965E+01 -0.82972694997E+01  0.16521075346E+02  0.18726605064E+02  0.00000000000E+00 0.  1.
         11    1    3    3    0    0 -0.20891487200E+01  0.21225408082E+01  0.15360717653E+02  0.15646768642E+02  0.51100000000E-03 0. -1.
        -11    1    3    3    0    0  0.11889793544E+02  0.61513346505E+01  0.75454710917E+01  0.15366855331E+02  0.51100000000E-03 0.  1.
         12    1    3    3    0    0 -0.12783114520E+02  0.23394041016E-01 -0.39427264091E+02  0.41447770963E+02  0.00000000000E+00 0. -1.
</event>
<event>
 7    1  0.2656097E-013  0.7246117E+02  0.7816164E-02  0.1226709E+00
        -11   -1    0    0    0    0  0.00000000000E+00  0.00000000000E+00  0.45593999997E+02  0.45594000000E+02  0.51100000000E-03 0.  1.
         11   -1    0    0    0    0 -0.00000000000E+00 -0.00000000000E+00 -0.45593999997E+02  0.45594000000E+02  0.51100000000E-03 0. -1.
    9900012    2    1    2    0    0  0.53083317324E+01 -0.17689102947E+02  0.31002220371E+01  0.72461170969E+02  0.69999479803E+02 0.  0.
        -12    1    1    2    0    0 -0.53083317324E+01  0.17689102947E+02 -0.31002220371E+01  0.18726829031E+02  0.00000000000E+00 0.  1.
         11    1    3    3    0    0  0.16529904738E+02 -0.69231407704E+01 -0.63935832778E+01  0.19027494217E+02  0.51100000000E-03 0. -1.
        -11    1    3    3    0    0  0.14218203958E+02 -0.17365018006E+02 -0.55927720865E+01  0.23129640594E+02  0.51100000000E-03 0.  1.
        -12    1    3    3    0    0 -0.25439776964E+02  0.65990558288E+01  0.15086577401E+02  0.30304036159E+02  0.00000000000E+00 0.  1.
</event>
<event>
 7    1  0.2656097E-013  0.7246161E+02  0.7816164E-02  0.1226708E+00
        -11   -1    0    0    0    0  0.00000000000E+00  0.00000000000E+00  0.45593999997E+02  0.45594000000E+02  0.51100000000E-03 0.  1.
         11   -1    0    0    0    0 -0.00000000000E+00 -0.00000000000E+00 -0.45593999997E+02  0.45594000000E+02  0.51100000000E-03 0. -1.
    9900012    2    1    2    0    0 -0.12513028641E+02 -0.10410655476E+02  0.92585097844E+01  0.72461611222E+02  0.70000053316E+02 0.  0.
        -12    1    1    2    0    0  0.12513028641E+02  0.10410655476E+02 -0.92585097844E+01  0.18726388778E+02  0.00000000000E+00 0.  1.
         11    1    3    3    0    0 -0.11784882243E+02  0.14495514093E+02  0.38219883250E+01  0.19068586033E+02  0.51100000000E-03 0. -1.
        -11    1    3    3    0    0  0.11249763350E+02  0.10407671677E+02 -0.17222963935E+01  0.15422162958E+02  0.51100000000E-03 0.  1.
         12    1    3    3    0    0 -0.11977909749E+02 -0.35313841246E+02  0.71588178529E+01  0.37970862231E+02  0.00000000000E+00 0. -1.
</event>
<event>
 7    1  0.2656097E-013  0.7246155E+02  0.7816164E-02  0.1226708E+00
        -11   -1    0    0    0    0  0.00000000000E+00  0.00000000000E+00  0.45593999997E+02  0.45594000000E+02  0.51100000000E-03 0.  1.
         11   -1    0    0    0    0 -0.00000000000E+00 -0.00000000000E+00 -0.45593999997E+02  0.45594000000E+02  0.51100000000E-03 0. -1.
    9900012    2    1    2    0    0  0.15944169774E+02 -0.91261014177E+01 -0.36301089365E+01  0.72461548982E+02  0.69999972236E+02 0.  0.
        -12    1    1    2    0    0 -0.15944169774E+02  0.91261014177E+01  0.36301089365E+01  0.18726451018E+02  0.00000000000E+00 0.  1.
         11    1    3    3    0    0  0.74163084441E+01  0.36236719618E+01 -0.23506615820E+02  0.24913723467E+02  0.51100000000E-03 0. -1.
        -11    1    3    3    0    0  0.43537809713E+01 -0.19896082689E+02 -0.53006458846E+01  0.21045340629E+02  0.51100000000E-03 0.  1.
         12    1    3    3    0    0  0.41740803583E+01  0.71463093097E+01  0.25177152768E+02  0.26502484886E+02  0.00000000000E+00 0. -1.
</event>
<event>
 7    1  0.2656097E-013  0.7246154E+02  0.7816164E-02  0.1226708E+00
        -11   -1    0    0    0    0  0.00000000000E+00  0.00000000000E+00  0.45593999997E+02  0.45594000000E+02  0.51100000000E-03 0. -1.
         11   -1    0    0    0    0 -0.00000000000E+00 -0.00000000000E+00 -0.45593999997E+02  0.45594000000E+02  0.51100000000E-03 0.  1.
    9900012    2    1    2    0    0 -0.84201689708E+01 -0.77812575315E+01  0.14806515973E+02  0.72461544662E+02  0.69999966610E+02 0.  0.
        -12    1    1    2    0    0  0.84201689708E+01  0.77812575315E+01 -0.14806515973E+02  0.18726455338E+02  0.00000000000E+00 0.  1.
         11    1    3    3    0    0  0.21003688467E+02 -0.74746691562E+01  0.18163085845E+02  0.28756274027E+02  0.51100000000E-03 0. -1.
        -11    1    3    3    0    0  0.10261815060E+01  0.29380851557E+01 -0.11585706724E+02  0.11996415857E+02  0.51100000000E-03 0.  1.
        -12    1    3    3    0    0 -0.30450038944E+02 -0.32446735310E+01  0.82291368512E+01  0.31708854778E+02  0.00000000000E+00 0.  1.
</event>
<event>
 7    1  0.2656097E-013  0.7246164E+02  0.7816164E-02  0.1226708E+00
        -11   -1    0    0    0    0  0.00000000000E+00  0.00000000000E+00  0.45593999997E+02  0.45594000000E+02  0.51100000000E-03 0.  1.
         11   -1    0    0    0    0 -0.00000000000E+00 -0.00000000000E+00 -0.45593999997E+02  0.45594000000E+02  0.51100000000E-03 0. -1.
    9900012    2    1    2    0    0  0.89373144251E-01  0.18025200705E+02 -0.50755004098E+01  0.72461640171E+02  0.70000091028E+02 0.  0.
        -12    1    1    2    0    0 -0.89373144251E-01 -0.18025200705E+02  0.50755004098E+01  0.18726359829E+02  0.00000000000E+00 0.  1.
         11    1    3    3    0    0  0.18352150997E+01  0.16962187564E+02 -0.10965878266E+02  0.20281378351E+02  0.51100000000E-03 0. -1.
        -11    1    3    3    0    0 -0.24214932621E+02  0.11605619102E+02  0.92126362578E+00  0.26868235587E+02  0.51100000000E-03 0.  1.
         12    1    3    3    0    0  0.22469090666E+02 -0.10542605961E+02  0.49691142304E+01  0.25312026234E+02  0.00000000000E+00 0. -1.
</event>
<event>
 7    1  0.2656097E-013  0.7246186E+02  0.7816164E-02  0.1226707E+00
        -11   -1    0    0    0    0  0.00000000000E+00  0.00000000000E+00  0.45593999997E+02  0.45594000000E+02  0.51100000000E-03 0.  1.
         11   -1    0    0    0    0 -0.00000000000E+00 -0.00000000000E+00 -0.45593999997E+02  0.45594000000E+02  0.51100000000E-03 0. -1.
    9900012    2    1    2    0    0 -0.16757641321E+02  0.18650969390E+01 -0.81468594599E+01  0.72461856556E+02  0.70000372908E+02 0.  0.
        -12    1    1    2    0    0  0.16757641321E+02 -0.18650969390E+01  0.81468594599E+01  0.18726143444E+02  0.00000000000E+00 0.  1.
         11    1    3    3    0    0 -0.28204920078E+02 -0.17142214103E+02  0.36346373439E+01  0.33205174444E+02  0.51100000000E-03 0. -1.
        -11    1    3    3    0    0 -0.26816705150E+01  0.11279081261E+01 -0.15844312391E+02  0.16109182751E+02  0.51100000000E-03 0.  1.
        -12    1    3    3    0    0  0.14128949272E+02  0.17879402916E+02  0.40628155876E+01  0.23147499361E+02  0.00000000000E+00 0.  1.
</event>
<event>
 7    1  0.2656097E-013  0.7246155E+02  0.7816164E-02  0.1226708E+00
        -11   -1    0    0    0    0  0.00000000000E+00  0.00000000000E+00  0.45593999997E+02  0.45594000000E+02  0.51100000000E-03 0.  1.
         11   -1    0    0    0    0 -0.00000000000E+00 -0.00000000000E+00 -0.45593999997E+02  0.45594000000E+02  0.51100000000E-03 0. -1.
    9900012    2    1    2    0    0 -0.11700263979E+02 -0.13158033056E+02 -0.63757385136E+01  0.72461546714E+02  0.69999969282E+02 0.  0.
        -12    1    1    2    0    0  0.11700263979E+02  0.13158033056E+02  0.63757385136E+01  0.18726453286E+02  0.00000000000E+00 0.  1.
         11    1    3    3    0    0  0.82771544646E+01 -0.60568105509E+01  0.10922411065E+02  0.14983167349E+02  0.51100000000E-03 0. -1.
        -11    1    3    3    0    0  0.12555862015E+02  0.11493019895E+02 -0.83171797464E+01  0.18945043057E+02  0.51100000000E-03 0.  1.
         12    1    3    3    0    0 -0.32533280458E+02 -0.18594242401E+02 -0.89809698321E+01  0.38533336307E+02  0.00000000000E+00 0. -1.
</event>
<event>
 7    1  0.2656097E-013  0.7246161E+02  0.7816164E-02  0.1226708E+00
        -11   -1    0    0    0    0  0.00000000000E+00  0.00000000000E+00  0.45593999997E+02  0.45594000000E+02  0.51100000000E-03 0. -1.
         11   -1    0    0    0    0 -0.00000000000E+00 -0.00000000000E+00 -0.45593999997E+02  0.45594000000E+02  0.51100000000E-03 0.  1.
    9900012    2    1    2    0    0  0.70616773908E+01 -0.67545637499E+01  0.15974550459E+02  0.72461610027E+02  0.70000051760E+02 0.  0.
        -12    1    1    2    0    0 -0.70616773908E+01  0.67545637499E+01 -0.15974550459E+02  0.18726389973E+02  0.00000000000E+00 0.  1.
         11    1    3    3    0    0  0.13319811055E+02  0.41589739561E+01 -0.11174701670E+02  0.17877035229E+02  0.51100000000E-03 0. -1.
        -11    1    3    3    0    0  0.13753145858E+02  0.54495675101E+01 -0.27642616508E+01  0.15049516596E+02  0.51100000000E-03 0.  1.
        -12    1    3    3    0    0 -0.20011279522E+02 -0.16363105216E+02  0.29913513780E+02  0.39535058203E+02  0.00000000000E+00 0.  1.
</event>
<event>
 7    1  0.2656097E-013  0.7246174E+02  0.7816164E-02  0.1226708E+00
        -11   -1    0    0    0    0  0.00000000000E+00  0.00000000000E+00  0.45593999997E+02  0.45594000000E+02  0.51100000000E-03 0.  1.
         11   -1    0    0    0    0 -0.00000000000E+00 -0.00000000000E+00 -0.45593999997E+02  0.45594000000E+02  0.51100000000E-03 0. -1.
    9900012    2    1    2    0    0  0.85178091105E+01 -0.10588950308E+02 -0.12883854294E+02  0.72461744578E+02  0.70000227036E+02 0.  0.
        -12    1    1    2    0    0 -0.85178091105E+01  0.10588950308E+02  0.12883854294E+02  0.18726255422E+02  0.00000000000E+00 0.  1.
         11    1    3    3    0    0  0.22565119264E+02  0.97384965765E+01 -0.12318470073E+02  0.27491228204E+02  0.51100000000E-03 0. -1.
        -11    1    3    3    0    0  0.92826071459E+01 -0.10605899840E+02  0.10302790984E+02  0.17458505353E+02  0.51100000000E-03 0.  1.
        -12    1    3    3    0    0 -0.23329917299E+02 -0.97215470451E+01 -0.10868175205E+02  0.27512011021E+02  0.00000000000E+00 0.  1.
</event>
<event>
 7    1  0.2656097E-013  0.7246160E+02  0.7816164E-02  0.1226708E+00
        -11   -1    0    0    0    0  0.00000000000E+00  0.00000000000E+00  0.45593999997E+02  0.45594000000E+02  0.51100000000E-03 0.  1.
         11   -1    0    0    0    0 -0.00000000000E+00 -0.00000000000E+00 -0.45593999997E+02  0.45594000000E+02  0.51100000000E-03 0. -1.
    9900012    2    1    2    0    0  0.11799005544E+02  0.66926964021E+01 -0.12910041978E+02  0.72461604169E+02  0.70000044127E+02 0.  0.
        -12    1    1    2    0    0 -0.11799005544E+02 -0.66926964021E+01  0.12910041978E+02  0.18726395831E+02  0.00000000000E+00 0.  1.
         11    1    3    3    0    0 -0.70603229614E+01 -0.10066150695E+02 -0.63910625647E+01  0.13857172551E+02  0.51100000000E-03 0.  1.
        -11    1    3    3    0    0  0.20189526513E+02  0.33900059266E+02  0.18146670277E+01  0.39498405230E+02  0.51100000000E-03 0. -1.
         12    1    3    3    0    0 -0.13301980068E+01 -0.17141212169E+02 -0.83336464408E+01  0.19106026388E+02  0.00000000000E+00 0. -1.
</event>
<event>
 7    1  0.2656097E-013  0.7246156E+02  0.7816164E-02  0.1226708E+00
        -11   -1    0    0    0    0  0.00000000000E+00  0.00000000000E+00  0.45593999997E+02  0.45594000000E+02  0.51100000000E-03 0. -1.
         11   -1    0    0    0    0 -0.00000000000E+00 -0.00000000000E+00 -0.45593999997E+02  0.45594000000E+02  0.51100000000E-03 0.  1.
    9900012    2    1    2    0    0 -0.91513976981E+01 -0.14282184942E+02  0.79341372898E+01  0.72461563577E+02  0.69999991250E+02 0.  0.
        -12    1    1    2    0    0  0.91513976981E+01  0.14282184942E+02 -0.79341372898E+01  0.18726436423E+02  0.00000000000E+00 0.  1.
         11    1    3    3    0    0 -0.19886720050E+02  0.10134153526E+02  0.20184503553E+02  0.30093136858E+02  0.51100000000E-03 0. -1.
        -11    1    3    3    0    0  0.78431768983E+01 -0.13805947509E+02  0.91367924903E+01  0.18319404678E+02  0.51100000000E-03 0.  1.
        -12    1    3    3    0    0  0.28921454536E+01 -0.10610390959E+02 -0.21387158753E+02  0.24049022042E+02  0.00000000000E+00 0.  1.
</event>
<event>
 7    1  0.2656097E-013  0.7246156E+02  0.7816164E-02  0.1226708E+00
        -11   -1    0    0    0    0  0.00000000000E+00  0.00000000000E+00  0.45593999997E+02  0.45594000000E+02  0.51100000000E-03 0. -1.
         11   -1    0    0    0    0 -0.00000000000E+00 -0.00000000000E+00 -0.45593999997E+02  0.45594000000E+02  0.51100000000E-03 0.  1.
    9900012    2    1    2    0    0 -0.13465559866E+02 -0.83589582512E+01  0.99742677226E+01  0.72461561413E+02  0.69999988430E+02 0.  0.
        -12    1    1    2    0    0  0.13465559866E+02  0.83589582512E+01 -0.99742677226E+01  0.18726438587E+02  0.00000000000E+00 0.  1.
         11    1    3    3    0    0 -0.13532167989E+02 -0.83473114455E+01  0.42418236681E+01  0.16455705610E+02  0.51100000000E-03 0. -1.
        -11    1    3    3    0    0 -0.24764280662E+02  0.63973062675E+01 -0.81505515935E+01  0.26844489485E+02  0.51100000000E-03 0.  1.
        -12    1    3    3    0    0  0.24830888784E+02 -0.64089530732E+01  0.13882995648E+02  0.29161366317E+02  0.00000000000E+00 0.  1.
</event>
<event>
 7    1  0.2656097E-013  0.7246158E+02  0.7816164E-02  0.1226708E+00
        -11   -1    0    0    0    0  0.00000000000E+00  0.00000000000E+00  0.45593999997E+02  0.45594000000E+02  0.51100000000E-03 0.  1.
         11   -1    0    0    0    0 -0.00000000000E+00 -0.00000000000E+00 -0.45593999997E+02  0.45594000000E+02  0.51100000000E-03 0. -1.
    9900012    2    1    2    0    0 -0.60966104952E+01  0.50440460211E+01 -0.16972562635E+02  0.72461576364E+02  0.70000007907E+02 0.  0.
        -12    1    1    2    0    0  0.60966104952E+01 -0.50440460211E+01  0.16972562635E+02  0.18726423636E+02  0.00000000000E+00 0.  1.
         11    1    3    3    0    0 -0.11416556466E+02  0.12119121961E+02 -0.68088800435E+01  0.17988099576E+02  0.51100000000E-03 0.  1.
        -11    1    3    3    0    0 -0.17553243281E+02 -0.16162095084E+02  0.65251203070E+01  0.24736751251E+02  0.51100000000E-03 0. -1.
         12    1    3    3    0    0  0.22873189252E+02  0.90870191441E+01 -0.16688802898E+02  0.29736725537E+02  0.00000000000E+00 0. -1.
</event>
<event>
 7    1  0.2656097E-013  0.7246157E+02  0.7816164E-02  0.1226708E+00
        -11   -1    0    0    0    0  0.00000000000E+00  0.00000000000E+00  0.45593999997E+02  0.45594000000E+02  0.51100000000E-03 0.  1.
         11   -1    0    0    0    0 -0.00000000000E+00 -0.00000000000E+00 -0.45593999997E+02  0.45594000000E+02  0.51100000000E-03 0. -1.
    9900012    2    1    2    0    0  0.12627530675E+02  0.13797535256E+02 -0.92335307844E+00  0.72461572391E+02  0.70000002732E+02 0.  0.
        -12    1    1    2    0    0 -0.12627530675E+02 -0.13797535256E+02  0.92335307844E+00  0.18726427609E+02  0.00000000000E+00 0.  1.
         11    1    3    3    0    0  0.33539135442E+02  0.13699149007E+02  0.11336065333E+02  0.37961120468E+02  0.51100000000E-03 0. -1.
        -11    1    3    3    0    0 -0.18597258374E+00 -0.59912814801E+01  0.42198596562E+01  0.73305699202E+01  0.51100000000E-03 0.  1.
        -12    1    3    3    0    0 -0.20725632183E+02  0.60896677292E+01 -0.16479278068E+02  0.27169882003E+02  0.00000000000E+00 0.  1.
</event>
<event>
 7    1  0.2656097E-013  0.7246162E+02  0.7816164E-02  0.1226708E+00
        -11   -1    0    0    0    0  0.00000000000E+00  0.00000000000E+00  0.45593999997E+02  0.45594000000E+02  0.51100000000E-03 0. -1.
         11   -1    0    0    0    0 -0.00000000000E+00 -0.00000000000E+00 -0.45593999997E+02  0.45594000000E+02  0.51100000000E-03 0.  1.
    9900012    2    1    2    0    0 -0.12204975007E+02  0.99901936150E+01  0.10095142336E+02  0.72461620687E+02  0.70000065646E+02 0.  0.
        -12    1    1    2    0    0  0.12204975007E+02 -0.99901936150E+01 -0.10095142336E+02  0.18726379313E+02  0.00000000000E+00 0.  1.
         11    1    3    3    0    0 -0.13781651001E+01 -0.12984263367E+02  0.27654004436E+01  0.13346830114E+02  0.51100000000E-03 0. -1.
        -11    1    3    3    0    0  0.99679020233E+01  0.27127258327E+02 -0.11160011253E+02  0.30980527215E+02  0.51100000000E-03 0.  1.
         12    1    3    3    0    0 -0.20794711931E+02 -0.41528013451E+01  0.18489753145E+02  0.28134263357E+02  0.00000000000E+00 0. -1.
</event>
<event>
 7    1  0.2656097E-013  0.7246156E+02  0.7816164E-02  0.1226708E+00
        -11   -1    0    0    0    0  0.00000000000E+00  0.00000000000E+00  0.45593999997E+02  0.45594000000E+02  0.51100000000E-03 0. -1.
         11   -1    0    0    0    0 -0.00000000000E+00 -0.00000000000E+00 -0.45593999997E+02  0.45594000000E+02  0.51100000000E-03 0.  1.
    9900012    2    1    2    0    0 -0.17739309764E+02  0.37437480641E+01  0.46883747646E+01  0.72461558309E+02  0.69999984387E+02 0.  0.
        -12    1    1    2    0    0  0.17739309764E+02 -0.37437480641E+01 -0.46883747646E+01  0.18726441691E+02  0.00000000000E+00 0.  1.
         11    1    3    3    0    0 -0.30833254190E+02  0.16389907936E+02  0.17282613408E+02  0.38961614091E+02  0.51100000000E-03 0. -1.
        -11    1    3    3    0    0 -0.50291617096E+01 -0.35961669897E+01  0.39573981567E+01  0.73407005763E+01  0.51100000000E-03 0.  1.
        -12    1    3    3    0    0  0.18123106136E+02 -0.90499928827E+01 -0.16551636800E+02  0.26159243642E+02  0.00000000000E+00 0.  1.
</event>
<event>
 7    1  0.2656097E-013  0.7246155E+02  0.7816164E-02  0.1226708E+00
        -11   -1    0    0    0    0  0.00000000000E+00  0.00000000000E+00  0.45593999997E+02  0.45594000000E+02  0.51100000000E-03 0. -1.
         11   -1    0    0    0    0 -0.00000000000E+00 -0.00000000000E+00 -0.45593999997E+02  0.45594000000E+02  0.51100000000E-03 0.  1.
    9900012    2    1    2    0    0 -0.64564575008E+01 -0.13171106073E+02  0.11641131012E+02  0.72461553197E+02  0.69999977727E+02 0.  0.
        -12    1    1    2    0    0  0.64564575008E+01  0.13171106073E+02 -0.11641131012E+02  0.18726446803E+02  0.00000000000E+00 0.  1.
         11    1    3    3    0    0  0.89864350958E+01 -0.49267542674E+01  0.17975657169E+02  0.20691862513E+02  0.51100000000E-03 0. -1.
        -11    1    3    3    0    0 -0.14708293253E+02  0.84290235756E+01  0.16386642529E+02  0.23577624615E+02  0.51100000000E-03 0.  1.
        -12    1    3    3    0    0 -0.73459934379E+00 -0.16673375381E+02 -0.22721168685E+02  0.28192066069E+02  0.00000000000E+00 0.  1.
</event>
<event>
 7    1  0.2656097E-013  0.7246155E+02  0.7816164E-02  0.1226708E+00
        -11   -1    0    0    0    0  0.00000000000E+00  0.00000000000E+00  0.45593999997E+02  0.45594000000E+02  0.51100000000E-03 0.  1.
         11   -1    0    0    0    0 -0.00000000000E+00 -0.00000000000E+00 -0.45593999997E+02  0.45594000000E+02  0.51100000000E-03 0. -1.
    9900012    2    1    2    0    0  0.18089095976E+02 -0.42472885607E+01 -0.23291481017E+01  0.72461553882E+02  0.69999978620E+02 0.  0.
        -12    1    1    2    0    0 -0.18089095976E+02  0.42472885607E+01  0.23291481017E+01  0.18726446118E+02  0.00000000000E+00 0.  1.
         11    1    3    3    0    0  0.14238922306E+02  0.29575109012E+02  0.64792601453E+01  0.33457656729E+02  0.51100000000E-03 0. -1.
        -11    1    3    3    0    0  0.25045893901E+01 -0.40076129405E+01 -0.78264595939E+01  0.91426144800E+01  0.51100000000E-03 0.  1.
        -12    1    3    3    0    0  0.13455842795E+01 -0.29814784632E+02 -0.98194865310E+00  0.29861282673E+02  0.00000000000E+00 0.  1.
</event>
<event>
 7    1  0.2656097E-013  0.7246157E+02  0.7816164E-02  0.1226708E+00
        -11   -1    0    0    0    0  0.00000000000E+00  0.00000000000E+00  0.45593999997E+02  0.45594000000E+02  0.51100000000E-03 0.  1.
         11   -1    0    0    0    0 -0.00000000000E+00 -0.00000000000E+00 -0.45593999997E+02  0.45594000000E+02  0.51100000000E-03 0. -1.
    9900012    2    1    2    0    0 -0.12021699415E+02  0.13605558440E+02 -0.45876693090E+01  0.72461569828E+02  0.69999999393E+02 0.  0.
        -12    1    1    2    0    0  0.12021699415E+02 -0.13605558440E+02  0.45876693090E+01  0.18726430172E+02  0.00000000000E+00 0.  1.
         11    1    3    3    0    0  0.15802594591E+02  0.22399533472E+02 -0.12876863795E+02  0.30286543497E+02  0.51100000000E-03 0. -1.
        -11    1    3    3    0    0 -0.23364545926E+02  0.64423492242E+01 -0.62716206571E-01  0.24236538603E+02  0.51100000000E-03 0.  1.
        -12    1    3    3    0    0 -0.44597480796E+01 -0.15236324256E+02  0.83519106929E+01  0.17938487729E+02  0.00000000000E+00 0.  1.
</event>
<event>
 7    1  0.2656097E-013  0.7246156E+02  0.7816164E-02  0.1226708E+00
        -11   -1    0    0    0    0  0.00000000000E+00  0.00000000000E+00  0.45593999997E+02  0.45594000000E+02  0.51100000000E-03 0. -1.
         11   -1    0    0    0    0 -0.00000000000E+00 -0.00000000000E+00 -0.45593999997E+02  0.45594000000E+02  0.51100000000E-03 0.  1.
    9900012    2    1    2    0    0 -0.48638702077E+01 -0.36612662278E+01  0.17709248274E+02  0.72461559382E+02  0.69999985784E+02 0.  0.
        -12    1    1    2    0    0  0.48638702077E+01  0.36612662278E+01 -0.17709248274E+02  0.18726440618E+02  0.00000000000E+00 0.  1.
         11    1    3    3    0    0  0.26314392056E+01  0.44126154376E+01  0.64178846779E+01  0.82210030588E+01  0.51100000000E-03 0. -1.
        -11    1    3    3    0    0  0.16546329737E+02  0.41113649150E+01  0.27815727404E+02  0.32625128973E+02  0.51100000000E-03 0.  1.
        -12    1    3    3    0    0 -0.24041639150E+02 -0.12185246580E+02 -0.16524363808E+02  0.31615427350E+02  0.00000000000E+00 0.  1.
</event>
<event>
 7    1  0.2656097E-013  0.7246155E+02  0.7816164E-02  0.1226708E+00
        -11   -1    0    0    0    0  0.00000000000E+00  0.00000000000E+00  0.45593999997E+02  0.45594000000E+02  0.51100000000E-03 0.  1.
         11   -1    0    0    0    0 -0.00000000000E+00 -0.00000000000E+00 -0.45593999997E+02  0.45594000000E+02  0.51100000000E-03 0. -1.
    9900012    2    1    2    0    0  0.55773670382E+01  0.16092155914E+02 -0.77855844549E+01  0.72461552650E+02  0.69999977015E+02 0.  0.
        -12    1    1    2    0    0 -0.55773670382E+01 -0.16092155914E+02  0.77855844549E+01  0.18726447350E+02  0.00000000000E+00 0.  1.
         11    1    3    3    0    0  0.22085600976E+02  0.11928508788E+02 -0.17832252958E+02  0.30790458558E+02  0.51100000000E-03 0. -1.
        -11    1    3    3    0    0 -0.12498324604E+01  0.18713992111E+02  0.11619586365E+01  0.18791639898E+02  0.51100000000E-03 0.  1.
        -12    1    3    3    0    0 -0.15258401477E+02 -0.14550344985E+02  0.88847098666E+01  0.22879454195E+02  0.00000000000E+00 0.  1.
</event>
<event>
 7    1  0.2656097E-013  0.7246158E+02  0.7816164E-02  0.1226708E+00
        -11   -1    0    0    0    0  0.00000000000E+00  0.00000000000E+00  0.45593999997E+02  0.45594000000E+02  0.51100000000E-03 0.  1.
         11   -1    0    0    0    0 -0.00000000000E+00 -0.00000000000E+00 -0.45593999997E+02  0.45594000000E+02  0.51100000000E-03 0. -1.
    9900012    2    1    2    0    0  0.30569262664E+01  0.58514023004E+01  0.17524131820E+02  0.72461577407E+02  0.70000009266E+02 0.  0.
        -12    1    1    2    0    0 -0.30569262664E+01 -0.58514023004E+01 -0.17524131820E+02  0.18726422593E+02  0.00000000000E+00 0.  1.
         11    1    3    3    0    0 -0.25979659911E+01  0.16741195141E+02  0.51998352020E+01  0.17721606260E+02  0.51100000000E-03 0. -1.
        -11    1    3    3    0    0 -0.46758743279E+01 -0.24615670181E+01  0.31192281580E+02  0.31636711955E+02  0.51100000000E-03 0.  1.
         12    1    3    3    0    0  0.10330766585E+02 -0.84282258226E+01 -0.18867984962E+02  0.23103259192E+02  0.00000000000E+00 0. -1.
</event>
<event>
 7    1  0.2656097E-013  0.7246159E+02  0.7816164E-02  0.1226708E+00
        -11   -1    0    0    0    0  0.00000000000E+00  0.00000000000E+00  0.45593999997E+02  0.45594000000E+02  0.51100000000E-03 0.  1.
         11   -1    0    0    0    0 -0.00000000000E+00 -0.00000000000E+00 -0.45593999997E+02  0.45594000000E+02  0.51100000000E-03 0. -1.
    9900012    2    1    2    0    0 -0.22441478079E+01  0.10370468577E+02 -0.15430350691E+02  0.72461587094E+02  0.70000021885E+02 0.  0.
        -12    1    1    2    0    0  0.22441478079E+01 -0.10370468577E+02  0.15430350691E+02  0.18726412906E+02  0.00000000000E+00 0.  1.
         11    1    3    3    0    0 -0.42044395655E+01 -0.15032280275E+02 -0.65914665400E+01  0.16943854158E+02  0.51100000000E-03 0. -1.
        -11    1    3    3    0    0 -0.14096993153E+02 -0.44422398663E+01  0.89127495609E+01  0.17259658629E+02  0.51100000000E-03 0.  1.
         12    1    3    3    0    0  0.16057284910E+02  0.29844988718E+02 -0.17751633712E+02  0.38258074307E+02  0.00000000000E+00 0. -1.
</event>
<event>
 7    1  0.2656097E-013  0.7246157E+02  0.7816164E-02  0.1226708E+00
        -11   -1    0    0    0    0  0.00000000000E+00  0.00000000000E+00  0.45593999997E+02  0.45594000000E+02  0.51100000000E-03 0.  1.
         11   -1    0    0    0    0 -0.00000000000E+00 -0.00000000000E+00 -0.45593999997E+02  0.45594000000E+02  0.51100000000E-03 0. -1.
    9900012    2    1    2    0    0 -0.17183790731E+02  0.62536011163E+01 -0.40359622768E+01  0.72461569953E+02  0.69999999556E+02 0.  0.
        -12    1    1    2    0    0  0.17183790731E+02 -0.62536011163E+01  0.40359622768E+01  0.18726430047E+02  0.00000000000E+00 0.  1.
         11    1    3    3    0    0  0.90397518059E+01 -0.96931775849E+01 -0.20647980297E+02  0.24535971451E+02  0.51100000000E-03 0. -1.
        -11    1    3    3    0    0 -0.13191495365E+00 -0.24436862952E+01 -0.75204565669E+01  0.79086200756E+01  0.51100000000E-03 0.  1.
        -12    1    3    3    0    0 -0.26091627583E+02  0.18390464996E+02  0.24132474587E+02  0.40016978427E+02  0.00000000000E+00 0.  1.
</event>
<event>
 7    1  0.2656097E-013  0.7246155E+02  0.7816164E-02  0.1226708E+00
        -11   -1    0    0    0    0  0.00000000000E+00  0.00000000000E+00  0.45593999997E+02  0.45594000000E+02  0.51100000000E-03 0.  1.
         11   -1    0    0    0    0 -0.00000000000E+00 -0.00000000000E+00 -0.45593999997E+02  0.45594000000E+02  0.51100000000E-03 0. -1.
    9900012    2    1    2    0    0 -0.17268847834E+02  0.68003235011E+01  0.24944552549E+01  0.72461553133E+02  0.69999977644E+02 0.  0.
        -12    1    1    2    0    0  0.17268847834E+02 -0.68003235011E+01 -0.24944552549E+01  0.18726446867E+02  0.00000000000E+00 0.  1.
         11    1    3    3    0    0  0.83119992870E+01  0.12303817638E+02  0.26474681295E+01  0.15082517972E+02  0.51100000000E-03 0. -1.
        -11    1    3    3    0    0 -0.69491507720E+01  0.86263245329E+01  0.22338590607E+02  0.24934249577E+02  0.51100000000E-03 0.  1.
        -12    1    3    3    0    0 -0.18631696349E+02 -0.14129818670E+02 -0.22491603481E+02  0.32444785585E+02  0.00000000000E+00 0.  1.
</event>
<event>
 7    1  0.2656097E-013  0.7246160E+02  0.7816164E-02  0.1226708E+00
        -11   -1    0    0    0    0  0.00000000000E+00  0.00000000000E+00  0.45593999997E+02  0.45594000000E+02  0.51100000000E-03 0.  1.
         11   -1    0    0    0    0 -0.00000000000E+00 -0.00000000000E+00 -0.45593999997E+02  0.45594000000E+02  0.51100000000E-03 0. -1.
    9900012    2    1    2    0    0  0.50034309107E+01 -0.80814088530E+01 -0.16134890059E+02  0.72461597058E+02  0.70000034864E+02 0.  0.
        -12    1    1    2    0    0 -0.50034309107E+01  0.80814088530E+01  0.16134890059E+02  0.18726402942E+02  0.00000000000E+00 0.  1.
         11    1    3    3    0    0 -0.11947791631E+02 -0.32649772884E+01 -0.20466676466E+02  0.23922680607E+02  0.51100000000E-03 0. -1.
        -11    1    3    3    0    0  0.47060398504E+01 -0.93140553336E+01 -0.19074736566E+02  0.21742677230E+02  0.51100000000E-03 0.  1.
        -12    1    3    3    0    0  0.12245182691E+02  0.44976237690E+01  0.23406522973E+02  0.26796239221E+02  0.00000000000E+00 0.  1.
</event>
<event>
 7    1  0.2656097E-013  0.7246158E+02  0.7816164E-02  0.1226708E+00
        -11   -1    0    0    0    0  0.00000000000E+00  0.00000000000E+00  0.45593999997E+02  0.45594000000E+02  0.51100000000E-03 0.  1.
         11   -1    0    0    0    0 -0.00000000000E+00 -0.00000000000E+00 -0.45593999997E+02  0.45594000000E+02  0.51100000000E-03 0. -1.
    9900012    2    1    2    0    0 -0.82399314902E+01  0.59609340201E+01 -0.15724177178E+02  0.72461576068E+02  0.70000007521E+02 0.  0.
        -12    1    1    2    0    0  0.82399314902E+01 -0.59609340201E+01  0.15724177178E+02  0.18726423932E+02  0.00000000000E+00 0.  1.
         11    1    3    3    0    0 -0.11669397536E+02 -0.95740328305E+01  0.76677347663E+01  0.16930183112E+02  0.51100000000E-03 0. -1.
        -11    1    3    3    0    0 -0.18815957796E+02  0.14950005258E+02 -0.11363000950E+01  0.24058971366E+02  0.51100000000E-03 0.  1.
         12    1    3    3    0    0  0.22245423842E+02  0.58496159216E+00 -0.22255611849E+02  0.31472421590E+02  0.00000000000E+00 0. -1.
</event>
<event>
 7    1  0.2656097E-013  0.7246161E+02  0.7816164E-02  0.1226708E+00
        -11   -1    0    0    0    0  0.00000000000E+00  0.00000000000E+00  0.45593999997E+02  0.45594000000E+02  0.51100000000E-03 0.  1.
         11   -1    0    0    0    0 -0.00000000000E+00 -0.00000000000E+00 -0.45593999997E+02  0.45594000000E+02  0.51100000000E-03 0. -1.
    9900012    2    1    2    0    0 -0.10077430280E+02 -0.15201981178E+02 -0.42453502204E+01  0.72461606026E+02  0.70000046547E+02 0.  0.
        -12    1    1    2    0    0  0.10077430280E+02  0.15201981178E+02  0.42453502204E+01  0.18726393974E+02  0.00000000000E+00 0.  1.
         11    1    3    3    0    0  0.13828668525E+02 -0.16899173262E+02 -0.93428284361E+01  0.23750843639E+02  0.51100000000E-03 0. -1.
        -11    1    3    3    0    0 -0.56986244428E+01 -0.11290976157E+01 -0.18144140093E+02  0.19051482933E+02  0.51100000000E-03 0.  1.
        -12    1    3    3    0    0 -0.18207474363E+02  0.28262896999E+01  0.23241618308E+02  0.29659279454E+02  0.00000000000E+00 0.  1.
</event>
<event>
 7    1  0.2656097E-013  0.7246155E+02  0.7816164E-02  0.1226708E+00
        -11   -1    0    0    0    0  0.00000000000E+00  0.00000000000E+00  0.45593999997E+02  0.45594000000E+02  0.51100000000E-03 0.  1.
         11   -1    0    0    0    0 -0.00000000000E+00 -0.00000000000E+00 -0.45593999997E+02  0.45594000000E+02  0.51100000000E-03 0. -1.
    9900012    2    1    2    0    0  0.14273357724E+02  0.12013117677E+02  0.16236020154E+01  0.72461552912E+02  0.69999977356E+02 0.  0.
        -12    1    1    2    0    0 -0.14273357724E+02 -0.12013117677E+02 -0.16236020154E+01  0.18726447088E+02  0.00000000000E+00 0.  1.
         11    1    3    3    0    0  0.13987827527E+02  0.24257208289E+02 -0.20860577963E+02  0.34917548398E+02  0.51100000000E-03 0. -1.
        -11    1    3    3    0    0  0.60593235936E+01  0.69495758368E+01  0.32820366591E+01  0.97869183922E+01  0.51100000000E-03 0.  1.
        -12    1    3    3    0    0 -0.57737933968E+01 -0.19193666449E+02  0.19202143319E+02  0.27757086122E+02  0.00000000000E+00 0.  1.
</event>
<event>
 7    1  0.2656097E-013  0.7246155E+02  0.7816164E-02  0.1226708E+00
        -11   -1    0    0    0    0  0.00000000000E+00  0.00000000000E+00  0.45593999997E+02  0.45594000000E+02  0.51100000000E-03 0.  1.
         11   -1    0    0    0    0 -0.00000000000E+00 -0.00000000000E+00 -0.45593999997E+02  0.45594000000E+02  0.51100000000E-03 0. -1.
    9900012    2    1    2    0    0 -0.17631061740E+02 -0.62833910259E+01  0.58688182902E+00  0.72461554231E+02  0.69999979074E+02 0.  0.
        -12    1    1    2    0    0  0.17631061740E+02  0.62833910259E+01 -0.58688182902E+00  0.18726445769E+02  0.00000000000E+00 0.  1.
         11    1    3    3    0    0  0.16540684137E+01 -0.60753496668E+01 -0.17297217834E+02  0.18407595198E+02  0.51100000000E-03 0. -1.
        -11    1    3    3    0    0  0.14217444373E+02 -0.81105338896E+01  0.34479437272E+01  0.16727366818E+02  0.51100000000E-03 0.  1.
         12    1    3    3    0    0 -0.33502574527E+02  0.79024925305E+01  0.14436155936E+02  0.37326592214E+02  0.00000000000E+00 0. -1.
</event>
<event>
 7    1  0.2656097E-013  0.7246158E+02  0.7816164E-02  0.1226708E+00
        -11   -1    0    0    0    0  0.00000000000E+00  0.00000000000E+00  0.45593999997E+02  0.45594000000E+02  0.51100000000E-03 0.  1.
         11   -1    0    0    0    0 -0.00000000000E+00 -0.00000000000E+00 -0.45593999997E+02  0.45594000000E+02  0.51100000000E-03 0. -1.
    9900012    2    1    2    0    0 -0.11787418658E+02 -0.13953162609E+02  0.41285286308E+01  0.72461581921E+02  0.70000015146E+02 0.  0.
        -12    1    1    2    0    0  0.11787418658E+02  0.13953162609E+02 -0.41285286308E+01  0.18726418079E+02  0.00000000000E+00 0.  1.
         11    1    3    3    0    0  0.61092071911E+01  0.73317337193E+01  0.28573045028E+01  0.99619737561E+01  0.51100000000E-03 0. -1.
        -11    1    3    3    0    0  0.10909022999E+02  0.13221835043E+02 -0.27896267143E+01  0.17366799422E+02  0.51100000000E-03 0.  1.
         12    1    3    3    0    0 -0.28805648848E+02 -0.34506731371E+02  0.40608508424E+01  0.45132808743E+02  0.00000000000E+00 0. -1.
</event>
<event>
 7    1  0.2656097E-013  0.7246157E+02  0.7816164E-02  0.1226708E+00
        -11   -1    0    0    0    0  0.00000000000E+00  0.00000000000E+00  0.45593999997E+02  0.45594000000E+02  0.51100000000E-03 0.  1.
         11   -1    0    0    0    0 -0.00000000000E+00 -0.00000000000E+00 -0.45593999997E+02  0.45594000000E+02  0.51100000000E-03 0. -1.
    9900012    2    1    2    0    0 -0.11103038001E+02  0.45127412081E+01 -0.14388778012E+02  0.72461568980E+02  0.69999998288E+02 0.  0.
        -12    1    1    2    0    0  0.11103038001E+02 -0.45127412081E+01  0.14388778012E+02  0.18726431020E+02  0.00000000000E+00 0.  1.
         11    1    3    3    0    0  0.26249134969E+01  0.18126630586E+02 -0.54696652730E+01  0.19114971769E+02  0.51100000000E-03 0. -1.
        -11    1    3    3    0    0 -0.21320111158E+02 -0.15280024689E+02  0.13583934983E+02  0.29538950289E+02  0.51100000000E-03 0.  1.
         12    1    3    3    0    0  0.75921596599E+01  0.16661353119E+01 -0.22503047722E+02  0.23807646922E+02  0.00000000000E+00 0. -1.
</event>
<event>
 7    1  0.2656097E-013  0.7246157E+02  0.7816164E-02  0.1226708E+00
        -11   -1    0    0    0    0  0.00000000000E+00  0.00000000000E+00  0.45593999997E+02  0.45594000000E+02  0.51100000000E-03 0. -1.
         11   -1    0    0    0    0 -0.00000000000E+00 -0.00000000000E+00 -0.45593999997E+02  0.45594000000E+02  0.51100000000E-03 0.  1.
    9900012    2    1    2    0    0  0.13200674140E+02 -0.10003842001E+02  0.87375453016E+01  0.72461565464E+02  0.69999993708E+02 0.  0.
        -12    1    1    2    0    0 -0.13200674140E+02  0.10003842001E+02 -0.87375453016E+01  0.18726434536E+02  0.00000000000E+00 0.  1.
         11    1    3    3    0    0  0.52119380073E+01  0.24810839243E+01  0.40441566625E+00  0.57865039120E+01  0.51100000000E-03 0. -1.
        -11    1    3    3    0    0  0.12383475006E+02 -0.31711716314E+02  0.23861094155E+02  0.41573251248E+02  0.51100000000E-03 0.  1.
         12    1    3    3    0    0 -0.43947388729E+01  0.19226790389E+02 -0.15527964519E+02  0.25101810304E+02  0.00000000000E+00 0. -1.
</event>
<event>
 7    1  0.2656097E-013  0.7246161E+02  0.7816164E-02  0.1226708E+00
        -11   -1    0    0    0    0  0.00000000000E+00  0.00000000000E+00  0.45593999997E+02  0.45594000000E+02  0.51100000000E-03 0. -1.
         11   -1    0    0    0    0 -0.00000000000E+00 -0.00000000000E+00 -0.45593999997E+02  0.45594000000E+02  0.51100000000E-03 0.  1.
    9900012    2    1    2    0    0  0.12144080516E+02  0.59218719534E+01  0.12966511755E+02  0.72461609902E+02  0.70000051596E+02 0.  0.
        -12    1    1    2    0    0 -0.12144080516E+02 -0.59218719534E+01 -0.12966511755E+02  0.18726390098E+02  0.00000000000E+00 0.  1.
         11    1    3    3    0    0  0.30917839113E+02  0.10463082603E+01 -0.30142471818E+01  0.31082040195E+02  0.51100000000E-03 0. -1.
        -11    1    3    3    0    0  0.51024689491E+01  0.53980869256E+01 -0.55125354324E+01  0.92500042696E+01  0.51100000000E-03 0.  1.
        -12    1    3    3    0    0 -0.23876227546E+02 -0.52252323253E+00  0.21493294369E+02  0.32129565437E+02  0.00000000000E+00 0.  1.
</event>
<event>
 7    1  0.2656097E-013  0.7246162E+02  0.7816164E-02  0.1226708E+00
        -11   -1    0    0    0    0  0.00000000000E+00  0.00000000000E+00  0.45593999997E+02  0.45594000000E+02  0.51100000000E-03 0. -1.
         11   -1    0    0    0    0 -0.00000000000E+00 -0.00000000000E+00 -0.45593999997E+02  0.45594000000E+02  0.51100000000E-03 0.  1.
    9900012    2    1    2    0    0  0.15228238884E+02 -0.99691336309E+01 -0.44039277057E+01  0.72461615830E+02  0.70000059318E+02 0.  0.
        -12    1    1    2    0    0 -0.15228238884E+02  0.99691336309E+01  0.44039277057E+01  0.18726384170E+02  0.00000000000E+00 0.  1.
         11    1    3    3    0    0  0.32770121026E+01 -0.20420566971E+00  0.86403531910E+01  0.92431710902E+01  0.51100000000E-03 0. -1.
        -11    1    3    3    0    0  0.20236017205E+02  0.36306889927E+01  0.18693591780E+02  0.27787203328E+02  0.51100000000E-03 0.  1.
        -12    1    3    3    0    0 -0.82847904234E+01 -0.13395616954E+02 -0.31737872677E+02  0.35431241412E+02  0.00000000000E+00 0.  1.
</event>
<event>
 7    1  0.2656097E-013  0.7246156E+02  0.7816164E-02  0.1226708E+00
        -11   -1    0    0    0    0  0.00000000000E+00  0.00000000000E+00  0.45593999997E+02  0.45594000000E+02  0.51100000000E-03 0. -1.
         11   -1    0    0    0    0 -0.00000000000E+00 -0.00000000000E+00 -0.45593999997E+02  0.45594000000E+02  0.51100000000E-03 0.  1.
    9900012    2    1    2    0    0 -0.12117555978E+02 -0.13768152165E+02 -0.37792134050E+01  0.72461557976E+02  0.69999983953E+02 0.  0.
        -12    1    1    2    0    0  0.12117555978E+02  0.13768152165E+02  0.37792134050E+01  0.18726442024E+02  0.00000000000E+00 0.  1.
         11    1    3    3    0    0  0.97974989563E+01 -0.49005902145E+01 -0.19715817524E+02  0.22554827225E+02  0.51100000000E-03 0. -1.
        -11    1    3    3    0    0  0.32107179767E+01  0.11487160235E+02 -0.31780907307E+01  0.12343574083E+02  0.51100000000E-03 0.  1.
        -12    1    3    3    0    0 -0.25125772911E+02 -0.20354722186E+02  0.19114694850E+02  0.37563156668E+02  0.00000000000E+00 0.  1.
</event>
<event>
 7    1  0.2656097E-013  0.7246151E+02  0.7816164E-02  0.1226708E+00
        -11   -1    0    0    0    0  0.00000000000E+00  0.00000000000E+00  0.45593999997E+02  0.45594000000E+02  0.51100000000E-03 0.  1.
         11   -1    0    0    0    0 -0.00000000000E+00 -0.00000000000E+00 -0.45593999997E+02  0.45594000000E+02  0.51100000000E-03 0. -1.
    9900012    2    1    2    0    0 -0.16358791537E+02 -0.48714430263E+01 -0.77032627101E+01  0.72461514102E+02  0.69999926799E+02 0.  0.
        -12    1    1    2    0    0  0.16358791537E+02  0.48714430263E+01  0.77032627101E+01  0.18726485898E+02  0.00000000000E+00 0.  1.
         11    1    3    3    0    0 -0.58657391398E-01  0.16724039939E+01  0.54054176307E+01  0.56585259416E+01  0.51100000000E-03 0. -1.
        -11    1    3    3    0    0  0.11161838548E+02  0.98459852070E+01  0.17197137798E+02  0.22743605984E+02  0.51100000000E-03 0.  1.
         12    1    3    3    0    0 -0.27461972693E+02 -0.16389832227E+02 -0.30305818139E+02  0.44059382176E+02  0.00000000000E+00 0. -1.
</event>
<event>
 7    1  0.2656097E-013  0.7246145E+02  0.7816164E-02  0.1226708E+00
        -11   -1    0    0    0    0  0.00000000000E+00  0.00000000000E+00  0.45593999997E+02  0.45594000000E+02  0.51100000000E-03 0.  1.
         11   -1    0    0    0    0 -0.00000000000E+00 -0.00000000000E+00 -0.45593999997E+02  0.45594000000E+02  0.51100000000E-03 0. -1.
    9900012    2    1    2    0    0 -0.15830013095E+01 -0.59446230273E+01 -0.17687258179E+02  0.72461453656E+02  0.69999848057E+02 0.  0.
        -12    1    1    2    0    0  0.15830013095E+01  0.59446230273E+01  0.17687258179E+02  0.18726546344E+02  0.00000000000E+00 0.  1.
         11    1    3    3    0    0 -0.97926720802E+01  0.10357845729E+02 -0.23517626156E+00  0.14256111067E+02  0.51100000000E-03 0. -1.
        -11    1    3    3    0    0 -0.15226487304E+02  0.11154072760E+02 -0.21484346959E+01  0.18996710943E+02  0.51100000000E-03 0.  1.
         12    1    3    3    0    0  0.23436158075E+02 -0.27456541516E+02 -0.15303647222E+02  0.39208631646E+02  0.00000000000E+00 0. -1.
</event>
<event>
 7    1  0.2656097E-013  0.7246153E+02  0.7816164E-02  0.1226708E+00
        -11   -1    0    0    0    0  0.00000000000E+00  0.00000000000E+00  0.45593999997E+02  0.45594000000E+02  0.51100000000E-03 0.  1.
         11   -1    0    0    0    0 -0.00000000000E+00 -0.00000000000E+00 -0.45593999997E+02  0.45594000000E+02  0.51100000000E-03 0. -1.
    9900012    2    1    2    0    0  0.15112089567E+01  0.13938044869E+02 -0.12414823738E+02  0.72461529545E+02  0.69999946916E+02 0.  0.
        -12    1    1    2    0    0 -0.15112089567E+01 -0.13938044869E+02  0.12414823738E+02  0.18726470455E+02  0.00000000000E+00 0.  1.
         11    1    3    3    0    0  0.69714749009E+00  0.19555046402E+02  0.27080810358E+01  0.19753975741E+02  0.51100000000E-03 0. -1.
        -11    1    3    3    0    0  0.23099087108E+02 -0.91150793664E+01  0.12030690915E+01  0.24861614441E+02  0.51100000000E-03 0.  1.
         12    1    3    3    0    0 -0.22285025642E+02  0.34980778325E+01 -0.16325973865E+02  0.27845939363E+02  0.00000000000E+00 0. -1.
</event>
<event>
 7    1  0.2656097E-013  0.7246154E+02  0.7816164E-02  0.1226708E+00
        -11   -1    0    0    0    0  0.00000000000E+00  0.00000000000E+00  0.45593999997E+02  0.45594000000E+02  0.51100000000E-03 0.  1.
         11   -1    0    0    0    0 -0.00000000000E+00 -0.00000000000E+00 -0.45593999997E+02  0.45594000000E+02  0.51100000000E-03 0. -1.
    9900012    2    1    2    0    0  0.18542744150E+02  0.12983439483E+01 -0.22718787600E+01  0.72461535018E+02  0.69999954047E+02 0.  0.
        -12    1    1    2    0    0 -0.18542744150E+02 -0.12983439483E+01  0.22718787600E+01  0.18726464982E+02  0.00000000000E+00 0.  1.
         11    1    3    3    0    0  0.27483068752E+02 -0.27970145897E+00 -0.98414666095E+01  0.29193351404E+02  0.51100000000E-03 0. -1.
        -11    1    3    3    0    0  0.14092779029E+02 -0.95394944030E+01  0.26354924439E+01  0.17220748965E+02  0.51100000000E-03 0.  1.
        -12    1    3    3    0    0 -0.23033103632E+02  0.11117539810E+02  0.49340954055E+01  0.26047434649E+02  0.00000000000E+00 0.  1.
</event>
<event>
 7    1  0.2656097E-013  0.7246160E+02  0.7816164E-02  0.1226708E+00
        -11   -1    0    0    0    0  0.00000000000E+00  0.00000000000E+00  0.45593999997E+02  0.45594000000E+02  0.51100000000E-03 0. -1.
         11   -1    0    0    0    0 -0.00000000000E+00 -0.00000000000E+00 -0.45593999997E+02  0.45594000000E+02  0.51100000000E-03 0.  1.
    9900012    2    1    2    0    0 -0.16097431843E+02  0.70517660483E+01  0.64670859608E+01  0.72461603733E+02  0.70000043560E+02 0.  0.
        -12    1    1    2    0    0  0.16097431843E+02 -0.70517660483E+01 -0.64670859608E+01  0.18726396267E+02  0.00000000000E+00 0.  1.
         11    1    3    3    0    0 -0.98979180797E+01  0.84138524605E+00  0.85606179574E+01  0.13113385967E+02  0.51100000000E-03 0. -1.
        -11    1    3    3    0    0 -0.31777509389E+02  0.10028959996E+02 -0.31058580820E+01  0.33466946324E+02  0.51100000000E-03 0.  1.
        -12    1    3    3    0    0  0.25577995626E+02 -0.38185791934E+01  0.10123260854E+01  0.25881271441E+02  0.00000000000E+00 0.  1.
</event>
<event>
 7    1  0.2656097E-013  0.7246164E+02  0.7816164E-02  0.1226708E+00
        -11   -1    0    0    0    0  0.00000000000E+00  0.00000000000E+00  0.45593999997E+02  0.45594000000E+02  0.51100000000E-03 0. -1.
         11   -1    0    0    0    0 -0.00000000000E+00 -0.00000000000E+00 -0.45593999997E+02  0.45594000000E+02  0.51100000000E-03 0.  1.
    9900012    2    1    2    0    0 -0.15362382597E+02  0.10186921093E+02 -0.33015776189E+01  0.72461639564E+02  0.70000090236E+02 0.  0.
        -12    1    1    2    0    0  0.15362382597E+02 -0.10186921093E+02  0.33015776189E+01  0.18726360436E+02  0.00000000000E+00 0.  1.
         11    1    3    3    0    0  0.54181842998E+01  0.50303500219E+01  0.51165154903E+01  0.89910996810E+01  0.51100000000E-03 0. -1.
        -11    1    3    3    0    0  0.15431395097E+02  0.11058606594E+02  0.11018319820E+02  0.21950492167E+02  0.51100000000E-03 0.  1.
         12    1    3    3    0    0 -0.36211961994E+02 -0.59020355228E+01 -0.19436412929E+02  0.41520047716E+02  0.00000000000E+00 0. -1.
</event>
<event>
 7    1  0.2656097E-013  0.7246167E+02  0.7816164E-02  0.1226708E+00
        -11   -1    0    0    0    0  0.00000000000E+00  0.00000000000E+00  0.45593999997E+02  0.45594000000E+02  0.51100000000E-03 0. -1.
         11   -1    0    0    0    0 -0.00000000000E+00 -0.00000000000E+00 -0.45593999997E+02  0.45594000000E+02  0.51100000000E-03 0.  1.
    9900012    2    1    2    0    0  0.12337011352E+02  0.11213680964E+02  0.85280197484E+01  0.72461665317E+02  0.70000123784E+02 0.  0.
        -12    1    1    2    0    0 -0.12337011352E+02 -0.11213680964E+02 -0.85280197484E+01  0.18726334683E+02  0.00000000000E+00 0.  1.
         11    1    3    3    0    0 -0.93618850254E+00  0.26687181179E+02  0.19106493843E+00  0.26704280449E+02  0.51100000000E-03 0.  1.
        -11    1    3    3    0    0 -0.60909614999E+01 -0.64254872366E+01 -0.12887528198E+02  0.15635698946E+02  0.51100000000E-03 0. -1.
         12    1    3    3    0    0  0.19364161354E+02 -0.90480129790E+01  0.21224483008E+02  0.30121685922E+02  0.00000000000E+00 0. -1.
</event>
<event>
 7    1  0.2656097E-013  0.7246158E+02  0.7816164E-02  0.1226708E+00
        -11   -1    0    0    0    0  0.00000000000E+00  0.00000000000E+00  0.45593999997E+02  0.45594000000E+02  0.51100000000E-03 0.  1.
         11   -1    0    0    0    0 -0.00000000000E+00 -0.00000000000E+00 -0.45593999997E+02  0.45594000000E+02  0.51100000000E-03 0. -1.
    9900012    2    1    2    0    0 -0.14584239037E+02  0.90997215314E+01 -0.74279107376E+01  0.72461579675E+02  0.70000012221E+02 0.  0.
        -12    1    1    2    0    0  0.14584239037E+02 -0.90997215314E+01  0.74279107376E+01  0.18726420325E+02  0.00000000000E+00 0.  1.
         11    1    3    3    0    0  0.68490640910E+01  0.59999685456E+01  0.14879066566E+01  0.92262217593E+01  0.51100000000E-03 0. -1.
        -11    1    3    3    0    0  0.15136587357E+02  0.12179199628E+01  0.13484999105E+02  0.20308737208E+02  0.51100000000E-03 0.  1.
         12    1    3    3    0    0 -0.36569890485E+02  0.18818330230E+01 -0.22400816499E+02  0.42926620709E+02  0.00000000000E+00 0. -1.
</event>
<event>
 7    1  0.2656097E-013  0.7246191E+02  0.7816164E-02  0.1226707E+00
        -11   -1    0    0    0    0  0.00000000000E+00  0.00000000000E+00  0.45593999997E+02  0.45594000000E+02  0.51100000000E-03 0. -1.
         11   -1    0    0    0    0 -0.00000000000E+00 -0.00000000000E+00 -0.45593999997E+02  0.45594000000E+02  0.51100000000E-03 0.  1.
    9900012    2    1    2    0    0 -0.11974865039E+02  0.12482340184E+02  0.71735756660E+01  0.72461911327E+02  0.70000444256E+02 0.  0.
        -12    1    1    2    0    0  0.11974865039E+02 -0.12482340184E+02 -0.71735756660E+01  0.18726088673E+02  0.00000000000E+00 0.  1.
         11    1    3    3    0    0 -0.20273055592E+02  0.12601013901E+02  0.21866251677E+02  0.32371519844E+02  0.51100000000E-03 0. -1.
        -11    1    3    3    0    0  0.41584167950E+01  0.14247313635E+02  0.47324854583E+01  0.15578022819E+02  0.51100000000E-03 0.  1.
        -12    1    3    3    0    0  0.41397737578E+01 -0.14365987353E+02 -0.19425161469E+02  0.24512368664E+02  0.00000000000E+00 0.  1.
</event>
<event>
 7    1  0.2656097E-013  0.7246155E+02  0.7816164E-02  0.1226708E+00
        -11   -1    0    0    0    0  0.00000000000E+00  0.00000000000E+00  0.45593999997E+02  0.45594000000E+02  0.51100000000E-03 0.  1.
         11   -1    0    0    0    0 -0.00000000000E+00 -0.00000000000E+00 -0.45593999997E+02  0.45594000000E+02  0.51100000000E-03 0. -1.
    9900012    2    1    2    0    0  0.11123683980E+02 -0.13665277840E+02 -0.63406499438E+01  0.72461547975E+02  0.69999970925E+02 0.  0.
        -12    1    1    2    0    0 -0.11123683980E+02  0.13665277840E+02  0.63406499438E+01  0.18726452025E+02  0.00000000000E+00 0.  1.
         11    1    3    3    0    0  0.14990124948E+02  0.10837010194E+02  0.19825103661E+02  0.27114191328E+02  0.51100000000E-03 0. -1.
        -11    1    3    3    0    0  0.44729766008E+01 -0.13420785445E+01  0.41838297002E+01  0.62700179994E+01  0.51100000000E-03 0.  1.
        -12    1    3    3    0    0 -0.83394175690E+01 -0.23160209490E+02 -0.30349583305E+02  0.39077338648E+02  0.00000000000E+00 0.  1.
</event>
<event>
 7    1  0.2656097E-013  0.7246155E+02  0.7816164E-02  0.1226708E+00
        -11   -1    0    0    0    0  0.00000000000E+00  0.00000000000E+00  0.45593999997E+02  0.45594000000E+02  0.51100000000E-03 0. -1.
         11   -1    0    0    0    0 -0.00000000000E+00 -0.00000000000E+00 -0.45593999997E+02  0.45594000000E+02  0.51100000000E-03 0.  1.
    9900012    2    1    2    0    0  0.89692997964E+01 -0.15170553681E+02  0.63313428384E+01  0.72461549723E+02  0.69999973202E+02 0.  0.
        -12    1    1    2    0    0 -0.89692997964E+01  0.15170553681E+02 -0.63313428384E+01  0.18726450277E+02  0.00000000000E+00 0.  1.
         11    1    3    3    0    0  0.34920260695E+01 -0.13977017945E+02  0.30290258971E+02  0.33541780893E+02  0.51100000000E-03 0. -1.
        -11    1    3    3    0    0  0.11458425101E+02 -0.40283445136E+01  0.18407344028E+01  0.12284598842E+02  0.51100000000E-03 0.  1.
        -12    1    3    3    0    0 -0.59811513737E+01  0.28348087777E+01 -0.25799650535E+02  0.26635169988E+02  0.00000000000E+00 0.  1.
</event>
<event>
 7    1  0.2656097E-013  0.7246156E+02  0.7816164E-02  0.1226708E+00
        -11   -1    0    0    0    0  0.00000000000E+00  0.00000000000E+00  0.45593999997E+02  0.45594000000E+02  0.51100000000E-03 0.  1.
         11   -1    0    0    0    0 -0.00000000000E+00 -0.00000000000E+00 -0.45593999997E+02  0.45594000000E+02  0.51100000000E-03 0. -1.
    9900012    2    1    2    0    0 -0.17629797370E+02  0.49361000769E+01  0.39376173323E+01  0.72461556944E+02  0.69999982609E+02 0.  0.
        -12    1    1    2    0    0  0.17629797370E+02 -0.49361000769E+01 -0.39376173323E+01  0.18726443056E+02  0.00000000000E+00 0.  1.
         11    1    3    3    0    0 -0.33323823639E+01 -0.69859510958E+01 -0.39888305441E+01  0.87074137551E+01  0.51100000000E-03 0. -1.
        -11    1    3    3    0    0  0.21718065438E+02 -0.28096879629E+01  0.11397893359E+02  0.24687662630E+02  0.51100000000E-03 0.  1.
         12    1    3    3    0    0 -0.36015480444E+02  0.14731739136E+02 -0.34714454830E+01  0.39066480559E+02  0.00000000000E+00 0. -1.
</event>
<event>
 7    1  0.2656097E-013  0.7246165E+02  0.7816164E-02  0.1226708E+00
        -11   -1    0    0    0    0  0.00000000000E+00  0.00000000000E+00  0.45593999997E+02  0.45594000000E+02  0.51100000000E-03 0. -1.
         11   -1    0    0    0    0 -0.00000000000E+00 -0.00000000000E+00 -0.45593999997E+02  0.45594000000E+02  0.51100000000E-03 0.  1.
    9900012    2    1    2    0    0 -0.10825818708E+01  0.18441667941E+02 -0.30674178866E+01  0.72461650851E+02  0.70000104941E+02 0.  0.
        -12    1    1    2    0    0  0.10825818708E+01 -0.18441667941E+02  0.30674178866E+01  0.18726349149E+02  0.00000000000E+00 0.  1.
         11    1    3    3    0    0 -0.27439707189E+02 -0.57017955790E+01  0.13884163387E+01  0.28060215673E+02  0.51100000000E-03 0. -1.
        -11    1    3    3    0    0 -0.39881414847E+01 -0.16778339297E+01 -0.65818632644E+00  0.43764835998E+01  0.51100000000E-03 0.  1.
        -12    1    3    3    0    0  0.30345266803E+02  0.25821297449E+02 -0.37976478988E+01  0.40024951579E+02  0.00000000000E+00 0.  1.
</event>
<event>
 7    1  0.2656097E-013  0.7246156E+02  0.7816164E-02  0.1226708E+00
        -11   -1    0    0    0    0  0.00000000000E+00  0.00000000000E+00  0.45593999997E+02  0.45594000000E+02  0.51100000000E-03 0.  1.
         11   -1    0    0    0    0 -0.00000000000E+00 -0.00000000000E+00 -0.45593999997E+02  0.45594000000E+02  0.51100000000E-03 0. -1.
    9900012    2    1    2    0    0  0.14810836063E+02  0.22450242946E+01 -0.11237379711E+02  0.72461556084E+02  0.69999981489E+02 0.  0.
        -12    1    1    2    0    0 -0.14810836063E+02 -0.22450242946E+01  0.11237379711E+02  0.18726443916E+02  0.00000000000E+00 0.  1.
         11    1    3    3    0    0 -0.80638708000E+01  0.18857567536E+02 -0.18738216175E+02  0.27780471763E+02  0.51100000000E-03 0. -1.
        -11    1    3    3    0    0 -0.48564226167E+01 -0.54275470018E+01 -0.81507979728E+01  0.10930627381E+02  0.51100000000E-03 0.  1.
        -12    1    3    3    0    0  0.27731129480E+02 -0.11184996240E+02  0.15651634437E+02  0.33750456940E+02  0.00000000000E+00 0.  1.
</event>
<event>
 7    1  0.2656097E-013  0.7246158E+02  0.7816164E-02  0.1226708E+00
        -11   -1    0    0    0    0  0.00000000000E+00  0.00000000000E+00  0.45593999997E+02  0.45594000000E+02  0.51100000000E-03 0.  1.
         11   -1    0    0    0    0 -0.00000000000E+00 -0.00000000000E+00 -0.45593999997E+02  0.45594000000E+02  0.51100000000E-03 0. -1.
    9900012    2    1    2    0    0 -0.95068024287E+00  0.75238604841E+01 -0.17122105086E+02  0.72461581440E+02  0.70000014519E+02 0.  0.
        -12    1    1    2    0    0  0.95068024287E+00 -0.75238604841E+01  0.17122105086E+02  0.18726418560E+02  0.00000000000E+00 0.  1.
         11    1    3    3    0    0 -0.32550582987E+01  0.12632647428E+02  0.54124022983E+00  0.13056497494E+02  0.51100000000E-03 0. -1.
        -11    1    3    3    0    0  0.81564605502E+01 -0.87329070746E+01  0.18811749596E+02  0.22286171448E+02  0.51100000000E-03 0.  1.
         12    1    3    3    0    0 -0.58520824945E+01  0.36241201307E+01 -0.36475094912E+02  0.37118912498E+02  0.00000000000E+00 0. -1.
</event>
<event>
 7    1  0.2656097E-013  0.7246159E+02  0.7816164E-02  0.1226708E+00
        -11   -1    0    0    0    0  0.00000000000E+00  0.00000000000E+00  0.45593999997E+02  0.45594000000E+02  0.51100000000E-03 0.  1.
         11   -1    0    0    0    0 -0.00000000000E+00 -0.00000000000E+00 -0.45593999997E+02  0.45594000000E+02  0.51100000000E-03 0. -1.
    9900012    2    1    2    0    0  0.15636444414E+02  0.67626981144E+01 -0.77747078990E+01  0.72461586499E+02  0.70000021109E+02 0.  0.
        -12    1    1    2    0    0 -0.15636444414E+02 -0.67626981144E+01  0.77747078990E+01  0.18726413501E+02  0.00000000000E+00 0.  1.
         11    1    3    3    0    0  0.56066601854E+01 -0.89206186411E+01  0.12750035327E+02  0.16540117184E+02  0.51100000000E-03 0. -1.
        -11    1    3    3    0    0  0.15966283295E+02  0.20236042947E+02  0.75561929759E+01  0.26861044078E+02  0.51100000000E-03 0.  1.
         12    1    3    3    0    0 -0.59364990661E+01 -0.45527261915E+01 -0.28080936202E+02  0.29060425236E+02  0.00000000000E+00 0. -1.
</event>
<event>
 7    1  0.2656097E-013  0.7246159E+02  0.7816164E-02  0.1226708E+00
        -11   -1    0    0    0    0  0.00000000000E+00  0.00000000000E+00  0.45593999997E+02  0.45594000000E+02  0.51100000000E-03 0.  1.
         11   -1    0    0    0    0 -0.00000000000E+00 -0.00000000000E+00 -0.45593999997E+02  0.45594000000E+02  0.51100000000E-03 0. -1.
    9900012    2    1    2    0    0 -0.68454204090E+01  0.38270142099E+01 -0.17005075437E+02  0.72461590601E+02  0.70000026454E+02 0.  0.
        -12    1    1    2    0    0  0.68454204090E+01 -0.38270142099E+01  0.17005075437E+02  0.18726409399E+02  0.00000000000E+00 0.  1.
         11    1    3    3    0    0 -0.72493452965E+01  0.22894422781E+02 -0.10143940646E+02  0.26069275667E+02  0.51100000000E-03 0. -1.
        -11    1    3    3    0    0 -0.12527318294E+02  0.49042119985E+01 -0.12739892209E+02  0.18528082813E+02  0.51100000000E-03 0.  1.
        -12    1    3    3    0    0  0.12931243181E+02 -0.23971620570E+02  0.58787574177E+01  0.27864232122E+02  0.00000000000E+00 0.  1.
</event>
<event>
 7    1  0.2656097E-013  0.7246159E+02  0.7816164E-02  0.1226708E+00
        -11   -1    0    0    0    0  0.00000000000E+00  0.00000000000E+00  0.45593999997E+02  0.45594000000E+02  0.51100000000E-03 0.  1.
         11   -1    0    0    0    0 -0.00000000000E+00 -0.00000000000E+00 -0.45593999997E+02  0.45594000000E+02  0.51100000000E-03 0. -1.
    9900012    2    1    2    0    0  0.11289644931E+02 -0.11478695250E+02  0.95635720232E+01  0.72461589849E+02  0.70000025473E+02 0.  0.
        -12    1    1    2    0    0 -0.11289644931E+02  0.11478695250E+02 -0.95635720232E+01  0.18726410151E+02  0.00000000000E+00 0.  1.
         11    1    3    3    0    0 -0.12096209865E+01 -0.46501379833E+01 -0.46539411923E+01  0.66892551960E+01  0.51100000000E-03 0. -1.
        -11    1    3    3    0    0  0.28163711388E+01  0.27548983260E+02  0.11396477513E+02  0.29945920007E+02  0.51100000000E-03 0.  1.
         12    1    3    3    0    0  0.96828947786E+01 -0.34377540527E+02  0.28210357026E+01  0.35826414646E+02  0.00000000000E+00 0. -1.
</event>
<event>
 7    1  0.2656097E-013  0.7246156E+02  0.7816164E-02  0.1226708E+00
        -11   -1    0    0    0    0  0.00000000000E+00  0.00000000000E+00  0.45593999997E+02  0.45594000000E+02  0.51100000000E-03 0.  1.
         11   -1    0    0    0    0 -0.00000000000E+00 -0.00000000000E+00 -0.45593999997E+02  0.45594000000E+02  0.51100000000E-03 0. -1.
    9900012    2    1    2    0    0  0.36166304043E+00  0.14411328093E+02 -0.11952509098E+02  0.72461557430E+02  0.69999983242E+02 0.  0.
        -12    1    1    2    0    0 -0.36166304043E+00 -0.14411328093E+02  0.11952509098E+02  0.18726442570E+02  0.00000000000E+00 0.  1.
         11    1    3    3    0    0  0.55855102247E+01 -0.13126472552E+01  0.18550264475E+01  0.60300987279E+01  0.51100000000E-03 0. -1.
        -11    1    3    3    0    0 -0.46768536698E+01  0.24618170232E+02  0.19626905019E+02  0.31829902084E+02  0.51100000000E-03 0.  1.
         12    1    3    3    0    0 -0.54699351446E+00 -0.88941948832E+01 -0.33434440565E+02  0.34601556618E+02  0.00000000000E+00 0. -1.
</event>
<event>
 7    1  0.2656097E-013  0.7246209E+02  0.7816164E-02  0.1226707E+00
        -11   -1    0    0    0    0  0.00000000000E+00  0.00000000000E+00  0.45593999997E+02  0.45594000000E+02  0.51100000000E-03 0. -1.
         11   -1    0    0    0    0 -0.00000000000E+00 -0.00000000000E+00 -0.45593999997E+02  0.45594000000E+02  0.51100000000E-03 0.  1.
    9900012    2    1    2    0    0  0.11274765682E+02 -0.14509040796E+02  0.36093217228E+01  0.72462087223E+02  0.70000673392E+02 0.  0.
        -12    1    1    2    0    0 -0.11274765682E+02  0.14509040796E+02 -0.36093217228E+01  0.18725912777E+02  0.00000000000E+00 0.  1.
         11    1    3    3    0    0  0.17794484034E+02  0.15303207512E+02  0.15268882016E+01  0.23519421975E+02  0.51100000000E-03 0. -1.
        -11    1    3    3    0    0  0.12981715551E+02 -0.21096256955E+02  0.92055234484E+01  0.26425719638E+02  0.51100000000E-03 0.  1.
         12    1    3    3    0    0 -0.19501433903E+02 -0.87159913533E+01 -0.71230899272E+01  0.22516945611E+02  0.00000000000E+00 0. -1.
</event>
<event>
 7    1  0.2656097E-013  0.7246162E+02  0.7816164E-02  0.1226708E+00
        -11   -1    0    0    0    0  0.00000000000E+00  0.00000000000E+00  0.45593999997E+02  0.45594000000E+02  0.51100000000E-03 0.  1.
         11   -1    0    0    0    0 -0.00000000000E+00 -0.00000000000E+00 -0.45593999997E+02  0.45594000000E+02  0.51100000000E-03 0. -1.
    9900012    2    1    2    0    0 -0.78396805443E+01 -0.89940334143E+01 -0.14433436221E+02  0.72461619965E+02  0.70000064705E+02 0.  0.
        -12    1    1    2    0    0  0.78396805443E+01  0.89940334143E+01  0.14433436221E+02  0.18726380035E+02  0.00000000000E+00 0.  1.
         11    1    3    3    0    0  0.16493110526E+02  0.13292023355E+02 -0.18551690087E+02  0.28157872523E+02  0.51100000000E-03 0. -1.
        -11    1    3    3    0    0  0.96610944853E+00 -0.86656498434E+01 -0.91644627801E+01  0.12649673236E+02  0.51100000000E-03 0.  1.
        -12    1    3    3    0    0 -0.25298900519E+02 -0.13620406926E+02  0.13282716646E+02  0.31654074205E+02  0.00000000000E+00 0.  1.
</event>
<event>
 7    1  0.2656097E-013  0.7246153E+02  0.7816164E-02  0.1226708E+00
        -11   -1    0    0    0    0  0.00000000000E+00  0.00000000000E+00  0.45593999997E+02  0.45594000000E+02  0.51100000000E-03 0. -1.
         11   -1    0    0    0    0 -0.00000000000E+00 -0.00000000000E+00 -0.45593999997E+02  0.45594000000E+02  0.51100000000E-03 0.  1.
    9900012    2    1    2    0    0 -0.14775401766E+02  0.55817663399E+01  0.10060417318E+02  0.72461531848E+02  0.69999949917E+02 0.  0.
        -12    1    1    2    0    0  0.14775401766E+02 -0.55817663399E+01 -0.10060417318E+02  0.18726468152E+02  0.00000000000E+00 0.  1.
         11    1    3    3    0    0  0.11197509167E+02 -0.70170086252E+01 -0.79355358097E+01  0.15414128274E+02  0.51100000000E-03 0. -1.
        -11    1    3    3    0    0  0.10984571367E+01  0.17510586993E+02 -0.79204771322E+01  0.19249966836E+02  0.51100000000E-03 0.  1.
         12    1    3    3    0    0 -0.27071368070E+02 -0.49118120281E+01  0.25916430260E+02  0.37797436738E+02  0.00000000000E+00 0. -1.
</event>
<event>
 7    1  0.2656097E-013  0.7246155E+02  0.7816164E-02  0.1226708E+00
        -11   -1    0    0    0    0  0.00000000000E+00  0.00000000000E+00  0.45593999997E+02  0.45594000000E+02  0.51100000000E-03 0. -1.
         11   -1    0    0    0    0 -0.00000000000E+00 -0.00000000000E+00 -0.45593999997E+02  0.45594000000E+02  0.51100000000E-03 0.  1.
    9900012    2    1    2    0    0 -0.10286087322E+02 -0.86806484283E+01  0.13020081969E+02  0.72461553887E+02  0.69999978627E+02 0.  0.
        -12    1    1    2    0    0  0.10286087322E+02  0.86806484283E+01 -0.13020081969E+02  0.18726446113E+02  0.00000000000E+00 0.  1.
         11    1    3    3    0    0  0.18786089286E+02 -0.11391462465E+02  0.22506270912E+02  0.31451785297E+02  0.51100000000E-03 0. -1.
        -11    1    3    3    0    0 -0.67008182765E+01 -0.13454406923E+01  0.92828317234E+01  0.11527451639E+02  0.51100000000E-03 0.  1.
        -12    1    3    3    0    0 -0.22371358332E+02  0.40562547286E+01 -0.18769020667E+02  0.29482316951E+02  0.00000000000E+00 0.  1.
</event>
<event>
 7    1  0.2656097E-013  0.7246157E+02  0.7816164E-02  0.1226708E+00
        -11   -1    0    0    0    0  0.00000000000E+00  0.00000000000E+00  0.45593999997E+02  0.45594000000E+02  0.51100000000E-03 0.  1.
         11   -1    0    0    0    0 -0.00000000000E+00 -0.00000000000E+00 -0.45593999997E+02  0.45594000000E+02  0.51100000000E-03 0. -1.
    9900012    2    1    2    0    0 -0.51623765053E+01 -0.17862457871E+02  0.22274760506E+01  0.72461569963E+02  0.69999999569E+02 0.  0.
        -12    1    1    2    0    0  0.51623765053E+01  0.17862457871E+02 -0.22274760506E+01  0.18726430037E+02  0.00000000000E+00 0.  1.
         11    1    3    3    0    0  0.28270218807E+00 -0.10599439744E+02  0.95854873111E+01  0.14293691289E+02  0.51100000000E-03 0. -1.
        -11    1    3    3    0    0 -0.44109689709E+01 -0.13277333503E+02  0.23153354800E+02  0.27052210094E+02  0.51100000000E-03 0.  1.
         12    1    3    3    0    0 -0.10341097225E+01  0.60143153757E+01 -0.30511366060E+02  0.31115668581E+02  0.00000000000E+00 0. -1.
</event>
<event>
 7    1  0.2656097E-013  0.7246157E+02  0.7816164E-02  0.1226708E+00
        -11   -1    0    0    0    0  0.00000000000E+00  0.00000000000E+00  0.45593999997E+02  0.45594000000E+02  0.51100000000E-03 0. -1.
         11   -1    0    0    0    0 -0.00000000000E+00 -0.00000000000E+00 -0.45593999997E+02  0.45594000000E+02  0.51100000000E-03 0.  1.
    9900012    2    1    2    0    0 -0.30141121289E+00  0.18650399526E+02 -0.16586007769E+01  0.72461569274E+02  0.69999998670E+02 0.  0.
        -12    1    1    2    0    0  0.30141121289E+00 -0.18650399526E+02  0.16586007769E+01  0.18726430726E+02  0.00000000000E+00 0.  1.
         11    1    3    3    0    0 -0.17388365830E+02 -0.89491525402E+00 -0.48066587682E+00  0.17418013075E+02  0.51100000000E-03 0. -1.
        -11    1    3    3    0    0 -0.13171934705E+01  0.53399672494E+00 -0.21582748365E+02  0.21629497876E+02  0.51100000000E-03 0.  1.
        -12    1    3    3    0    0  0.18404148087E+02  0.19011318055E+02  0.20404813465E+02  0.33414058322E+02  0.00000000000E+00 0.  1.
</event>
<event>
 7    1  0.2656097E-013  0.7246157E+02  0.7816164E-02  0.1226708E+00
        -11   -1    0    0    0    0  0.00000000000E+00  0.00000000000E+00  0.45593999997E+02  0.45594000000E+02  0.51100000000E-03 0. -1.
         11   -1    0    0    0    0 -0.00000000000E+00 -0.00000000000E+00 -0.45593999997E+02  0.45594000000E+02  0.51100000000E-03 0.  1.
    9900012    2    1    2    0    0 -0.17821785708E+01  0.17730606714E+02  0.57557572787E+01  0.72461566363E+02  0.69999994879E+02 0.  0.
        -12    1    1    2    0    0  0.17821785708E+01 -0.17730606714E+02 -0.57557572787E+01  0.18726433637E+02  0.00000000000E+00 0.  1.
         11    1    3    3    0    0  0.98327865816E+01  0.26277645071E+02  0.15805109165E+02  0.32202481246E+02  0.51100000000E-03 0. -1.
        -11    1    3    3    0    0 -0.87667747306E+00  0.85463046557E+01  0.90434790281E+01  0.12473668260E+02  0.51100000000E-03 0.  1.
        -12    1    3    3    0    0 -0.10738287679E+02 -0.17093343012E+02 -0.19092830914E+02  0.27785416858E+02  0.00000000000E+00 0.  1.
</event>
<event>
 7    1  0.2656097E-013  0.7246156E+02  0.7816164E-02  0.1226708E+00
        -11   -1    0    0    0    0  0.00000000000E+00  0.00000000000E+00  0.45593999997E+02  0.45594000000E+02  0.51100000000E-03 0.  1.
         11   -1    0    0    0    0 -0.00000000000E+00 -0.00000000000E+00 -0.45593999997E+02  0.45594000000E+02  0.51100000000E-03 0. -1.
    9900012    2    1    2    0    0  0.75406255157E+01  0.10743967719E+02 -0.13356110925E+02  0.72461559480E+02  0.69999985912E+02 0.  0.
        -12    1    1    2    0    0 -0.75406255157E+01 -0.10743967719E+02  0.13356110925E+02  0.18726440520E+02  0.00000000000E+00 0.  1.
         11    1    3    3    0    0  0.32788117676E+02  0.99114849650E+01  0.79893945481E+00  0.34262756741E+02  0.51100000000E-03 0. -1.
        -11    1    3    3    0    0 -0.28223005066E+00 -0.27521898609E+01 -0.12632145741E+02  0.12931562516E+02  0.51100000000E-03 0.  1.
        -12    1    3    3    0    0 -0.24965262110E+02  0.35846726149E+01 -0.15229046386E+01  0.25267240223E+02  0.00000000000E+00 0.  1.
</event>
<event>
 7    1  0.2656097E-013  0.7246169E+02  0.7816164E-02  0.1226708E+00
        -11   -1    0    0    0    0  0.00000000000E+00  0.00000000000E+00  0.45593999997E+02  0.45594000000E+02  0.51100000000E-03 0.  1.
         11   -1    0    0    0    0 -0.00000000000E+00 -0.00000000000E+00 -0.45593999997E+02  0.45594000000E+02  0.51100000000E-03 0. -1.
    9900012    2    1    2    0    0 -0.22787591259E+01  0.17535735760E+02  0.61627903532E+01  0.72461688118E+02  0.70000153486E+02 0.  0.
        -12    1    1    2    0    0  0.22787591259E+01 -0.17535735760E+02 -0.61627903532E+01  0.18726311882E+02  0.00000000000E+00 0.  1.
         11    1    3    3    0    0  0.13516496903E+02  0.20270062433E+02  0.94009204760E+01  0.26114142254E+02  0.51100000000E-03 0. -1.
        -11    1    3    3    0    0  0.67327137509E+01 -0.14907810532E+02  0.82052064848E+01  0.18300209371E+02  0.51100000000E-03 0.  1.
         12    1    3    3    0    0 -0.22527969780E+02  0.12173483858E+02 -0.11443336608E+02  0.28047336493E+02  0.00000000000E+00 0. -1.
</event>
<event>
 7    1  0.2656097E-013  0.7246157E+02  0.7816164E-02  0.1226708E+00
        -11   -1    0    0    0    0  0.00000000000E+00  0.00000000000E+00  0.45593999997E+02  0.45594000000E+02  0.51100000000E-03 0. -1.
         11   -1    0    0    0    0 -0.00000000000E+00 -0.00000000000E+00 -0.45593999997E+02  0.45594000000E+02  0.51100000000E-03 0.  1.
    9900012    2    1    2    0    0  0.10170916217E+02 -0.74843798312E+01  0.13828080494E+02  0.72461567123E+02  0.69999995869E+02 0.  0.
        -12    1    1    2    0    0 -0.10170916217E+02  0.74843798312E+01 -0.13828080494E+02  0.18726432877E+02  0.00000000000E+00 0.  1.
         11    1    3    3    0    0  0.26709289354E+02 -0.58346374147E+01  0.33217094598E+02  0.43020977504E+02  0.51100000000E-03 0. -1.
        -11    1    3    3    0    0 -0.77826939035E+00 -0.57463253903E+01 -0.61637952402E+01  0.84627614145E+01  0.51100000000E-03 0.  1.
        -12    1    3    3    0    0 -0.15760103747E+02  0.40965829737E+01 -0.13225218864E+02  0.20977828205E+02  0.00000000000E+00 0.  1.
</event>
<event>
 7    1  0.2656097E-013  0.7246184E+02  0.7816164E-02  0.1226707E+00
        -11   -1    0    0    0    0  0.00000000000E+00  0.00000000000E+00  0.45593999997E+02  0.45594000000E+02  0.51100000000E-03 0.  1.
         11   -1    0    0    0    0 -0.00000000000E+00 -0.00000000000E+00 -0.45593999997E+02  0.45594000000E+02  0.51100000000E-03 0. -1.
    9900012    2    1    2    0    0  0.17935841820E+02  0.53826471436E+01  0.43257866594E-01  0.72461836931E+02  0.70000347343E+02 0.  0.
        -12    1    1    2    0    0 -0.17935841820E+02 -0.53826471436E+01 -0.43257866594E-01  0.18726163069E+02  0.00000000000E+00 0.  1.
         11    1    3    3    0    0  0.47910069332E+01  0.27870932818E+01 -0.48950595400E+01  0.73948120028E+01  0.51100000000E-03 0. -1.
        -11    1    3    3    0    0 -0.23587726163E+01 -0.28334065143E+02 -0.54366161124E+01  0.28947190724E+02  0.51100000000E-03 0.  1.
         12    1    3    3    0    0  0.15503607503E+02  0.30929619005E+02  0.10374933519E+02  0.36119834204E+02  0.00000000000E+00 0. -1.
</event>
<event>
 7    1  0.2656097E-013  0.7246154E+02  0.7816164E-02  0.1226708E+00
        -11   -1    0    0    0    0  0.00000000000E+00  0.00000000000E+00  0.45593999997E+02  0.45594000000E+02  0.51100000000E-03 0. -1.
         11   -1    0    0    0    0 -0.00000000000E+00 -0.00000000000E+00 -0.45593999997E+02  0.45594000000E+02  0.51100000000E-03 0.  1.
    9900012    2    1    2    0    0 -0.10382130510E+02 -0.12452644770E+02  0.93714030587E+01  0.72461543021E+02  0.69999964471E+02 0.  0.
        -12    1    1    2    0    0  0.10382130510E+02  0.12452644770E+02 -0.93714030587E+01  0.18726456979E+02  0.00000000000E+00 0.  1.
         11    1    3    3    0    0 -0.53967503486E+01  0.13839326602E+02  0.22961160259E+01  0.15030769248E+02  0.51100000000E-03 0. -1.
        -11    1    3    3    0    0  0.12382178261E+02  0.90543662274E+01  0.93810410899E+01  0.17980651225E+02  0.51100000000E-03 0.  1.
         12    1    3    3    0    0 -0.17367558423E+02 -0.35346337600E+02 -0.23057540571E+01  0.39450122548E+02  0.00000000000E+00 0. -1.
</event>
<event>
 7    1  0.2656097E-013  0.7246152E+02  0.7816164E-02  0.1226708E+00
        -11   -1    0    0    0    0  0.00000000000E+00  0.00000000000E+00  0.45593999997E+02  0.45594000000E+02  0.51100000000E-03 0. -1.
         11   -1    0    0    0    0 -0.00000000000E+00 -0.00000000000E+00 -0.45593999997E+02  0.45594000000E+02  0.51100000000E-03 0.  1.
    9900012    2    1    2    0    0  0.13625175421E+02 -0.40971332136E+01  0.12175760382E+02  0.72461520173E+02  0.69999934708E+02 0.  0.
        -12    1    1    2    0    0 -0.13625175421E+02  0.40971332136E+01 -0.12175760382E+02  0.18726479827E+02  0.00000000000E+00 0.  1.
         11    1    3    3    0    0 -0.31481107708E+01 -0.19936633285E+02  0.53100871276E+01  0.20870480917E+02  0.51100000000E-03 0. -1.
        -11    1    3    3    0    0 -0.17780743992E+01 -0.11567568028E+02 -0.91199669343E+01  0.14837249603E+02  0.51100000000E-03 0.  1.
        -12    1    3    3    0    0  0.18551360591E+02  0.27407068099E+02  0.15985640189E+02  0.36753789652E+02  0.00000000000E+00 0.  1.
</event>
<event>
 7    1  0.2656097E-013  0.7246164E+02  0.7816164E-02  0.1226708E+00
        -11   -1    0    0    0    0  0.00000000000E+00  0.00000000000E+00  0.45593999997E+02  0.45594000000E+02  0.51100000000E-03 0.  1.
         11   -1    0    0    0    0 -0.00000000000E+00 -0.00000000000E+00 -0.45593999997E+02  0.45594000000E+02  0.51100000000E-03 0. -1.
    9900012    2    1    2    0    0 -0.68435789191E+01 -0.14656385813E+02 -0.94356937243E+01  0.72461640675E+02  0.70000091684E+02 0.  0.
        -12    1    1    2    0    0  0.68435789191E+01  0.14656385813E+02  0.94356937243E+01  0.18726359325E+02  0.00000000000E+00 0.  1.
         11    1    3    3    0    0 -0.11433646340E+02  0.18863301355E+02 -0.12886766455E+02  0.25546450958E+02  0.51100000000E-03 0. -1.
        -11    1    3    3    0    0 -0.11445226490E+02 -0.94025315571E+01  0.91331236404E+01  0.17401573400E+02  0.51100000000E-03 0.  1.
        -12    1    3    3    0    0  0.16035293911E+02 -0.24117155611E+02 -0.56820509101E+01  0.29513616317E+02  0.00000000000E+00 0.  1.
</event>
<event>
 7    1  0.2656097E-013  0.7246147E+02  0.7816164E-02  0.1226708E+00
        -11   -1    0    0    0    0  0.00000000000E+00  0.00000000000E+00  0.45593999997E+02  0.45594000000E+02  0.51100000000E-03 0.  1.
         11   -1    0    0    0    0 -0.00000000000E+00 -0.00000000000E+00 -0.45593999997E+02  0.45594000000E+02  0.51100000000E-03 0. -1.
    9900012    2    1    2    0    0 -0.16046443686E+02 -0.50573699785E+01  0.82229929131E+01  0.72461469127E+02  0.69999868211E+02 0.  0.
        -12    1    1    2    0    0  0.16046443686E+02  0.50573699785E+01 -0.82229929131E+01  0.18726530873E+02  0.00000000000E+00 0.  1.
         11    1    3    3    0    0  0.10458069248E+02  0.38616300455E+01 -0.58173018746E+01  0.12574752497E+02  0.51100000000E-03 0. -1.
        -11    1    3    3    0    0 -0.61334800657E+01  0.20241247027E+02 -0.12092887725E+01  0.21184665174E+02  0.51100000000E-03 0.  1.
         12    1    3    3    0    0 -0.20371032868E+02 -0.29160247051E+02  0.15249583560E+02  0.38702051457E+02  0.00000000000E+00 0. -1.
</event>
<event>
 7    1  0.2656097E-013  0.7246154E+02  0.7816164E-02  0.1226708E+00
        -11   -1    0    0    0    0  0.00000000000E+00  0.00000000000E+00  0.45593999997E+02  0.45594000000E+02  0.51100000000E-03 0.  1.
         11   -1    0    0    0    0 -0.00000000000E+00 -0.00000000000E+00 -0.45593999997E+02  0.45594000000E+02  0.51100000000E-03 0. -1.
    9900012    2    1    2    0    0  0.11824121382E+02  0.96161689658E+00 -0.14489499685E+02  0.72461543992E+02  0.69999965736E+02 0.  0.
        -12    1    1    2    0    0 -0.11824121382E+02 -0.96161689658E+00  0.14489499685E+02  0.18726456008E+02  0.00000000000E+00 0.  1.
         11    1    3    3    0    0  0.24126373436E+01  0.22827596747E+02 -0.21834932608E+02  0.31680976539E+02  0.51100000000E-03 0. -1.
        -11    1    3    3    0    0 -0.82139697407E+01  0.10389705384E+00  0.94676094867E+01  0.12534581092E+02  0.51100000000E-03 0.  1.
         12    1    3    3    0    0  0.17625453779E+02 -0.21969876905E+02 -0.21221765638E+01  0.28245986361E+02  0.00000000000E+00 0. -1.
</event>
<event>
 7    1  0.2656097E-013  0.7246158E+02  0.7816164E-02  0.1226708E+00
        -11   -1    0    0    0    0  0.00000000000E+00  0.00000000000E+00  0.45593999997E+02  0.45594000000E+02  0.51100000000E-03 0. -1.
         11   -1    0    0    0    0 -0.00000000000E+00 -0.00000000000E+00 -0.45593999997E+02  0.45594000000E+02  0.51100000000E-03 0.  1.
    9900012    2    1    2    0    0 -0.11231176593E-01 -0.34410365528E+01  0.18407553028E+02  0.72461578367E+02  0.70000010516E+02 0.  0.
        -12    1    1    2    0    0  0.11231176593E-01  0.34410365528E+01 -0.18407553028E+02  0.18726421633E+02  0.00000000000E+00 0.  1.
         11    1    3    3    0    0  0.17024745601E+02 -0.31259860434E+01  0.26284727324E+02  0.31472220168E+02  0.51100000000E-03 0. -1.
        -11    1    3    3    0    0 -0.22514679115E+01  0.28795854958E+01  0.13957024228E+02  0.14427738768E+02  0.51100000000E-03 0.  1.
        -12    1    3    3    0    0 -0.14784508867E+02 -0.31946360053E+01 -0.21834198524E+02  0.26561619431E+02  0.00000000000E+00 0.  1.
</event>
<event>
 7    1  0.2656097E-013  0.7246156E+02  0.7816164E-02  0.1226708E+00
        -11   -1    0    0    0    0  0.00000000000E+00  0.00000000000E+00  0.45593999997E+02  0.45594000000E+02  0.51100000000E-03 0.  1.
         11   -1    0    0    0    0 -0.00000000000E+00 -0.00000000000E+00 -0.45593999997E+02  0.45594000000E+02  0.51100000000E-03 0. -1.
    9900012    2    1    2    0    0  0.11582381024E+02 -0.85675532669E+01 -0.11963493501E+02  0.72461556239E+02  0.69999981691E+02 0.  0.
        -12    1    1    2    0    0 -0.11582381024E+02  0.85675532669E+01  0.11963493501E+02  0.18726443761E+02  0.00000000000E+00 0.  1.
         11    1    3    3    0    0  0.44851180318E+01  0.12705207642E+02 -0.22382248689E+02  0.26124770652E+02  0.51100000000E-03 0. -1.
        -11    1    3    3    0    0  0.11774158073E+02  0.87564987296E+01  0.47364739099E+01  0.15418860324E+02  0.51100000000E-03 0.  1.
        -12    1    3    3    0    0 -0.46768950808E+01 -0.30029259638E+02  0.56822812782E+01  0.30917925263E+02  0.00000000000E+00 0.  1.
</event>
<event>
 7    1  0.2656097E-013  0.7246159E+02  0.7816164E-02  0.1226708E+00
        -11   -1    0    0    0    0  0.00000000000E+00  0.00000000000E+00  0.45593999997E+02  0.45594000000E+02  0.51100000000E-03 0.  1.
         11   -1    0    0    0    0 -0.00000000000E+00 -0.00000000000E+00 -0.45593999997E+02  0.45594000000E+02  0.51100000000E-03 0. -1.
    9900012    2    1    2    0    0  0.91339281414E+01  0.80467798765E+01 -0.14230212517E+02  0.72461594633E+02  0.70000031706E+02 0.  0.
        -12    1    1    2    0    0 -0.91339281414E+01 -0.80467798765E+01  0.14230212517E+02  0.18726405367E+02  0.00000000000E+00 0.  1.
         11    1    3    3    0    0  0.18656546162E+02 -0.11978351117E+02 -0.20463407003E+02  0.30171155705E+02  0.51100000000E-03 0. -1.
        -11    1    3    3    0    0 -0.11753627127E+02 -0.23937171098E+01 -0.90845425244E+01  0.15046811801E+02  0.51100000000E-03 0.  1.
        -12    1    3    3    0    0  0.22310091065E+01  0.22418848103E+02  0.15317737010E+02  0.27243627127E+02  0.00000000000E+00 0.  1.
</event>
<event>
 7    1  0.2656097E-013  0.7246156E+02  0.7816164E-02  0.1226708E+00
        -11   -1    0    0    0    0  0.00000000000E+00  0.00000000000E+00  0.45593999997E+02  0.45594000000E+02  0.51100000000E-03 0.  1.
         11   -1    0    0    0    0 -0.00000000000E+00 -0.00000000000E+00 -0.45593999997E+02  0.45594000000E+02  0.51100000000E-03 0. -1.
    9900012    2    1    2    0    0  0.93488250167E+01  0.13798104986E+01 -0.16167095522E+02  0.72461564572E+02  0.69999992546E+02 0.  0.
        -12    1    1    2    0    0 -0.93488250167E+01 -0.13798104986E+01  0.16167095522E+02  0.18726435428E+02  0.00000000000E+00 0.  1.
         11    1    3    3    0    0 -0.52607205487E+01  0.11622557118E+02  0.75581962977E+01  0.14828531492E+02  0.51100000000E-03 0. -1.
        -11    1    3    3    0    0 -0.37139932613E+01  0.16465355709E+02  0.96421430233E+00  0.16906548851E+02  0.51100000000E-03 0.  1.
         12    1    3    3    0    0  0.18323538827E+02 -0.26708102329E+02 -0.24689506122E+02  0.40726484230E+02  0.00000000000E+00 0. -1.
</event>
<event>
 7    1  0.2656097E-013  0.7246157E+02  0.7816164E-02  0.1226708E+00
        -11   -1    0    0    0    0  0.00000000000E+00  0.00000000000E+00  0.45593999997E+02  0.45594000000E+02  0.51100000000E-03 0. -1.
         11   -1    0    0    0    0 -0.00000000000E+00 -0.00000000000E+00 -0.45593999997E+02  0.45594000000E+02  0.51100000000E-03 0.  1.
    9900012    2    1    2    0    0 -0.50126423965E+01 -0.12902468149E+02  0.12612655990E+02  0.72461565228E+02  0.69999993400E+02 0.  0.
        -12    1    1    2    0    0  0.50126423965E+01  0.12902468149E+02 -0.12612655990E+02  0.18726434772E+02  0.00000000000E+00 0.  1.
         11    1    3    3    0    0 -0.27843255130E+02 -0.73065733607E+01 -0.41043368532E+01  0.29077112164E+02  0.51100000000E-03 0. -1.
        -11    1    3    3    0    0  0.58222470831E-01 -0.41922363035E+01 -0.84389729727E+01  0.94230833688E+01  0.51100000000E-03 0.  1.
         12    1    3    3    0    0  0.22772390263E+02 -0.14036584846E+01  0.25155965816E+02  0.33961369695E+02  0.00000000000E+00 0. -1.
</event>
<event>
 7    1  0.2656097E-013  0.7246157E+02  0.7816164E-02  0.1226708E+00
        -11   -1    0    0    0    0  0.00000000000E+00  0.00000000000E+00  0.45593999997E+02  0.45594000000E+02  0.51100000000E-03 0.  1.
         11   -1    0    0    0    0 -0.00000000000E+00 -0.00000000000E+00 -0.45593999997E+02  0.45594000000E+02  0.51100000000E-03 0. -1.
    9900012    2    1    2    0    0  0.16169187968E+02  0.71477469927E+01  0.61762582344E+01  0.72461572354E+02  0.70000002683E+02 0.  0.
        -12    1    1    2    0    0 -0.16169187968E+02 -0.71477469927E+01 -0.61762582344E+01  0.18726427646E+02  0.00000000000E+00 0.  1.
         11    1    3    3    0    0  0.63240318981E+01  0.19600338202E+02  0.13836388930E+02  0.24811535543E+02  0.51100000000E-03 0. -1.
        -11    1    3    3    0    0 -0.14590418952E+02  0.48968572716E+01  0.33006053172E+01  0.15740188438E+02  0.51100000000E-03 0.  1.
         12    1    3    3    0    0  0.24435575022E+02 -0.17349448481E+02 -0.10960736013E+02  0.31909848373E+02  0.00000000000E+00 0. -1.
</event>
<event>
 7    1  0.2656097E-013  0.7246158E+02  0.7816164E-02  0.1226708E+00
        -11   -1    0    0    0    0  0.00000000000E+00  0.00000000000E+00  0.45593999997E+02  0.45594000000E+02  0.51100000000E-03 0. -1.
         11   -1    0    0    0    0 -0.00000000000E+00 -0.00000000000E+00 -0.45593999997E+02  0.45594000000E+02  0.51100000000E-03 0.  1.
    9900012    2    1    2    0    0 -0.12147996923E+02  0.12645712637E+02  0.65719851650E+01  0.72461578389E+02  0.70000010545E+02 0.  0.
        -12    1    1    2    0    0  0.12147996923E+02 -0.12645712637E+02 -0.65719851650E+01  0.18726421611E+02  0.00000000000E+00 0.  1.
         11    1    3    3    0    0 -0.32943282722E+02 -0.73028668851E+01  0.10421793977E+02  0.35315797191E+02  0.51100000000E-03 0. -1.
        -11    1    3    3    0    0  0.10122329551E+01  0.16454955771E+02 -0.43503233670E+01  0.17050381188E+02  0.51100000000E-03 0.  1.
        -12    1    3    3    0    0  0.19783052844E+02  0.34936237512E+01  0.50051455496E+00  0.20095400010E+02  0.00000000000E+00 0.  1.
</event>
<event>
 7    1  0.2656097E-013  0.7246168E+02  0.7816164E-02  0.1226708E+00
        -11   -1    0    0    0    0  0.00000000000E+00  0.00000000000E+00  0.45593999997E+02  0.45594000000E+02  0.51100000000E-03 0.  1.
         11   -1    0    0    0    0 -0.00000000000E+00 -0.00000000000E+00 -0.45593999997E+02  0.45594000000E+02  0.51100000000E-03 0. -1.
    9900012    2    1    2    0    0  0.76927884487E+01 -0.20936234469E+01 -0.16944399219E+02  0.72461683808E+02  0.70000147872E+02 0.  0.
        -12    1    1    2    0    0 -0.76927884487E+01  0.20936234469E+01  0.16944399219E+02  0.18726316192E+02  0.00000000000E+00 0.  1.
         11    1    3    3    0    0  0.55673282794E+01  0.48492927050E+01 -0.37532256248E-01  0.73832372873E+01  0.51100000000E-03 0. -1.
        -11    1    3    3    0    0  0.15455085178E+02 -0.16456239182E+02  0.16440023971E+02  0.27927439093E+02  0.51100000000E-03 0.  1.
         12    1    3    3    0    0 -0.13329625008E+02  0.95133230301E+01 -0.33346890934E+02  0.37151007427E+02  0.00000000000E+00 0. -1.
</event>
<event>
 7    1  0.2656097E-013  0.7246156E+02  0.7816164E-02  0.1226708E+00
        -11   -1    0    0    0    0  0.00000000000E+00  0.00000000000E+00  0.45593999997E+02  0.45594000000E+02  0.51100000000E-03 0. -1.
         11   -1    0    0    0    0 -0.00000000000E+00 -0.00000000000E+00 -0.45593999997E+02  0.45594000000E+02  0.51100000000E-03 0.  1.
    9900012    2    1    2    0    0 -0.19347383625E+01  0.99526714233E+01  0.15744230986E+02  0.72461556389E+02  0.69999981885E+02 0.  0.
        -12    1    1    2    0    0  0.19347383625E+01 -0.99526714233E+01 -0.15744230986E+02  0.18726443611E+02  0.00000000000E+00 0.  1.
         11    1    3    3    0    0  0.37432901912E+01  0.10404253838E+02 -0.20631611062E+01  0.11247993305E+02  0.51100000000E-03 0. -1.
        -11    1    3    3    0    0  0.17460286863E+02  0.11055746544E+01 -0.13608922771E+02  0.22164987974E+02  0.51100000000E-03 0.  1.
        -12    1    3    3    0    0 -0.23138315417E+02 -0.15571570688E+01  0.31416314864E+02  0.39048575109E+02  0.00000000000E+00 0.  1.
</event>
<event>
 7    1  0.2656097E-013  0.7246155E+02  0.7816164E-02  0.1226708E+00
        -11   -1    0    0    0    0  0.00000000000E+00  0.00000000000E+00  0.45593999997E+02  0.45594000000E+02  0.51100000000E-03 0.  1.
         11   -1    0    0    0    0 -0.00000000000E+00 -0.00000000000E+00 -0.45593999997E+02  0.45594000000E+02  0.51100000000E-03 0. -1.
    9900012    2    1    2    0    0 -0.97390091646E+01 -0.76978583589E+01 -0.14020502090E+02  0.72461553416E+02  0.69999978012E+02 0.  0.
        -12    1    1    2    0    0  0.97390091646E+01  0.76978583589E+01  0.14020502090E+02  0.18726446584E+02  0.00000000000E+00 0.  1.
         11    1    3    3    0    0 -0.24736042714E+01 -0.20277526268E+01  0.59895141528E+01  0.67900499891E+01  0.51100000000E-03 0. -1.
        -11    1    3    3    0    0 -0.21114060553E+02 -0.16913946482E+02  0.11552557112E+02  0.29416776077E+02  0.51100000000E-03 0.  1.
         12    1    3    3    0    0  0.13848655660E+02  0.11243840750E+02 -0.31562573355E+02  0.36254727350E+02  0.00000000000E+00 0. -1.
</event>
<event>
 7    1  0.2656097E-013  0.7246153E+02  0.7816164E-02  0.1226708E+00
        -11   -1    0    0    0    0  0.00000000000E+00  0.00000000000E+00  0.45593999997E+02  0.45594000000E+02  0.51100000000E-03 0.  1.
         11   -1    0    0    0    0 -0.00000000000E+00 -0.00000000000E+00 -0.45593999997E+02  0.45594000000E+02  0.51100000000E-03 0. -1.
    9900012    2    1    2    0    0  0.59304072293E+01  0.62041287200E+01 -0.16643910496E+02  0.72461529439E+02  0.69999946778E+02 0.  0.
        -12    1    1    2    0    0 -0.59304072293E+01 -0.62041287200E+01  0.16643910496E+02  0.18726470561E+02  0.00000000000E+00 0.  1.
         11    1    3    3    0    0  0.18529765582E+02 -0.13441875279E+02 -0.15798961087E+01  0.22946291542E+02  0.51100000000E-03 0. -1.
        -11    1    3    3    0    0 -0.12661762270E+02 -0.72015410990E+01  0.56311910543E+01  0.15617065376E+02  0.51100000000E-03 0.  1.
         12    1    3    3    0    0  0.62403917725E-01  0.26847545098E+02 -0.20695205441E+02  0.33898172522E+02  0.00000000000E+00 0. -1.
</event>
<event>
 7    1  0.2656097E-013  0.7246159E+02  0.7816164E-02  0.1226708E+00
        -11   -1    0    0    0    0  0.00000000000E+00  0.00000000000E+00  0.45593999997E+02  0.45594000000E+02  0.51100000000E-03 0.  1.
         11   -1    0    0    0    0 -0.00000000000E+00 -0.00000000000E+00 -0.45593999997E+02  0.45594000000E+02  0.51100000000E-03 0. -1.
    9900012    2    1    2    0    0 -0.17670708068E+02 -0.42859695528E+01 -0.44782714845E+01  0.72461591532E+02  0.70000027666E+02 0.  0.
        -12    1    1    2    0    0  0.17670708068E+02  0.42859695528E+01  0.44782714845E+01  0.18726408468E+02  0.00000000000E+00 0.  1.
         11    1    3    3    0    0 -0.49217626568E+01 -0.31322319568E+02 -0.71465136739E+00  0.31714699708E+02  0.51100000000E-03 0. -1.
        -11    1    3    3    0    0 -0.84738769440E+00 -0.56735245588E+01 -0.10664795744E+01  0.58347515600E+01  0.51100000000E-03 0.  1.
        -12    1    3    3    0    0 -0.11901557716E+02  0.32709874574E+02 -0.26971405427E+01  0.34912140264E+02  0.00000000000E+00 0.  1.
</event>
<event>
 7    1  0.2656097E-013  0.7246155E+02  0.7816164E-02  0.1226708E+00
        -11   -1    0    0    0    0  0.00000000000E+00  0.00000000000E+00  0.45593999997E+02  0.45594000000E+02  0.51100000000E-03 0. -1.
         11   -1    0    0    0    0 -0.00000000000E+00 -0.00000000000E+00 -0.45593999997E+02  0.45594000000E+02  0.51100000000E-03 0.  1.
    9900012    2    1    2    0    0  0.73191109374E+01 -0.13692182304E+02  0.10470658433E+02  0.72461550011E+02  0.69999973578E+02 0.  0.
        -12    1    1    2    0    0 -0.73191109374E+01  0.13692182304E+02 -0.10470658433E+02  0.18726449989E+02  0.00000000000E+00 0.  1.
         11    1    3    3    0    0  0.86691414135E+01  0.32472559859E+01  0.40218825010E+01  0.10093276148E+02  0.51100000000E-03 0. -1.
        -11    1    3    3    0    0 -0.15028965621E+02  0.18276745936E+02 -0.16876890728E+01  0.23722511341E+02  0.51100000000E-03 0.  1.
         12    1    3    3    0    0  0.13678935145E+02 -0.35216184226E+02  0.81364650044E+01  0.38645762522E+02  0.00000000000E+00 0. -1.
</event>
<event>
 7    1  0.3407961E-013  0.7246163E+02  0.7816164E-02  0.1226708E+00
        -11   -1    0    0    0    0  0.00000000000E+00  0.00000000000E+00  0.45593999997E+02  0.45594000000E+02  0.51100000000E-03 0. -1.
         11   -1    0    0    0    0 -0.00000000000E+00 -0.00000000000E+00 -0.45593999997E+02  0.45594000000E+02  0.51100000000E-03 0.  1.
    9900012    2    1    2    0    0 -0.62092399010E+00  0.52444420193E+01  0.17966282970E+02  0.72461627087E+02  0.70000073983E+02 0.  0.
        -12    1    1    2    0    0  0.62092399010E+00 -0.52444420193E+01 -0.17966282970E+02  0.18726372913E+02  0.00000000000E+00 0.  1.
         11    1    3    3    0    0 -0.10122774981E+01  0.95800996842E+01  0.12832340966E+02  0.16045933772E+02  0.51100000000E-03 0. -1.
        -11    1    3    3    0    0 -0.10670226405E+02  0.13726647752E+02 -0.18017069402E+02  0.25037759088E+02  0.51100000000E-03 0.  1.
         12    1    3    3    0    0  0.11061579913E+02 -0.18062305417E+02  0.23151011407E+02  0.31377934227E+02  0.00000000000E+00 0. -1.
</event>
<event>
 7    1  0.2656097E-013  0.7246160E+02  0.7816164E-02  0.1226708E+00
        -11   -1    0    0    0    0  0.00000000000E+00  0.00000000000E+00  0.45593999997E+02  0.45594000000E+02  0.51100000000E-03 0. -1.
         11   -1    0    0    0    0 -0.00000000000E+00 -0.00000000000E+00 -0.45593999997E+02  0.45594000000E+02  0.51100000000E-03 0.  1.
    9900012    2    1    2    0    0  0.45335255401E+01 -0.51489926214E+01  0.17424500556E+02  0.72461596222E+02  0.70000033775E+02 0.  0.
        -12    1    1    2    0    0 -0.45335255401E+01  0.51489926214E+01 -0.17424500556E+02  0.18726403778E+02  0.00000000000E+00 0.  1.
         11    1    3    3    0    0  0.20453766723E+02  0.14967973264E+02  0.18306624108E+02  0.31265464706E+02  0.51100000000E-03 0. -1.
        -11    1    3    3    0    0 -0.35912134033E+01  0.66324111507E+01 -0.78952060291E+01  0.10918789763E+02  0.51100000000E-03 0.  1.
         12    1    3    3    0    0 -0.12329027780E+02 -0.26749377036E+02  0.70130824775E+01  0.30277341753E+02  0.00000000000E+00 0. -1.
</event>
<event>
 7    1  0.2656097E-013  0.7246157E+02  0.7816164E-02  0.1226708E+00
        -11   -1    0    0    0    0  0.00000000000E+00  0.00000000000E+00  0.45593999997E+02  0.45594000000E+02  0.51100000000E-03 0.  1.
         11   -1    0    0    0    0 -0.00000000000E+00 -0.00000000000E+00 -0.45593999997E+02  0.45594000000E+02  0.51100000000E-03 0. -1.
    9900012    2    1    2    0    0  0.11186997095E+02 -0.12782258361E+02 -0.78831493651E+01  0.72461572772E+02  0.70000003227E+02 0.  0.
        -12    1    1    2    0    0 -0.11186997095E+02  0.12782258361E+02  0.78831493651E+01  0.18726427228E+02  0.00000000000E+00 0.  1.
         11    1    3    3    0    0  0.14900204965E+02 -0.16295125853E+02 -0.13625612583E+02  0.25946185714E+02  0.51100000000E-03 0. -1.
        -11    1    3    3    0    0  0.20935674987E+02  0.20339945899E+01  0.58106620732E+01  0.21822085491E+02  0.51100000000E-03 0.  1.
        -12    1    3    3    0    0 -0.24648882858E+02  0.14788729018E+01 -0.68198854899E-01  0.24693301567E+02  0.00000000000E+00 0.  1.
</event>
<event>
 7    1  0.2656097E-013  0.7246160E+02  0.7816164E-02  0.1226708E+00
        -11   -1    0    0    0    0  0.00000000000E+00  0.00000000000E+00  0.45593999997E+02  0.45594000000E+02  0.51100000000E-03 0.  1.
         11   -1    0    0    0    0 -0.00000000000E+00 -0.00000000000E+00 -0.45593999997E+02  0.45594000000E+02  0.51100000000E-03 0. -1.
    9900012    2    1    2    0    0 -0.10995142311E+02 -0.52736049100E+01 -0.14211751824E+02  0.72461602773E+02  0.70000042310E+02 0.  0.
        -12    1    1    2    0    0  0.10995142311E+02  0.52736049100E+01  0.14211751824E+02  0.18726397227E+02  0.00000000000E+00 0.  1.
         11    1    3    3    0    0 -0.20601410755E+02 -0.17324025510E+02 -0.23711574245E+02  0.35871698292E+02  0.51100000000E-03 0. -1.
        -11    1    3    3    0    0 -0.10758130649E+02  0.36239333436E+01 -0.23121294625E+01  0.11585172025E+02  0.51100000000E-03 0.  1.
        -12    1    3    3    0    0  0.20364399093E+02  0.84264872561E+01  0.11811951883E+02  0.25004732456E+02  0.00000000000E+00 0.  1.
</event>
<event>
 7    1  0.2656097E-013  0.7246165E+02  0.7816164E-02  0.1226708E+00
        -11   -1    0    0    0    0  0.00000000000E+00  0.00000000000E+00  0.45593999997E+02  0.45594000000E+02  0.51100000000E-03 0. -1.
         11   -1    0    0    0    0 -0.00000000000E+00 -0.00000000000E+00 -0.45593999997E+02  0.45594000000E+02  0.51100000000E-03 0.  1.
    9900012    2    1    2    0    0  0.63126437397E+00 -0.17103580609E+02 -0.75990239138E+01  0.72461651483E+02  0.70000105763E+02 0.  0.
        -12    1    1    2    0    0 -0.63126437397E+00  0.17103580609E+02  0.75990239138E+01  0.18726348517E+02  0.00000000000E+00 0.  1.
         11    1    3    3    0    0  0.30055650929E+01  0.39587799226E+00 -0.12020765885E+02  0.12397134896E+02  0.51100000000E-03 0. -1.
        -11    1    3    3    0    0 -0.50115822794E+01  0.80733982353E+01 -0.21530664745E+02  0.23534341729E+02  0.51100000000E-03 0.  1.
         12    1    3    3    0    0  0.26372815604E+01 -0.25572856836E+02  0.25952406716E+02  0.36530174858E+02  0.00000000000E+00 0. -1.
</event>
<event>
 7    1  0.2656097E-013  0.7246156E+02  0.7816164E-02  0.1226708E+00
        -11   -1    0    0    0    0  0.00000000000E+00  0.00000000000E+00  0.45593999997E+02  0.45594000000E+02  0.51100000000E-03 0. -1.
         11   -1    0    0    0    0 -0.00000000000E+00 -0.00000000000E+00 -0.45593999997E+02  0.45594000000E+02  0.51100000000E-03 0.  1.
    9900012    2    1    2    0    0  0.13849046937E+02 -0.10723523076E+02 -0.66249191836E+01  0.72461558736E+02  0.69999984943E+02 0.  0.
        -12    1    1    2    0    0 -0.13849046937E+02  0.10723523076E+02  0.66249191836E+01  0.18726441264E+02  0.00000000000E+00 0.  1.
         11    1    3    3    0    0  0.13362358089E+02  0.10940582401E+02 -0.34718557331E+01  0.17615411987E+02  0.51100000000E-03 0. -1.
        -11    1    3    3    0    0  0.17939501922E+02  0.80135223134E+01 -0.52998188898E+01  0.20350192864E+02  0.51100000000E-03 0.  1.
        -12    1    3    3    0    0 -0.17452813074E+02 -0.29677627791E+02  0.21467554393E+01  0.34495953884E+02  0.00000000000E+00 0.  1.
</event>
<event>
 7    1  0.2656097E-013  0.7246146E+02  0.7816164E-02  0.1226708E+00
        -11   -1    0    0    0    0  0.00000000000E+00  0.00000000000E+00  0.45593999997E+02  0.45594000000E+02  0.51100000000E-03 0.  1.
         11   -1    0    0    0    0 -0.00000000000E+00 -0.00000000000E+00 -0.45593999997E+02  0.45594000000E+02  0.51100000000E-03 0. -1.
    9900012    2    1    2    0    0  0.14255668367E+01 -0.18656309890E+02 -0.77027979397E+00  0.72461455458E+02  0.69999850405E+02 0.  0.
        -12    1    1    2    0    0 -0.14255668367E+01  0.18656309890E+02  0.77027979397E+00  0.18726544542E+02  0.00000000000E+00 0.  1.
         11    1    3    3    0    0 -0.10201356087E+02  0.19165009057E+02  0.16315707154E+02  0.27158194682E+02  0.51100000000E-03 0. -1.
        -11    1    3    3    0    0  0.53004387746E+01 -0.37501639309E+01 -0.62062125823E+01  0.89819516582E+01  0.51100000000E-03 0.  1.
        -12    1    3    3    0    0  0.63264841492E+01 -0.34071155016E+02 -0.10879774366E+02  0.36321309118E+02  0.00000000000E+00 0.  1.
</event>
<event>
 7    1  0.2656097E-013  0.7246135E+02  0.7816164E-02  0.1226709E+00
        -11   -1    0    0    0    0  0.00000000000E+00  0.00000000000E+00  0.45593999997E+02  0.45594000000E+02  0.51100000000E-03 0. -1.
         11   -1    0    0    0    0 -0.00000000000E+00 -0.00000000000E+00 -0.45593999997E+02  0.45594000000E+02  0.51100000000E-03 0.  1.
    9900012    2    1    2    0    0  0.39796247958E+01  0.15205880966E+02  0.10179943880E+02  0.72461348221E+02  0.69999710707E+02 0.  0.
        -12    1    1    2    0    0 -0.39796247958E+01 -0.15205880966E+02 -0.10179943880E+02  0.18726651779E+02  0.00000000000E+00 0.  1.
         11    1    3    3    0    0  0.12059446476E+02  0.12882514581E+02 -0.83781667259E+01  0.19534152379E+02  0.51100000000E-03 0. -1.
        -11    1    3    3    0    0  0.10164861538E+02 -0.17671197854E+02  0.50656649889E+00  0.20392455801E+02  0.51100000000E-03 0.  1.
         12    1    3    3    0    0 -0.18244683218E+02  0.19994564239E+02  0.18051544107E+02  0.32534740040E+02  0.00000000000E+00 0. -1.
</event>
<event>
 7    1  0.2656097E-013  0.7246162E+02  0.7816164E-02  0.1226708E+00
        -11   -1    0    0    0    0  0.00000000000E+00  0.00000000000E+00  0.45593999997E+02  0.45594000000E+02  0.51100000000E-03 0.  1.
         11   -1    0    0    0    0 -0.00000000000E+00 -0.00000000000E+00 -0.45593999997E+02  0.45594000000E+02  0.51100000000E-03 0. -1.
    9900012    2    1    2    0    0  0.85331908297E+01  0.16072777099E+02  0.44190472752E+01  0.72461615185E+02  0.70000058479E+02 0.  0.
        -12    1    1    2    0    0 -0.85331908297E+01 -0.16072777099E+02 -0.44190472752E+01  0.18726384815E+02  0.00000000000E+00 0.  1.
         11    1    3    3    0    0 -0.17114843021E+02 -0.24175752820E+01  0.17176149682E+02  0.24367655612E+02  0.51100000000E-03 0. -1.
        -11    1    3    3    0    0  0.31610999273E+01  0.23170327891E+02 -0.70950737396E+01  0.24437608700E+02  0.51100000000E-03 0.  1.
         12    1    3    3    0    0  0.22486933923E+02 -0.46799755098E+01 -0.56620286671E+01  0.23656350874E+02  0.00000000000E+00 0. -1.
</event>
<event>
 7    1  0.2656097E-013  0.7246225E+02  0.7816164E-02  0.1226706E+00
        -11   -1    0    0    0    0  0.00000000000E+00  0.00000000000E+00  0.45593999997E+02  0.45594000000E+02  0.51100000000E-03 0.  1.
         11   -1    0    0    0    0 -0.00000000000E+00 -0.00000000000E+00 -0.45593999997E+02  0.45594000000E+02  0.51100000000E-03 0. -1.
    9900012    2    1    2    0    0 -0.12515971336E+01 -0.10208181272E+02 -0.15648655129E+02  0.72462245873E+02  0.70000880062E+02 0.  0.
        -12    1    1    2    0    0  0.12515971336E+01  0.10208181272E+02  0.15648655129E+02  0.18725754127E+02  0.00000000000E+00 0.  1.
         11    1    3    3    0    0  0.16453844691E+01  0.42781474506E+01 -0.71812097437E+01  0.85193667197E+01  0.51100000000E-03 0. -1.
        -11    1    3    3    0    0  0.29273121913E+02 -0.83549772272E+01 -0.65422709125E+01  0.31137158187E+02  0.51100000000E-03 0.  1.
         12    1    3    3    0    0 -0.32170103516E+02 -0.61313514957E+01 -0.19251744725E+01  0.32805720967E+02  0.00000000000E+00 0. -1.
</event>
<event>
 7    1  0.2656097E-013  0.7246161E+02  0.7816164E-02  0.1226708E+00
        -11   -1    0    0    0    0  0.00000000000E+00  0.00000000000E+00  0.45593999997E+02  0.45594000000E+02  0.51100000000E-03 0.  1.
         11   -1    0    0    0    0 -0.00000000000E+00 -0.00000000000E+00 -0.45593999997E+02  0.45594000000E+02  0.51100000000E-03 0. -1.
    9900012    2    1    2    0    0  0.16408556354E+02  0.80326540923E+00 -0.89884145605E+01  0.72461613449E+02  0.70000056217E+02 0.  0.
        -12    1    1    2    0    0 -0.16408556354E+02 -0.80326540923E+00  0.89884145605E+01  0.18726386551E+02  0.00000000000E+00 0.  1.
         11    1    3    3    0    0 -0.11919521296E+02 -0.15996878552E+02 -0.17072562922E+01  0.20022233532E+02  0.51100000000E-03 0. -1.
        -11    1    3    3    0    0 -0.74441886726E+01  0.13430637166E+02 -0.59989092444E+01  0.16485899189E+02  0.51100000000E-03 0.  1.
        -12    1    3    3    0    0  0.35772266323E+02  0.33695067947E+01 -0.12822490239E+01  0.35953480728E+02  0.00000000000E+00 0.  1.
</event>
<event>
 7    1  0.2656097E-013  0.7246086E+02  0.7816164E-02  0.1226710E+00
        -11   -1    0    0    0    0  0.00000000000E+00  0.00000000000E+00  0.45593999997E+02  0.45594000000E+02  0.51100000000E-03 0.  1.
         11   -1    0    0    0    0 -0.00000000000E+00 -0.00000000000E+00 -0.45593999997E+02  0.45594000000E+02  0.51100000000E-03 0. -1.
    9900012    2    1    2    0    0 -0.13361103134E+02  0.46593318553E+01 -0.12266918799E+02  0.72460860680E+02  0.69999075589E+02 0.  0.
        -12    1    1    2    0    0  0.13361103134E+02 -0.46593318553E+01  0.12266918799E+02  0.18727139320E+02  0.00000000000E+00 0.  1.
         11    1    3    3    0    0 -0.11887774266E-01 -0.84509295936E+01 -0.17067831413E+02  0.19045451471E+02  0.51100000000E-03 0.  1.
        -11    1    3    3    0    0 -0.24632987974E+02 -0.83414048047E+01 -0.62950312687E+01  0.26757999730E+02  0.51100000000E-03 0. -1.
        -12    1    3    3    0    0  0.11283772614E+02  0.21451666254E+02  0.11095943883E+02  0.26657409479E+02  0.00000000000E+00 0.  1.
</event>
<event>
 7    1  0.2656097E-013  0.7246153E+02  0.7816164E-02  0.1226708E+00
        -11   -1    0    0    0    0  0.00000000000E+00  0.00000000000E+00  0.45593999997E+02  0.45594000000E+02  0.51100000000E-03 0.  1.
         11   -1    0    0    0    0 -0.00000000000E+00 -0.00000000000E+00 -0.45593999997E+02  0.45594000000E+02  0.51100000000E-03 0. -1.
    9900012    2    1    2    0    0 -0.32470490831E+01  0.11217506175E+02 -0.14639153183E+02  0.72461532676E+02  0.69999950995E+02 0.  0.
        -12    1    1    2    0    0  0.32470490831E+01 -0.11217506175E+02  0.14639153183E+02  0.18726467324E+02  0.00000000000E+00 0.  1.
         11    1    3    3    0    0 -0.22941858957E+02  0.25553177405E-01  0.48344815650E+01  0.23445719389E+02  0.51100000000E-03 0. -1.
        -11    1    3    3    0    0 -0.10945445419E+02  0.86597166154E+01 -0.86578166231E+01  0.16424105949E+02  0.51100000000E-03 0.  1.
         12    1    3    3    0    0  0.30640255293E+02  0.25322363819E+01 -0.10815818125E+02  0.32591707338E+02  0.00000000000E+00 0. -1.
</event>
<event>
 7    1  0.2656097E-013  0.7246155E+02  0.7816164E-02  0.1226708E+00
        -11   -1    0    0    0    0  0.00000000000E+00  0.00000000000E+00  0.45593999997E+02  0.45594000000E+02  0.51100000000E-03 0. -1.
         11   -1    0    0    0    0 -0.00000000000E+00 -0.00000000000E+00 -0.45593999997E+02  0.45594000000E+02  0.51100000000E-03 0.  1.
    9900012    2    1    2    0    0  0.57568777607E+00 -0.16939295846E+02 -0.79629708846E+01  0.72461546372E+02  0.69999968836E+02 0.  0.
        -12    1    1    2    0    0 -0.57568777607E+00  0.16939295846E+02  0.79629708846E+01  0.18726453628E+02  0.00000000000E+00 0.  1.
         11    1    3    3    0    0 -0.99950114294E+01 -0.11897438418E+02  0.14792735146E+02  0.21454004469E+02  0.51100000000E-03 0. -1.
        -11    1    3    3    0    0 -0.60773671366E+01 -0.21192520566E+02 -0.14498204105E+02  0.26386648931E+02  0.51100000000E-03 0.  1.
        -12    1    3    3    0    0  0.16648066342E+02  0.16150663137E+02 -0.82575019254E+01  0.24620892972E+02  0.00000000000E+00 0.  1.
</event>
<event>
 7    1  0.2656097E-013  0.7246158E+02  0.7816164E-02  0.1226708E+00
        -11   -1    0    0    0    0  0.00000000000E+00  0.00000000000E+00  0.45593999997E+02  0.45594000000E+02  0.51100000000E-03 0.  1.
         11   -1    0    0    0    0 -0.00000000000E+00 -0.00000000000E+00 -0.45593999997E+02  0.45594000000E+02  0.51100000000E-03 0. -1.
    9900012    2    1    2    0    0 -0.31842876233E+01  0.17071494630E+02  0.70073680220E+01  0.72461579542E+02  0.70000012047E+02 0.  0.
        -12    1    1    2    0    0  0.31842876233E+01 -0.17071494630E+02 -0.70073680220E+01  0.18726420458E+02  0.00000000000E+00 0.  1.
         11    1    3    3    0    0 -0.12742737205E+02 -0.48042582852E+01  0.10058193552E+01  0.13655399005E+02  0.51100000000E-03 0. -1.
        -11    1    3    3    0    0 -0.13712378476E+02 -0.93472295449E+01  0.10450888025E+02  0.19611758830E+02  0.51100000000E-03 0.  1.
         12    1    3    3    0    0  0.23270828058E+02  0.31222982460E+02 -0.44493393585E+01  0.39194421707E+02  0.00000000000E+00 0. -1.
</event>
<event>
 7    1  0.2656097E-013  0.7246164E+02  0.7816164E-02  0.1226708E+00
        -11   -1    0    0    0    0  0.00000000000E+00  0.00000000000E+00  0.45593999997E+02  0.45594000000E+02  0.51100000000E-03 0.  1.
         11   -1    0    0    0    0 -0.00000000000E+00 -0.00000000000E+00 -0.45593999997E+02  0.45594000000E+02  0.51100000000E-03 0. -1.
    9900012    2    1    2    0    0  0.35023538901E+01  0.17710034887E+02 -0.49764346163E+01  0.72461635698E+02  0.70000085201E+02 0.  0.
        -12    1    1    2    0    0 -0.35023538901E+01 -0.17710034887E+02  0.49764346163E+01  0.18726364302E+02  0.00000000000E+00 0.  1.
         11    1    3    3    0    0 -0.14446744049E+01 -0.77239113493E+01  0.10141865004E+02  0.12829782410E+02  0.51100000000E-03 0. -1.
        -11    1    3    3    0    0  0.70004616665E+01  0.37151708794E+02  0.30357590963E+01  0.37927190291E+02  0.51100000000E-03 0.  1.
         12    1    3    3    0    0 -0.20534333715E+01 -0.11717762557E+02 -0.18154058716E+02  0.21704662997E+02  0.00000000000E+00 0. -1.
</event>
<event>
 7    1  0.2656097E-013  0.7246160E+02  0.7816164E-02  0.1226708E+00
        -11   -1    0    0    0    0  0.00000000000E+00  0.00000000000E+00  0.45593999997E+02  0.45594000000E+02  0.51100000000E-03 0. -1.
         11   -1    0    0    0    0 -0.00000000000E+00 -0.00000000000E+00 -0.45593999997E+02  0.45594000000E+02  0.51100000000E-03 0.  1.
    9900012    2    1    2    0    0 -0.40052994493E+01 -0.43600397466E+01  0.17765859470E+02  0.72461597971E+02  0.70000036053E+02 0.  0.
        -12    1    1    2    0    0  0.40052994493E+01  0.43600397466E+01 -0.17765859470E+02  0.18726402029E+02  0.00000000000E+00 0.  1.
         11    1    3    3    0    0  0.16607108054E+02 -0.12201637068E+02  0.28034893046E+02  0.34794126134E+02  0.51100000000E-03 0. -1.
        -11    1    3    3    0    0 -0.13040471204E+01 -0.37569845051E+01 -0.14249687059E+02  0.14794223636E+02  0.51100000000E-03 0.  1.
         12    1    3    3    0    0 -0.19308360383E+02  0.11598581827E+02  0.39806534825E+01  0.22873248200E+02  0.00000000000E+00 0. -1.
</event>
<event>
 7    1  0.2656097E-013  0.7246152E+02  0.7816164E-02  0.1226708E+00
        -11   -1    0    0    0    0  0.00000000000E+00  0.00000000000E+00  0.45593999997E+02  0.45594000000E+02  0.51100000000E-03 0. -1.
         11   -1    0    0    0    0 -0.00000000000E+00 -0.00000000000E+00 -0.45593999997E+02  0.45594000000E+02  0.51100000000E-03 0.  1.
    9900012    2    1    2    0    0 -0.33846373325E+01 -0.21886724882E+01  0.18287559545E+02  0.72461524324E+02  0.69999940116E+02 0.  0.
        -12    1    1    2    0    0  0.33846373325E+01  0.21886724882E+01 -0.18287559545E+02  0.18726475676E+02  0.00000000000E+00 0.  1.
         11    1    3    3    0    0  0.10502453059E+02  0.13635657683E+02  0.39081756125E+02  0.42703821173E+02  0.51100000000E-03 0. -1.
        -11    1    3    3    0    0 -0.38747343924E-01 -0.67958569305E+00 -0.26533128299E+00  0.73057444639E+00  0.51100000000E-03 0.  1.
         12    1    3    3    0    0 -0.13848343047E+02 -0.15144744478E+02 -0.20528865298E+02  0.29027128705E+02  0.00000000000E+00 0. -1.
</event>
<event>
 7    1  0.2656097E-013  0.7246157E+02  0.7816164E-02  0.1226708E+00
        -11   -1    0    0    0    0  0.00000000000E+00  0.00000000000E+00  0.45593999997E+02  0.45594000000E+02  0.51100000000E-03 0.  1.
         11   -1    0    0    0    0 -0.00000000000E+00 -0.00000000000E+00 -0.45593999997E+02  0.45594000000E+02  0.51100000000E-03 0. -1.
    9900012    2    1    2    0    0 -0.60514462975E+01  0.17053546052E+02 -0.48203312158E+01  0.72461574066E+02  0.70000004913E+02 0.  0.
        -12    1    1    2    0    0  0.60514462975E+01 -0.17053546052E+02  0.48203312158E+01  0.18726425934E+02  0.00000000000E+00 0.  1.
         11    1    3    3    0    0  0.15241537494E+02  0.29313529645E+01 -0.17023966448E+02  0.23037203156E+02  0.51100000000E-03 0. -1.
        -11    1    3    3    0    0  0.12000562233E+02  0.62823427621E+01  0.52076173548E+01  0.14512084732E+02  0.51100000000E-03 0.  1.
         12    1    3    3    0    0 -0.33293546024E+02  0.78398503253E+01  0.69960178774E+01  0.34912286178E+02  0.00000000000E+00 0. -1.
</event>
<event>
 7    1  0.2656097E-013  0.7246153E+02  0.7816164E-02  0.1226708E+00
        -11   -1    0    0    0    0  0.00000000000E+00  0.00000000000E+00  0.45593999997E+02  0.45594000000E+02  0.51100000000E-03 0. -1.
         11   -1    0    0    0    0 -0.00000000000E+00 -0.00000000000E+00 -0.45593999997E+02  0.45594000000E+02  0.51100000000E-03 0.  1.
    9900012    2    1    2    0    0 -0.11168902985E+02  0.87464005274E+01  0.12224438646E+02  0.72461526326E+02  0.69999942723E+02 0.  0.
        -12    1    1    2    0    0  0.11168902985E+02 -0.87464005274E+01 -0.12224438646E+02  0.18726473674E+02  0.00000000000E+00 0.  1.
         11    1    3    3    0    0 -0.26895574113E+01  0.33552780397E+01 -0.80977036380E+01  0.91686648026E+01  0.51100000000E-03 0. -1.
        -11    1    3    3    0    0  0.16731362674E+02  0.16480627226E+02 -0.69916059450E+01  0.24503716548E+02  0.51100000000E-03 0.  1.
         12    1    3    3    0    0 -0.25210708247E+02 -0.11089504739E+02  0.27313748229E+02  0.38789144976E+02  0.00000000000E+00 0. -1.
</event>
<event>
 7    1  0.2656097E-013  0.7246157E+02  0.7816164E-02  0.1226708E+00
        -11   -1    0    0    0    0  0.00000000000E+00  0.00000000000E+00  0.45593999997E+02  0.45594000000E+02  0.51100000000E-03 0.  1.
         11   -1    0    0    0    0 -0.00000000000E+00 -0.00000000000E+00 -0.45593999997E+02  0.45594000000E+02  0.51100000000E-03 0. -1.
    9900012    2    1    2    0    0 -0.26993257758E+01 -0.12032836521E+02 -0.14092677282E+02  0.72461573022E+02  0.70000003553E+02 0.  0.
        -12    1    1    2    0    0  0.26993257758E+01  0.12032836521E+02  0.14092677282E+02  0.18726426978E+02  0.00000000000E+00 0.  1.
         11    1    3    3    0    0 -0.20868619579E+02  0.13176952510E+02 -0.12228134653E+02  0.27543758602E+02  0.51100000000E-03 0. -1.
        -11    1    3    3    0    0  0.66846359151E+00  0.60961055797E+01  0.55759773818E+01  0.82885988464E+01  0.51100000000E-03 0.  1.
        -12    1    3    3    0    0  0.17500830212E+02 -0.31305894611E+02 -0.74405200112E+01  0.36629215573E+02  0.00000000000E+00 0.  1.
</event>
<event>
 7    1  0.2656097E-013  0.7246173E+02  0.7816164E-02  0.1226708E+00
        -11   -1    0    0    0    0  0.00000000000E+00  0.00000000000E+00  0.45593999997E+02  0.45594000000E+02  0.51100000000E-03 0. -1.
         11   -1    0    0    0    0 -0.00000000000E+00 -0.00000000000E+00 -0.45593999997E+02  0.45594000000E+02  0.51100000000E-03 0.  1.
    9900012    2    1    2    0    0 -0.60134818960E+01  0.88351819166E+01  0.15376951735E+02  0.72461733723E+02  0.70000212896E+02 0.  0.
        -12    1    1    2    0    0  0.60134818960E+01 -0.88351819166E+01 -0.15376951735E+02  0.18726266277E+02  0.00000000000E+00 0.  1.
         11    1    3    3    0    0 -0.14566554352E+01  0.57423907266E+01 -0.28237044911E+01  0.65627893177E+01  0.51100000000E-03 0. -1.
        -11    1    3    3    0    0  0.52981788888E+01  0.11861249948E+02 -0.20913794872E+02  0.24620048052E+02  0.51100000000E-03 0.  1.
         12    1    3    3    0    0 -0.98550053497E+01 -0.87684587581E+01  0.39114451098E+02  0.41278896353E+02  0.00000000000E+00 0. -1.
</event>
<event>
 7    1  0.2656097E-013  0.7246199E+02  0.7816164E-02  0.1226707E+00
        -11   -1    0    0    0    0  0.00000000000E+00  0.00000000000E+00  0.45593999997E+02  0.45594000000E+02  0.51100000000E-03 0.  1.
         11   -1    0    0    0    0 -0.00000000000E+00 -0.00000000000E+00 -0.45593999997E+02  0.45594000000E+02  0.51100000000E-03 0. -1.
    9900012    2    1    2    0    0 -0.10820658379E+01  0.37917573832E+01 -0.18306153540E+02  0.72461987398E+02  0.70000543353E+02 0.  0.
        -12    1    1    2    0    0  0.10820658379E+01 -0.37917573832E+01  0.18306153540E+02  0.18726012602E+02  0.00000000000E+00 0.  1.
         11    1    3    3    0    0  0.22703500913E+01  0.62567993093E+01  0.59293728957E+01  0.89140052912E+01  0.51100000000E-03 0. -1.
        -11    1    3    3    0    0  0.15163266801E+02  0.16114013696E+02  0.65765203428E+01  0.23083256216E+02  0.51100000000E-03 0.  1.
         12    1    3    3    0    0 -0.18515682730E+02 -0.18579055622E+02 -0.30812046778E+02  0.40464725891E+02  0.00000000000E+00 0. -1.
</event>
<event>
 7    1  0.2656097E-013  0.7246176E+02  0.7816164E-02  0.1226708E+00
        -11   -1    0    0    0    0  0.00000000000E+00  0.00000000000E+00  0.45593999997E+02  0.45594000000E+02  0.51100000000E-03 0.  1.
         11   -1    0    0    0    0 -0.00000000000E+00 -0.00000000000E+00 -0.45593999997E+02  0.45594000000E+02  0.51100000000E-03 0. -1.
    9900012    2    1    2    0    0  0.16808562833E+02  0.67835265995E+01  0.47040540785E+01  0.72461757921E+02  0.70000244418E+02 0.  0.
        -12    1    1    2    0    0 -0.16808562833E+02 -0.67835265995E+01 -0.47040540785E+01  0.18726242079E+02  0.00000000000E+00 0.  1.
         11    1    3    3    0    0 -0.19228392513E+02  0.55939174407E+01 -0.19248337502E+02  0.27776275629E+02  0.51100000000E-03 0. -1.
        -11    1    3    3    0    0  0.13540776428E+02  0.13427771874E+01  0.29808186743E+01  0.13929858473E+02  0.51100000000E-03 0.  1.
        -12    1    3    3    0    0  0.22496178918E+02 -0.15316802856E+00  0.20971572906E+02  0.30755623819E+02  0.00000000000E+00 0.  1.
</event>
<event>
 7    1  0.2656097E-013  0.7246155E+02  0.7816164E-02  0.1226708E+00
        -11   -1    0    0    0    0  0.00000000000E+00  0.00000000000E+00  0.45593999997E+02  0.45594000000E+02  0.51100000000E-03 0. -1.
         11   -1    0    0    0    0 -0.00000000000E+00 -0.00000000000E+00 -0.45593999997E+02  0.45594000000E+02  0.51100000000E-03 0.  1.
    9900012    2    1    2    0    0  0.83536281611E+01  0.16741049217E+02 -0.79632344601E+00  0.72461549099E+02  0.69999972389E+02 0.  0.
        -12    1    1    2    0    0 -0.83536281611E+01 -0.16741049217E+02  0.79632344601E+00  0.18726450901E+02  0.00000000000E+00 0.  1.
         11    1    3    3    0    0  0.43197675813E+01  0.30928480012E+01  0.15848583895E+02  0.16715373536E+02  0.51100000000E-03 0. -1.
        -11    1    3    3    0    0  0.19861015111E+02 -0.11833650021E+02 -0.56682082806E+01  0.23803860599E+02  0.51100000000E-03 0.  1.
         12    1    3    3    0    0 -0.15827154531E+02  0.25481851236E+02 -0.10976699060E+02  0.31942314964E+02  0.00000000000E+00 0. -1.
</event>
<event>
 7    1  0.2656097E-013  0.7246158E+02  0.7816164E-02  0.1226708E+00
        -11   -1    0    0    0    0  0.00000000000E+00  0.00000000000E+00  0.45593999997E+02  0.45594000000E+02  0.51100000000E-03 0. -1.
         11   -1    0    0    0    0 -0.00000000000E+00 -0.00000000000E+00 -0.45593999997E+02  0.45594000000E+02  0.51100000000E-03 0.  1.
    9900012    2    1    2    0    0  0.86341753892E+01  0.88984110189E+01 -0.14033819304E+02  0.72461580493E+02  0.70000013285E+02 0.  0.
        -12    1    1    2    0    0 -0.86341753892E+01 -0.88984110189E+01  0.14033819304E+02  0.18726419507E+02  0.00000000000E+00 0.  1.
         11    1    3    3    0    0  0.19434708521E+01  0.50139154526E+01  0.81229772906E+01  0.97416213970E+01  0.51100000000E-03 0. -1.
        -11    1    3    3    0    0  0.10804978943E+02  0.14087496842E+02  0.15451124088E+02  0.23535980393E+02  0.51100000000E-03 0.  1.
        -12    1    3    3    0    0 -0.41142744057E+01 -0.10203001276E+02 -0.37607920682E+02  0.39183978702E+02  0.00000000000E+00 0.  1.
</event>
<event>
 7    1  0.2656097E-013  0.7246159E+02  0.7816164E-02  0.1226708E+00
        -11   -1    0    0    0    0  0.00000000000E+00  0.00000000000E+00  0.45593999997E+02  0.45594000000E+02  0.51100000000E-03 0. -1.
         11   -1    0    0    0    0 -0.00000000000E+00 -0.00000000000E+00 -0.45593999997E+02  0.45594000000E+02  0.51100000000E-03 0.  1.
    9900012    2    1    2    0    0  0.68002921145E+01  0.27988803041E+01  0.17222097846E+02  0.72461591961E+02  0.70000028225E+02 0.  0.
        -12    1    1    2    0    0 -0.68002921145E+01 -0.27988803041E+01 -0.17222097846E+02  0.18726408039E+02  0.00000000000E+00 0.  1.
         11    1    3    3    0    0  0.23245233779E+02  0.26910064235E+02  0.16615165754E+02  0.39249919540E+02  0.51100000000E-03 0. -1.
        -11    1    3    3    0    0  0.25437144920E+01 -0.10066676302E+00  0.52810652762E+00  0.25999065329E+01  0.51100000000E-03 0.  1.
        -12    1    3    3    0    0 -0.18988656157E+02 -0.24010517168E+02  0.78825564899E-01  0.30611765888E+02  0.00000000000E+00 0.  1.
</event>
<event>
 7    1  0.2656097E-013  0.7246156E+02  0.7816164E-02  0.1226708E+00
        -11   -1    0    0    0    0  0.00000000000E+00  0.00000000000E+00  0.45593999997E+02  0.45594000000E+02  0.51100000000E-03 0. -1.
         11   -1    0    0    0    0 -0.00000000000E+00 -0.00000000000E+00 -0.45593999997E+02  0.45594000000E+02  0.51100000000E-03 0.  1.
    9900012    2    1    2    0    0  0.14211666174E+02  0.11003226923E+02 -0.52570854425E+01  0.72461563994E+02  0.69999991792E+02 0.  0.
        -12    1    1    2    0    0 -0.14211666174E+02 -0.11003226923E+02  0.52570854425E+01  0.18726436006E+02  0.00000000000E+00 0.  1.
         11    1    3    3    0    0  0.17818729016E+02  0.70028675181E+01 -0.25475982043E+01  0.19314179094E+02  0.51100000000E-03 0. -1.
        -11    1    3    3    0    0 -0.26447206151E+01 -0.18441252727E+02 -0.18055331577E+02  0.25943580090E+02  0.51100000000E-03 0.  1.
         12    1    3    3    0    0 -0.96234222654E+00  0.22441612132E+02  0.15345844339E+02  0.27203804809E+02  0.00000000000E+00 0. -1.
</event>
<event>
 7    1  0.2656097E-013  0.7246134E+02  0.7816164E-02  0.1226709E+00
        -11   -1    0    0    0    0  0.00000000000E+00  0.00000000000E+00  0.45593999997E+02  0.45594000000E+02  0.51100000000E-03 0. -1.
         11   -1    0    0    0    0 -0.00000000000E+00 -0.00000000000E+00 -0.45593999997E+02  0.45594000000E+02  0.51100000000E-03 0.  1.
    9900012    2    1    2    0    0  0.11613281688E+01  0.15712095049E+02  0.10122713919E+02  0.72461335828E+02  0.69999694563E+02 0.  0.
        -12    1    1    2    0    0 -0.11613281688E+01 -0.15712095049E+02 -0.10122713919E+02  0.18726664172E+02  0.00000000000E+00 0.  1.
         11    1    3    3    0    0 -0.21658504425E+02 -0.15038898099E+02  0.11922613830E+02  0.28938002536E+02  0.51100000000E-03 0. -1.
        -11    1    3    3    0    0 -0.22272232681E+01  0.89789579657E+01  0.35482047908E+01  0.99081767815E+01  0.51100000000E-03 0.  1.
        -12    1    3    3    0    0  0.25047055862E+02  0.21772035182E+02 -0.53481047023E+01  0.33615156510E+02  0.00000000000E+00 0.  1.
</event>
<event>
 7    1  0.2656097E-013  0.7246157E+02  0.7816164E-02  0.1226708E+00
        -11   -1    0    0    0    0  0.00000000000E+00  0.00000000000E+00  0.45593999997E+02  0.45594000000E+02  0.51100000000E-03 0. -1.
         11   -1    0    0    0    0 -0.00000000000E+00 -0.00000000000E+00 -0.45593999997E+02  0.45594000000E+02  0.51100000000E-03 0.  1.
    9900012    2    1    2    0    0 -0.12745884911E+02  0.12909537419E+02  0.46438509600E+01  0.72461572410E+02  0.70000002757E+02 0.  0.
        -12    1    1    2    0    0  0.12745884911E+02 -0.12909537419E+02 -0.46438509600E+01  0.18726427590E+02  0.00000000000E+00 0.  1.
         11    1    3    3    0    0 -0.48599179610E+01  0.19722752888E+02 -0.17829899496E+02  0.27027968853E+02  0.51100000000E-03 0.  1.
        -11    1    3    3    0    0 -0.16830901983E+02  0.95008483926E+01  0.51264364633E+01  0.19995642846E+02  0.51100000000E-03 0. -1.
        -12    1    3    3    0    0  0.89449350332E+01 -0.16314063861E+02  0.17347313992E+02  0.25437960712E+02  0.00000000000E+00 0.  1.
</event>
<event>
 7    1  0.2656097E-013  0.7246157E+02  0.7816164E-02  0.1226708E+00
        -11   -1    0    0    0    0  0.00000000000E+00  0.00000000000E+00  0.45593999997E+02  0.45594000000E+02  0.51100000000E-03 0.  1.
         11   -1    0    0    0    0 -0.00000000000E+00 -0.00000000000E+00 -0.45593999997E+02  0.45594000000E+02  0.51100000000E-03 0. -1.
    9900012    2    1    2    0    0 -0.62142071415E+01  0.74005711548E+00 -0.17649791778E+02  0.72461569354E+02  0.69999998776E+02 0.  0.
        -12    1    1    2    0    0  0.62142071415E+01 -0.74005711548E+00  0.17649791778E+02  0.18726430646E+02  0.00000000000E+00 0.  1.
         11    1    3    3    0    0  0.38759061477E+01 -0.72999580279E+01  0.14262061390E+02  0.16483883979E+02  0.51100000000E-03 0. -1.
        -11    1    3    3    0    0  0.70015063012E+00  0.55137568450E+01  0.10641187133E+02  0.12005273396E+02  0.51100000000E-03 0.  1.
         12    1    3    3    0    0 -0.10790263919E+02  0.25262582983E+01 -0.42553040301E+02  0.43972411979E+02  0.00000000000E+00 0. -1.
</event>
<event>
 7    1  0.2656097E-013  0.7246158E+02  0.7816164E-02  0.1226708E+00
        -11   -1    0    0    0    0  0.00000000000E+00  0.00000000000E+00  0.45593999997E+02  0.45594000000E+02  0.51100000000E-03 0.  1.
         11   -1    0    0    0    0 -0.00000000000E+00 -0.00000000000E+00 -0.45593999997E+02  0.45594000000E+02  0.51100000000E-03 0. -1.
    9900012    2    1    2    0    0 -0.14115187743E+02 -0.10997412257E+02  0.55224334147E+01  0.72461578233E+02  0.70000010342E+02 0.  0.
        -12    1    1    2    0    0  0.14115187743E+02  0.10997412257E+02 -0.55224334147E+01  0.18726421767E+02  0.00000000000E+00 0.  1.
         11    1    3    3    0    0  0.16390664266E+01 -0.33190506735E+02 -0.39437397962E+01  0.33464150369E+02  0.51100000000E-03 0. -1.
        -11    1    3    3    0    0 -0.77775047851E+01 -0.44711076938E+01  0.63515004251E+01  0.10991903502E+02  0.51100000000E-03 0.  1.
         12    1    3    3    0    0 -0.79767493841E+01  0.26664202172E+02  0.31146727858E+01  0.28005524362E+02  0.00000000000E+00 0. -1.
</event>
<event>
 7    1  0.2656097E-013  0.7246159E+02  0.7816164E-02  0.1226708E+00
        -11   -1    0    0    0    0  0.00000000000E+00  0.00000000000E+00  0.45593999997E+02  0.45594000000E+02  0.51100000000E-03 0.  1.
         11   -1    0    0    0    0 -0.00000000000E+00 -0.00000000000E+00 -0.45593999997E+02  0.45594000000E+02  0.51100000000E-03 0. -1.
    9900012    2    1    2    0    0  0.11935762133E+02  0.72810983943E+01 -0.12457998787E+02  0.72461586961E+02  0.70000021712E+02 0.  0.
        -12    1    1    2    0    0 -0.11935762133E+02 -0.72810983943E+01  0.12457998787E+02  0.18726413039E+02  0.00000000000E+00 0.  1.
         11    1    3    3    0    0 -0.85606425085E+00 -0.57634664899E+01 -0.34962642616E+02  0.35444841245E+02  0.51100000000E-03 0. -1.
        -11    1    3    3    0    0  0.11051857929E+02 -0.25235339750E+01  0.25003406088E+01  0.11608767843E+02  0.51100000000E-03 0.  1.
        -12    1    3    3    0    0  0.17399684547E+01  0.15568098859E+02  0.20004303220E+02  0.25407977873E+02  0.00000000000E+00 0.  1.
</event>
<event>
 7    1  0.2656097E-013  0.7246108E+02  0.7816164E-02  0.1226709E+00
        -11   -1    0    0    0    0  0.00000000000E+00  0.00000000000E+00  0.45593999997E+02  0.45594000000E+02  0.51100000000E-03 0. -1.
         11   -1    0    0    0    0 -0.00000000000E+00 -0.00000000000E+00 -0.45593999997E+02  0.45594000000E+02  0.51100000000E-03 0.  1.
    9900012    2    1    2    0    0 -0.43981216182E+00 -0.78942945277E+00  0.18705099109E+02  0.72461084443E+02  0.69999367086E+02 0.  0.
        -12    1    1    2    0    0  0.43981216182E+00  0.78942945277E+00 -0.18705099109E+02  0.18726915557E+02  0.00000000000E+00 0.  1.
         11    1    3    3    0    0  0.24983866133E+02  0.13175038668E+02 -0.51656423891E+01  0.28713395348E+02  0.51100000000E-03 0. -1.
        -11    1    3    3    0    0 -0.46505893226E+01  0.24585618488E-01  0.17217791740E+02  0.17834823749E+02  0.51100000000E-03 0.  1.
        -12    1    3    3    0    0 -0.20773088973E+02 -0.13989053739E+02  0.66529497582E+01  0.25912865346E+02  0.00000000000E+00 0.  1.
</event>
<event>
 7    1  0.2656097E-013  0.7246159E+02  0.7816164E-02  0.1226708E+00
        -11   -1    0    0    0    0  0.00000000000E+00  0.00000000000E+00  0.45593999997E+02  0.45594000000E+02  0.51100000000E-03 0. -1.
         11   -1    0    0    0    0 -0.00000000000E+00 -0.00000000000E+00 -0.45593999997E+02  0.45594000000E+02  0.51100000000E-03 0.  1.
    9900012    2    1    2    0    0  0.14284229034E+02 -0.87761491462E+01 -0.83437760267E+01  0.72461585732E+02  0.70000020111E+02 0.  0.
        -12    1    1    2    0    0 -0.14284229034E+02  0.87761491462E+01  0.83437760267E+01  0.18726414268E+02  0.00000000000E+00 0.  1.
         11    1    3    3    0    0 -0.36223246283E+00 -0.12422847379E+00  0.13879026792E+02  0.13884308770E+02  0.51100000000E-03 0. -1.
        -11    1    3    3    0    0 -0.59782148940E+01  0.17564558803E+02 -0.10599080279E+00  0.18554352955E+02  0.51100000000E-03 0.  1.
         12    1    3    3    0    0  0.20624676391E+02 -0.26216479476E+02 -0.22116812016E+02  0.40022924007E+02  0.00000000000E+00 0. -1.
</event>
<event>
 7    1  0.2656097E-013  0.7246159E+02  0.7816164E-02  0.1226708E+00
        -11   -1    0    0    0    0  0.00000000000E+00  0.00000000000E+00  0.45593999997E+02  0.45594000000E+02  0.51100000000E-03 0. -1.
         11   -1    0    0    0    0 -0.00000000000E+00 -0.00000000000E+00 -0.45593999997E+02  0.45594000000E+02  0.51100000000E-03 0.  1.
    9900012    2    1    2    0    0  0.58743990041E+01 -0.17361239079E+02  0.38415323083E+01  0.72461586662E+02  0.70000021322E+02 0.  0.
        -12    1    1    2    0    0 -0.58743990041E+01  0.17361239079E+02 -0.38415323083E+01  0.18726413338E+02  0.00000000000E+00 0.  1.
         11    1    3    3    0    0 -0.11302700593E+02 -0.19102509232E+02  0.11873174862E+02  0.25171991999E+02  0.51100000000E-03 0. -1.
        -11    1    3    3    0    0  0.30381424012E+02  0.85883664947E+01 -0.36421282287E+01  0.31781379176E+02  0.51100000000E-03 0.  1.
         12    1    3    3    0    0 -0.13204324415E+02 -0.68470963421E+01 -0.43895143248E+01  0.15508215487E+02  0.00000000000E+00 0. -1.
</event>
<event>
 7    1  0.2656097E-013  0.7246160E+02  0.7816164E-02  0.1226708E+00
        -11   -1    0    0    0    0  0.00000000000E+00  0.00000000000E+00  0.45593999997E+02  0.45594000000E+02  0.51100000000E-03 0.  1.
         11   -1    0    0    0    0 -0.00000000000E+00 -0.00000000000E+00 -0.45593999997E+02  0.45594000000E+02  0.51100000000E-03 0. -1.
    9900012    2    1    2    0    0 -0.11633739028E+02  0.34632078683E+01 -0.14259745019E+02  0.72461600973E+02  0.70000039964E+02 0.  0.
        -12    1    1    2    0    0  0.11633739028E+02 -0.34632078683E+01  0.14259745019E+02  0.18726399027E+02  0.00000000000E+00 0.  1.
         11    1    3    3    0    0  0.67207106832E+01 -0.15355446605E+02 -0.56435315084E+01  0.17686354646E+02  0.51100000000E-03 0. -1.
        -11    1    3    3    0    0  0.16118957305E+02  0.51505394911E+01 -0.12612467746E+01  0.16968782671E+02  0.51100000000E-03 0.  1.
        -12    1    3    3    0    0 -0.34473407016E+02  0.13668114982E+02 -0.73549667361E+01  0.37806463656E+02  0.00000000000E+00 0.  1.
</event>
<event>
 7    1  0.2656097E-013  0.7246156E+02  0.7816164E-02  0.1226708E+00
        -11   -1    0    0    0    0  0.00000000000E+00  0.00000000000E+00  0.45593999997E+02  0.45594000000E+02  0.51100000000E-03 0.  1.
         11   -1    0    0    0    0 -0.00000000000E+00 -0.00000000000E+00 -0.45593999997E+02  0.45594000000E+02  0.51100000000E-03 0. -1.
    9900012    2    1    2    0    0  0.15274806731E+02 -0.10698394773E+02 -0.17042166944E+01  0.72461555438E+02  0.69999980647E+02 0.  0.
        -12    1    1    2    0    0 -0.15274806731E+02  0.10698394773E+02  0.17042166944E+01  0.18726444562E+02  0.00000000000E+00 0.  1.
         11    1    3    3    0    0  0.33234873685E+01 -0.20885492193E+02 -0.72754104590E+00  0.21160781381E+02  0.51100000000E-03 0. -1.
        -11    1    3    3    0    0 -0.13797994511E+02 -0.16532663570E+01 -0.14338492693E+02  0.19967731848E+02  0.51100000000E-03 0.  1.
        -12    1    3    3    0    0  0.25749313874E+02  0.11840363776E+02  0.13361817045E+02  0.31333042209E+02  0.00000000000E+00 0.  1.
</event>
<event>
 7    1  0.2656097E-013  0.7246158E+02  0.7816164E-02  0.1226708E+00
        -11   -1    0    0    0    0  0.00000000000E+00  0.00000000000E+00  0.45593999997E+02  0.45594000000E+02  0.51100000000E-03 0.  1.
         11   -1    0    0    0    0 -0.00000000000E+00 -0.00000000000E+00 -0.45593999997E+02  0.45594000000E+02  0.51100000000E-03 0. -1.
    9900012    2    1    2    0    0  0.22572447155E+01 -0.38265026240E+01 -0.18191799628E+02  0.72461578833E+02  0.70000011123E+02 0.  0.
        -12    1    1    2    0    0 -0.22572447155E+01  0.38265026240E+01  0.18191799628E+02  0.18726421167E+02  0.00000000000E+00 0.  1.
         11    1    3    3    0    0 -0.15242258387E+02  0.80580431137E+01 -0.70421887924E+01  0.18623934139E+02  0.51100000000E-03 0. -1.
        -11    1    3    3    0    0 -0.14659613562E+02  0.47273704151E+01  0.15440648903E+01  0.15480195008E+02  0.51100000000E-03 0.  1.
         12    1    3    3    0    0  0.32159116665E+02 -0.16611916153E+02 -0.12693675726E+02  0.38357449686E+02  0.00000000000E+00 0. -1.
</event>
<event>
 7    1  0.2656097E-013  0.7246161E+02  0.7816164E-02  0.1226708E+00
        -11   -1    0    0    0    0  0.00000000000E+00  0.00000000000E+00  0.45593999997E+02  0.45594000000E+02  0.51100000000E-03 0.  1.
         11   -1    0    0    0    0 -0.00000000000E+00 -0.00000000000E+00 -0.45593999997E+02  0.45594000000E+02  0.51100000000E-03 0. -1.
    9900012    2    1    2    0    0  0.46236435819E+01 -0.17018371873E+02 -0.62987800440E+01  0.72461609765E+02  0.70000051418E+02 0.  0.
        -12    1    1    2    0    0 -0.46236435819E+01  0.17018371873E+02  0.62987800440E+01  0.18726390235E+02  0.00000000000E+00 0.  1.
         11    1    3    3    0    0  0.55353001415E+01  0.25569960767E+01 -0.12256082871E+02  0.13689022763E+02  0.51100000000E-03 0. -1.
        -11    1    3    3    0    0  0.43381392583E+01  0.81778608727E+01  0.23681580220E+02  0.25426641592E+02  0.51100000000E-03 0.  1.
         12    1    3    3    0    0 -0.52497958180E+01 -0.27753228823E+02 -0.17724277393E+02  0.33345945410E+02  0.00000000000E+00 0. -1.
</event>
<event>
 7    1  0.2656097E-013  0.7246163E+02  0.7816164E-02  0.1226708E+00
        -11   -1    0    0    0    0  0.00000000000E+00  0.00000000000E+00  0.45593999997E+02  0.45594000000E+02  0.51100000000E-03 0.  1.
         11   -1    0    0    0    0 -0.00000000000E+00 -0.00000000000E+00 -0.45593999997E+02  0.45594000000E+02  0.51100000000E-03 0. -1.
    9900012    2    1    2    0    0  0.15200700174E+01 -0.11592962444E+02 -0.14627700295E+02  0.72461628034E+02  0.70000075216E+02 0.  0.
        -12    1    1    2    0    0 -0.15200700174E+01  0.11592962444E+02  0.14627700295E+02  0.18726371966E+02  0.00000000000E+00 0.  1.
         11    1    3    3    0    0 -0.14451850245E+02 -0.40482968128E+01  0.48727882370E+01  0.15779377302E+02  0.51100000000E-03 0. -1.
        -11    1    3    3    0    0  0.10304042981E+02  0.47837930953E+01  0.15457559389E+02  0.19183172851E+02  0.51100000000E-03 0.  1.
         12    1    3    3    0    0  0.56678772814E+01 -0.12328458727E+02 -0.34958047921E+02  0.37499077881E+02  0.00000000000E+00 0. -1.
</event>
<event>
 7    1  0.2656097E-013  0.7246182E+02  0.7816164E-02  0.1226707E+00
        -11   -1    0    0    0    0  0.00000000000E+00  0.00000000000E+00  0.45593999997E+02  0.45594000000E+02  0.51100000000E-03 0. -1.
         11   -1    0    0    0    0 -0.00000000000E+00 -0.00000000000E+00 -0.45593999997E+02  0.45594000000E+02  0.51100000000E-03 0.  1.
    9900012    2    1    2    0    0 -0.12805169170E+02 -0.85374307580E+01  0.10668170762E+02  0.72461816491E+02  0.70000320716E+02 0.  0.
        -12    1    1    2    0    0  0.12805169170E+02  0.85374307580E+01 -0.10668170762E+02  0.18726183509E+02  0.00000000000E+00 0.  1.
         11    1    3    3    0    0  0.17005574701E+02 -0.15992828622E+01  0.16618070638E+02  0.23830810909E+02  0.51100000000E-03 0. -1.
        -11    1    3    3    0    0  0.66213902273E+01  0.57337781039E+01 -0.49158331208E+01  0.10044124423E+02  0.51100000000E-03 0.  1.
        -12    1    3    3    0    0 -0.36432134099E+02 -0.12671926000E+02 -0.10340667556E+01  0.38586881159E+02  0.00000000000E+00 0.  1.
</event>
<event>
 7    1  0.2656097E-013  0.7246157E+02  0.7816164E-02  0.1226708E+00
        -11   -1    0    0    0    0  0.00000000000E+00  0.00000000000E+00  0.45593999997E+02  0.45594000000E+02  0.51100000000E-03 0.  1.
         11   -1    0    0    0    0 -0.00000000000E+00 -0.00000000000E+00 -0.45593999997E+02  0.45594000000E+02  0.51100000000E-03 0. -1.
    9900012    2    1    2    0    0  0.84754496736E+01  0.15926416569E+02  0.50194702656E+01  0.72461572854E+02  0.70000003335E+02 0.  0.
        -12    1    1    2    0    0 -0.84754496736E+01 -0.15926416569E+02 -0.50194702656E+01  0.18726427146E+02  0.00000000000E+00 0.  1.
         11    1    3    3    0    0 -0.21838433581E+02  0.77614969683E+01  0.23018596251E+01  0.23290697166E+02  0.51100000000E-03 0. -1.
        -11    1    3    3    0    0 -0.52832325221E+01 -0.81107999916E+01 -0.15288399977E+01  0.97997435878E+01  0.51100000000E-03 0.  1.
        -12    1    3    3    0    0  0.35597115777E+02  0.16275719592E+02  0.42464506382E+01  0.39371132101E+02  0.00000000000E+00 0.  1.
</event>
<event>
 7    1  0.2656097E-013  0.7246158E+02  0.7816164E-02  0.1226708E+00
        -11   -1    0    0    0    0  0.00000000000E+00  0.00000000000E+00  0.45593999997E+02  0.45594000000E+02  0.51100000000E-03 0.  1.
         11   -1    0    0    0    0 -0.00000000000E+00 -0.00000000000E+00 -0.45593999997E+02  0.45594000000E+02  0.51100000000E-03 0. -1.
    9900012    2    1    2    0    0  0.48799657295E+01 -0.89472247333E+01 -0.15710247096E+02  0.72461581235E+02  0.70000014252E+02 0.  0.
        -12    1    1    2    0    0 -0.48799657295E+01  0.89472247333E+01  0.15710247096E+02  0.18726418765E+02  0.00000000000E+00 0.  1.
         11    1    3    3    0    0  0.13559458454E+02 -0.64750406183E+01 -0.20761520834E+02  0.25628613153E+02  0.51100000000E-03 0. -1.
        -11    1    3    3    0    0  0.43871517022E+01 -0.21138289103E+01 -0.18916031126E+02  0.19532834063E+02  0.51100000000E-03 0.  1.
        -12    1    3    3    0    0 -0.13066644426E+02 -0.35835520469E+00  0.23967304863E+02  0.27300134018E+02  0.00000000000E+00 0.  1.
</event>
<event>
 7    1  0.2656097E-013  0.7246156E+02  0.7816164E-02  0.1226708E+00
        -11   -1    0    0    0    0  0.00000000000E+00  0.00000000000E+00  0.45593999997E+02  0.45594000000E+02  0.51100000000E-03 0.  1.
         11   -1    0    0    0    0 -0.00000000000E+00 -0.00000000000E+00 -0.45593999997E+02  0.45594000000E+02  0.51100000000E-03 0. -1.
    9900012    2    1    2    0    0 -0.18362604796E+02  0.18968507219E+01 -0.31458208784E+01  0.72461561830E+02  0.69999988973E+02 0.  0.
        -12    1    1    2    0    0  0.18362604796E+02 -0.18968507219E+01  0.31458208784E+01  0.18726438170E+02  0.00000000000E+00 0.  1.
         11    1    3    3    0    0 -0.37873590188E+02  0.16049057702E+02  0.87464339508E+01  0.42053313709E+02  0.51100000000E-03 0.  1.
        -11    1    3    3    0    0  0.60754150476E+01 -0.34011484335E+01 -0.11198717742E+02  0.13186726584E+02  0.51100000000E-03 0. -1.
        -12    1    3    3    0    0  0.13435570344E+02 -0.10751058546E+02 -0.69353708694E+00  0.17221521536E+02  0.00000000000E+00 0.  1.
</event>
<event>
 7    1  0.2656097E-013  0.7246155E+02  0.7816164E-02  0.1226708E+00
        -11   -1    0    0    0    0  0.00000000000E+00  0.00000000000E+00  0.45593999997E+02  0.45594000000E+02  0.51100000000E-03 0.  1.
         11   -1    0    0    0    0 -0.00000000000E+00 -0.00000000000E+00 -0.45593999997E+02  0.45594000000E+02  0.51100000000E-03 0. -1.
    9900012    2    1    2    0    0 -0.12354357930E+02  0.13650246810E+02  0.34235108354E+01  0.72461552812E+02  0.69999977226E+02 0.  0.
        -12    1    1    2    0    0  0.12354357930E+02 -0.13650246810E+02 -0.34235108354E+01  0.18726447188E+02  0.00000000000E+00 0.  1.
         11    1    3    3    0    0  0.21669654571E+01  0.76662071193E+01  0.13708585219E+02  0.15855339159E+02  0.51100000000E-03 0. -1.
        -11    1    3    3    0    0 -0.20815327925E+02  0.14185680043E+02  0.14980394322E+02  0.29307398541E+02  0.51100000000E-03 0.  1.
         12    1    3    3    0    0  0.62940045373E+01 -0.82016403521E+01 -0.25265468706E+02  0.27298815112E+02  0.00000000000E+00 0. -1.
</event>
<event>
 7    1  0.2656097E-013  0.7246156E+02  0.7816164E-02  0.1226708E+00
        -11   -1    0    0    0    0  0.00000000000E+00  0.00000000000E+00  0.45593999997E+02  0.45594000000E+02  0.51100000000E-03 0. -1.
         11   -1    0    0    0    0 -0.00000000000E+00 -0.00000000000E+00 -0.45593999997E+02  0.45594000000E+02  0.51100000000E-03 0.  1.
    9900012    2    1    2    0    0  0.18423444547E+02 -0.30299668205E+01  0.14406138618E+01  0.72461564776E+02  0.69999992812E+02 0.  0.
        -12    1    1    2    0    0 -0.18423444547E+02  0.30299668205E+01 -0.14406138618E+01  0.18726435224E+02  0.00000000000E+00 0.  1.
         11    1    3    3    0    0  0.76815139550E+01  0.17866344872E+02  0.86270730614E+01  0.21275298485E+02  0.51100000000E-03 0. -1.
        -11    1    3    3    0    0 -0.89088215164E+01 -0.25150154974E+01  0.14106612103E+02  0.16872726781E+02  0.51100000000E-03 0.  1.
        -12    1    3    3    0    0  0.19650752108E+02 -0.18381296196E+02 -0.21293071302E+02  0.34313539510E+02  0.00000000000E+00 0.  1.
</event>
<event>
 7    1  0.2656097E-013  0.7246149E+02  0.7816164E-02  0.1226708E+00
        -11   -1    0    0    0    0  0.00000000000E+00  0.00000000000E+00  0.45593999997E+02  0.45594000000E+02  0.51100000000E-03 0.  1.
         11   -1    0    0    0    0 -0.00000000000E+00 -0.00000000000E+00 -0.45593999997E+02  0.45594000000E+02  0.51100000000E-03 0. -1.
    9900012    2    1    2    0    0  0.78909024138E+01 -0.13607103982E+02 -0.10161814414E+02  0.72461492267E+02  0.69999898355E+02 0.  0.
        -12    1    1    2    0    0 -0.78909024138E+01  0.13607103982E+02  0.10161814414E+02  0.18726507733E+02  0.00000000000E+00 0.  1.
         11    1    3    3    0    0  0.14207285265E+02  0.15249100565E+02 -0.83815295102E+01  0.22464017001E+02  0.51100000000E-03 0. -1.
        -11    1    3    3    0    0  0.14362523012E+02 -0.66738336431E+00  0.30704077783E+01  0.14702206365E+02  0.51100000000E-03 0.  1.
        -12    1    3    3    0    0 -0.20678905863E+02 -0.28188821182E+02 -0.48506926821E+01  0.35295268901E+02  0.00000000000E+00 0.  1.
</event>
<event>
 7    1  0.2656097E-013  0.7246156E+02  0.7816164E-02  0.1226708E+00
        -11   -1    0    0    0    0  0.00000000000E+00  0.00000000000E+00  0.45593999997E+02  0.45594000000E+02  0.51100000000E-03 0. -1.
         11   -1    0    0    0    0 -0.00000000000E+00 -0.00000000000E+00 -0.45593999997E+02  0.45594000000E+02  0.51100000000E-03 0.  1.
    9900012    2    1    2    0    0 -0.13016948590E+01  0.10211302276E+02  0.15643348734E+02  0.72461562451E+02  0.69999989782E+02 0.  0.
        -12    1    1    2    0    0  0.13016948590E+01 -0.10211302276E+02 -0.15643348734E+02  0.18726437549E+02  0.00000000000E+00 0.  1.
         11    1    3    3    0    0  0.24130027801E+02 -0.12884330810E+02 -0.30092392781E+01  0.27519443007E+02  0.51100000000E-03 0. -1.
        -11    1    3    3    0    0 -0.83773941399E+01  0.49730404361E+01 -0.46989479785E+01  0.10816282916E+02  0.51100000000E-03 0.  1.
        -12    1    3    3    0    0 -0.17054328520E+02  0.18122592650E+02  0.23351535990E+02  0.34125836528E+02  0.00000000000E+00 0.  1.
</event>
<event>
 7    1  0.2656097E-013  0.7246158E+02  0.7816164E-02  0.1226708E+00
        -11   -1    0    0    0    0  0.00000000000E+00  0.00000000000E+00  0.45593999997E+02  0.45594000000E+02  0.51100000000E-03 0.  1.
         11   -1    0    0    0    0 -0.00000000000E+00 -0.00000000000E+00 -0.45593999997E+02  0.45594000000E+02  0.51100000000E-03 0. -1.
    9900012    2    1    2    0    0  0.40463220647E+01  0.14435154774E+02 -0.11221968095E+02  0.72461575260E+02  0.70000006469E+02 0.  0.
        -12    1    1    2    0    0 -0.40463220647E+01 -0.14435154774E+02  0.11221968095E+02  0.18726424740E+02  0.00000000000E+00 0.  1.
         11    1    3    3    0    0  0.24554656886E+02  0.15797501126E+02 -0.16335000004E+01  0.29243128067E+02  0.51100000000E-03 0. -1.
        -11    1    3    3    0    0  0.55142363773E+01 -0.98172144282E+01 -0.11105123182E+02  0.15814811510E+02  0.51100000000E-03 0.  1.
        -12    1    3    3    0    0 -0.26022571199E+02  0.84548680766E+01  0.15166550867E+01  0.27403635683E+02  0.00000000000E+00 0.  1.
</event>
<event>
 7    1  0.2656097E-013  0.7246157E+02  0.7816164E-02  0.1226708E+00
        -11   -1    0    0    0    0  0.00000000000E+00  0.00000000000E+00  0.45593999997E+02  0.45594000000E+02  0.51100000000E-03 0.  1.
         11   -1    0    0    0    0 -0.00000000000E+00 -0.00000000000E+00 -0.45593999997E+02  0.45594000000E+02  0.51100000000E-03 0. -1.
    9900012    2    1    2    0    0  0.15714504623E+02 -0.86598283806E+01  0.53610584978E+01  0.72461568644E+02  0.69999997850E+02 0.  0.
        -12    1    1    2    0    0 -0.15714504623E+02  0.86598283806E+01 -0.53610584978E+01  0.18726431356E+02  0.00000000000E+00 0.  1.
         11    1    3    3    0    0  0.30486282950E+01 -0.58550612963E+01 -0.17858753092E+02  0.19039720048E+02  0.51100000000E-03 0. -1.
        -11    1    3    3    0    0  0.14558627007E+01  0.17309579394E+02 -0.39422823499E+01  0.17812430081E+02  0.51100000000E-03 0.  1.
        -12    1    3    3    0    0  0.11210013627E+02 -0.20114346478E+02  0.27162093939E+02  0.35609418515E+02  0.00000000000E+00 0.  1.
</event>
<event>
 7    1  0.2656097E-013  0.7246164E+02  0.7816164E-02  0.1226708E+00
        -11   -1    0    0    0    0  0.00000000000E+00  0.00000000000E+00  0.45593999997E+02  0.45594000000E+02  0.51100000000E-03 0. -1.
         11   -1    0    0    0    0 -0.00000000000E+00 -0.00000000000E+00 -0.45593999997E+02  0.45594000000E+02  0.51100000000E-03 0.  1.
    9900012    2    1    2    0    0  0.12716950965E+02  0.18829743939E+01  0.13616536582E+02  0.72461641494E+02  0.70000092751E+02 0.  0.
        -12    1    1    2    0    0 -0.12716950965E+02 -0.18829743939E+01 -0.13616536582E+02  0.18726358506E+02  0.00000000000E+00 0.  1.
         11    1    3    3    0    0 -0.15242150702E+02 -0.19096789133E+02 -0.67631021661E+01  0.25352515938E+02  0.51100000000E-03 0. -1.
        -11    1    3    3    0    0 -0.26250904266E+01  0.36475076260E+00  0.76417498769E+01  0.80882930404E+01  0.51100000000E-03 0.  1.
         12    1    3    3    0    0  0.30584192094E+02  0.20615012764E+02  0.12737888871E+02  0.39020832515E+02  0.00000000000E+00 0. -1.
</event>
<event>
 7    1  0.2656097E-013  0.7246163E+02  0.7816164E-02  0.1226708E+00
        -11   -1    0    0    0    0  0.00000000000E+00  0.00000000000E+00  0.45593999997E+02  0.45594000000E+02  0.51100000000E-03 0. -1.
         11   -1    0    0    0    0 -0.00000000000E+00 -0.00000000000E+00 -0.45593999997E+02  0.45594000000E+02  0.51100000000E-03 0.  1.
    9900012    2    1    2    0    0 -0.16287930637E+02 -0.91270085426E+01 -0.14415718579E+01  0.72461625584E+02  0.70000072024E+02 0.  0.
        -12    1    1    2    0    0  0.16287930637E+02  0.91270085426E+01  0.14415718579E+01  0.18726374416E+02  0.00000000000E+00 0.  1.
         11    1    3    3    0    0 -0.77549244086E+01 -0.10152620448E+02  0.13898281241E+02  0.18877944175E+02  0.51100000000E-03 0. -1.
        -11    1    3    3    0    0  0.12304367760E+02 -0.16140574997E+02  0.35899919127E+01  0.20610765861E+02  0.51100000000E-03 0.  1.
        -12    1    3    3    0    0 -0.20837373988E+02  0.17166186903E+02 -0.18929845012E+02  0.32972915547E+02  0.00000000000E+00 0.  1.
</event>
<event>
 7    1  0.2656097E-013  0.7246157E+02  0.7816164E-02  0.1226708E+00
        -11   -1    0    0    0    0  0.00000000000E+00  0.00000000000E+00  0.45593999997E+02  0.45594000000E+02  0.51100000000E-03 0. -1.
         11   -1    0    0    0    0 -0.00000000000E+00 -0.00000000000E+00 -0.45593999997E+02  0.45594000000E+02  0.51100000000E-03 0.  1.
    9900012    2    1    2    0    0  0.14617338902E+02 -0.85801703076E+00  0.11673752225E+02  0.72461567323E+02  0.69999996129E+02 0.  0.
        -12    1    1    2    0    0 -0.14617338902E+02  0.85801703076E+00 -0.11673752225E+02  0.18726432677E+02  0.00000000000E+00 0.  1.
         11    1    3    3    0    0 -0.64208351049E+01  0.23523783987E+01  0.29974747986E+02  0.30744858508E+02  0.51100000000E-03 0. -1.
        -11    1    3    3    0    0  0.24676693946E+01  0.11563710719E+02 -0.12429294966E+00  0.11824730307E+02  0.51100000000E-03 0.  1.
        -12    1    3    3    0    0  0.18570504612E+02 -0.14774106148E+02 -0.18176702811E+02  0.29891978508E+02  0.00000000000E+00 0.  1.
</event>
<event>
 7    1  0.2656097E-013  0.7246159E+02  0.7816164E-02  0.1226708E+00
        -11   -1    0    0    0    0  0.00000000000E+00  0.00000000000E+00  0.45593999997E+02  0.45594000000E+02  0.51100000000E-03 0. -1.
         11   -1    0    0    0    0 -0.00000000000E+00 -0.00000000000E+00 -0.45593999997E+02  0.45594000000E+02  0.51100000000E-03 0.  1.
    9900012    2    1    2    0    0 -0.12447857356E+02 -0.59766837093E+00  0.13977559243E+02  0.72461587567E+02  0.70000022501E+02 0.  0.
        -12    1    1    2    0    0  0.12447857356E+02  0.59766837093E+00 -0.13977559243E+02  0.18726412433E+02  0.00000000000E+00 0.  1.
         11    1    3    3    0    0 -0.10599131980E+02 -0.23609163332E+02  0.11000931475E+02  0.28120360693E+02  0.51100000000E-03 0. -1.
        -11    1    3    3    0    0  0.91560981017E+01 -0.50944807154E+01 -0.69428110641E+01  0.12569426874E+02  0.51100000000E-03 0.  1.
         12    1    3    3    0    0 -0.11004823477E+02  0.28105975676E+02  0.99194388321E+01  0.31771800000E+02  0.00000000000E+00 0. -1.
</event>
<event>
 7    1  0.2656097E-013  0.7246093E+02  0.7816164E-02  0.1226710E+00
        -11   -1    0    0    0    0  0.00000000000E+00  0.00000000000E+00  0.45593999997E+02  0.45594000000E+02  0.51100000000E-03 0. -1.
         11   -1    0    0    0    0 -0.00000000000E+00 -0.00000000000E+00 -0.45593999997E+02  0.45594000000E+02  0.51100000000E-03 0.  1.
    9900012    2    1    2    0    0 -0.14515701609E+02  0.81028481965E+01  0.86221526352E+01  0.72460927133E+02  0.69999162158E+02 0.  0.
        -12    1    1    2    0    0  0.14515701609E+02 -0.81028481965E+01 -0.86221526352E+01  0.18727072867E+02  0.00000000000E+00 0.  1.
         11    1    3    3    0    0  0.49065608919E+00 -0.35198852507E+00  0.23129427224E+02  0.23137308471E+02  0.51100000000E-03 0. -1.
        -11    1    3    3    0    0 -0.79807954016E+01  0.21501072300E+02  0.62957571981E+01  0.23782888056E+02  0.51100000000E-03 0.  1.
        -12    1    3    3    0    0 -0.70255622971E+01 -0.13046235579E+02 -0.20803031787E+02  0.25540730606E+02  0.00000000000E+00 0.  1.
</event>
<event>
 7    1  0.2656097E-013  0.7246157E+02  0.7816164E-02  0.1226708E+00
        -11   -1    0    0    0    0  0.00000000000E+00  0.00000000000E+00  0.45593999997E+02  0.45594000000E+02  0.51100000000E-03 0.  1.
         11   -1    0    0    0    0 -0.00000000000E+00 -0.00000000000E+00 -0.45593999997E+02  0.45594000000E+02  0.51100000000E-03 0. -1.
    9900012    2    1    2    0    0 -0.10338998558E+02  0.14950899267E+02  0.45005244718E+01  0.72461574804E+02  0.70000005875E+02 0.  0.
        -12    1    1    2    0    0  0.10338998558E+02 -0.14950899267E+02 -0.45005244718E+01  0.18726425196E+02  0.00000000000E+00 0.  1.
         11    1    3    3    0    0  0.12927419810E+02 -0.59885955487E+01 -0.17207364903E+02  0.22339983589E+02  0.51100000000E-03 0. -1.
        -11    1    3    3    0    0  0.69930501485E+01  0.59032003034E+01 -0.12989149074E+01  0.92432518303E+01  0.51100000000E-03 0.  1.
         12    1    3    3    0    0 -0.30259468516E+02  0.15036294513E+02  0.23006804283E+02  0.40878339385E+02  0.00000000000E+00 0. -1.
</event>
<event>
 7    1  0.2656097E-013  0.7246135E+02  0.7816164E-02  0.1226709E+00
        -11   -1    0    0    0    0  0.00000000000E+00  0.00000000000E+00  0.45593999997E+02  0.45594000000E+02  0.51100000000E-03 0.  1.
         11   -1    0    0    0    0 -0.00000000000E+00 -0.00000000000E+00 -0.45593999997E+02  0.45594000000E+02  0.51100000000E-03 0. -1.
    9900012    2    1    2    0    0  0.14953495938E+02  0.15213437933E+01 -0.11169865019E+02  0.72461350213E+02  0.69999713303E+02 0.  0.
        -12    1    1    2    0    0 -0.14953495938E+02 -0.15213437933E+01  0.11169865019E+02  0.18726649787E+02  0.00000000000E+00 0.  1.
         11    1    3    3    0    0  0.95109050519E+01 -0.88699911952E+01 -0.13317129783E+02  0.18613973370E+02  0.51100000000E-03 0. -1.
        -11    1    3    3    0    0  0.23159120358E+02 -0.71561828665E+01  0.11985678696E+02  0.27040937540E+02  0.51100000000E-03 0.  1.
        -12    1    3    3    0    0 -0.17716529472E+02  0.17547517855E+02 -0.98384139322E+01  0.26806439303E+02  0.00000000000E+00 0.  1.
</event>
<event>
 7    1  0.2656097E-013  0.7246149E+02  0.7816164E-02  0.1226708E+00
        -11   -1    0    0    0    0  0.00000000000E+00  0.00000000000E+00  0.45593999997E+02  0.45594000000E+02  0.51100000000E-03 0.  1.
         11   -1    0    0    0    0 -0.00000000000E+00 -0.00000000000E+00 -0.45593999997E+02  0.45594000000E+02  0.51100000000E-03 0. -1.
    9900012    2    1    2    0    0 -0.11619890615E+02 -0.11203972397E+02  0.94937514866E+01  0.72461490110E+02  0.69999895545E+02 0.  0.
        -12    1    1    2    0    0  0.11619890615E+02  0.11203972397E+02 -0.94937514866E+01  0.18726509890E+02  0.00000000000E+00 0.  1.
         11    1    3    3    0    0 -0.27106829600E+02 -0.35227687694E+01 -0.20563141603E+02  0.34205743723E+02  0.51100000000E-03 0. -1.
        -11    1    3    3    0    0 -0.24473228486E+01 -0.36640683562E+00 -0.28562982178E-01  0.24747644736E+01  0.51100000000E-03 0.  1.
        -12    1    3    3    0    0  0.17934261834E+02 -0.73147967923E+01  0.30085456072E+02  0.35780981914E+02  0.00000000000E+00 0.  1.
</event>
<event>
 7    1  0.2656097E-013  0.7246149E+02  0.7816164E-02  0.1226708E+00
        -11   -1    0    0    0    0  0.00000000000E+00  0.00000000000E+00  0.45593999997E+02  0.45594000000E+02  0.51100000000E-03 0. -1.
         11   -1    0    0    0    0 -0.00000000000E+00 -0.00000000000E+00 -0.45593999997E+02  0.45594000000E+02  0.51100000000E-03 0.  1.
    9900012    2    1    2    0    0  0.18720248717E+02  0.38227682341E+00  0.29697934609E+00  0.72461493537E+02  0.69999900009E+02 0.  0.
        -12    1    1    2    0    0 -0.18720248717E+02 -0.38227682341E+00 -0.29697934609E+00  0.18726506463E+02  0.00000000000E+00 0.  1.
         11    1    3    3    0    0  0.12551779835E+01 -0.59825950344E+01  0.11393425784E+02  0.12929697075E+02  0.51100000000E-03 0. -1.
        -11    1    3    3    0    0  0.13268177295E+02 -0.22159366764E+02  0.52972422701E+01  0.26365561629E+02  0.51100000000E-03 0.  1.
        -12    1    3    3    0    0  0.41968934383E+01  0.28524238622E+02 -0.16393688708E+02  0.33166234832E+02  0.00000000000E+00 0.  1.
</event>
<event>
 7    1  0.2656097E-013  0.7246162E+02  0.7816164E-02  0.1226708E+00
        -11   -1    0    0    0    0  0.00000000000E+00  0.00000000000E+00  0.45593999997E+02  0.45594000000E+02  0.51100000000E-03 0.  1.
         11   -1    0    0    0    0 -0.00000000000E+00 -0.00000000000E+00 -0.45593999997E+02  0.45594000000E+02  0.51100000000E-03 0. -1.
    9900012    2    1    2    0    0 -0.87919256340E+01 -0.83540145616E+00 -0.16513064125E+02  0.72461624516E+02  0.70000070634E+02 0.  0.
        -12    1    1    2    0    0  0.87919256340E+01  0.83540145616E+00  0.16513064125E+02  0.18726375484E+02  0.00000000000E+00 0.  1.
         11    1    3    3    0    0  0.15818243197E+01 -0.14326346854E+02  0.83035588304E+01  0.16634165801E+02  0.51100000000E-03 0. -1.
        -11    1    3    3    0    0  0.12722150562E+02  0.14436901254E+02  0.31991160110E+01  0.19506705930E+02  0.51100000000E-03 0.  1.
        -12    1    3    3    0    0 -0.23095900515E+02 -0.94595585554E+00 -0.28015738967E+02  0.36320752786E+02  0.00000000000E+00 0.  1.
</event>
<event>
 7    1  0.2656097E-013  0.7246158E+02  0.7816164E-02  0.1226708E+00
        -11   -1    0    0    0    0  0.00000000000E+00  0.00000000000E+00  0.45593999997E+02  0.45594000000E+02  0.51100000000E-03 0.  1.
         11   -1    0    0    0    0 -0.00000000000E+00 -0.00000000000E+00 -0.45593999997E+02  0.45594000000E+02  0.51100000000E-03 0. -1.
    9900012    2    1    2    0    0 -0.28624731680E+01  0.14306973267E+01 -0.18450964701E+02  0.72461581606E+02  0.70000014735E+02 0.  0.
        -12    1    1    2    0    0  0.28624731680E+01 -0.14306973267E+01  0.18450964701E+02  0.18726418394E+02  0.00000000000E+00 0.  1.
         11    1    3    3    0    0 -0.13539730202E+02 -0.91104842763E+01 -0.17834853324E+02  0.24174515736E+02  0.51100000000E-03 0. -1.
        -11    1    3    3    0    0  0.28239855543E+02  0.11590432673E+01 -0.19505782713E+01  0.28330859116E+02  0.51100000000E-03 0.  1.
         12    1    3    3    0    0 -0.17562598509E+02  0.93821383358E+01  0.13344668944E+01  0.19956206754E+02  0.00000000000E+00 0. -1.
</event>
<event>
 7    1  0.2656097E-013  0.7246156E+02  0.7816164E-02  0.1226708E+00
        -11   -1    0    0    0    0  0.00000000000E+00  0.00000000000E+00  0.45593999997E+02  0.45594000000E+02  0.51100000000E-03 0.  1.
         11   -1    0    0    0    0 -0.00000000000E+00 -0.00000000000E+00 -0.45593999997E+02  0.45594000000E+02  0.51100000000E-03 0. -1.
    9900012    2    1    2    0    0 -0.70370352817E+01  0.96124569867E+01 -0.14448541296E+02  0.72461560390E+02  0.69999987098E+02 0.  0.
        -12    1    1    2    0    0  0.70370352817E+01 -0.96124569867E+01  0.14448541296E+02  0.18726439610E+02  0.00000000000E+00 0.  1.
         11    1    3    3    0    0  0.77971924134E+01  0.15606072949E+01 -0.11858713465E+02  0.14277982700E+02  0.51100000000E-03 0. -1.
        -11    1    3    3    0    0  0.14609645415E+02  0.89388680645E+01  0.15928269923E+02  0.23389204442E+02  0.51100000000E-03 0.  1.
        -12    1    3    3    0    0 -0.29443873111E+02 -0.88701837275E+00 -0.18518097753E+02  0.34794373248E+02  0.00000000000E+00 0.  1.
</event>
<event>
 7    1  0.2656097E-013  0.7246166E+02  0.7816164E-02  0.1226708E+00
        -11   -1    0    0    0    0  0.00000000000E+00  0.00000000000E+00  0.45593999997E+02  0.45594000000E+02  0.51100000000E-03 0. -1.
         11   -1    0    0    0    0 -0.00000000000E+00 -0.00000000000E+00 -0.45593999997E+02  0.45594000000E+02  0.51100000000E-03 0.  1.
    9900012    2    1    2    0    0  0.29743178958E+01 -0.17949384308E+02 -0.44327187935E+01  0.72461655993E+02  0.70000111638E+02 0.  0.
        -12    1    1    2    0    0 -0.29743178958E+01  0.17949384308E+02  0.44327187935E+01  0.18726344007E+02  0.00000000000E+00 0.  1.
         11    1    3    3    0    0  0.32154501726E+01 -0.35364857569E+01 -0.18354134154E+02  0.18966288306E+02  0.51100000000E-03 0. -1.
        -11    1    3    3    0    0  0.18885449222E+02  0.35520700351E+01 -0.64556996491E+01  0.20271986880E+02  0.51100000000E-03 0.  1.
         12    1    3    3    0    0 -0.19126581499E+02 -0.17964968586E+02  0.20377115009E+02  0.33223380807E+02  0.00000000000E+00 0. -1.
</event>
<event>
 7    1  0.2656097E-013  0.7246158E+02  0.7816164E-02  0.1226708E+00
        -11   -1    0    0    0    0  0.00000000000E+00  0.00000000000E+00  0.45593999997E+02  0.45594000000E+02  0.51100000000E-03 0. -1.
         11   -1    0    0    0    0 -0.00000000000E+00 -0.00000000000E+00 -0.45593999997E+02  0.45594000000E+02  0.51100000000E-03 0.  1.
    9900012    2    1    2    0    0  0.12724404550E+01 -0.16486632593E+02  0.87892301753E+01  0.72461582135E+02  0.70000015425E+02 0.  0.
        -12    1    1    2    0    0 -0.12724404550E+01  0.16486632593E+02 -0.87892301753E+01  0.18726417865E+02  0.00000000000E+00 0.  1.
         11    1    3    3    0    0  0.10635842027E+02  0.17027225591E+02 -0.11395779051E+01  0.20108361072E+02  0.51100000000E-03 0. -1.
        -11    1    3    3    0    0  0.13393132890E+02 -0.60133473680E+01 -0.17757271795E+01  0.14788156155E+02  0.51100000000E-03 0.  1.
         12    1    3    3    0    0 -0.22756534463E+02 -0.27500510816E+02  0.11704535260E+02  0.37565064908E+02  0.00000000000E+00 0. -1.
</event>
<event>
 7    1  0.2656097E-013  0.7246160E+02  0.7816164E-02  0.1226708E+00
        -11   -1    0    0    0    0  0.00000000000E+00  0.00000000000E+00  0.45593999997E+02  0.45594000000E+02  0.51100000000E-03 0.  1.
         11   -1    0    0    0    0 -0.00000000000E+00 -0.00000000000E+00 -0.45593999997E+02  0.45594000000E+02  0.51100000000E-03 0. -1.
    9900012    2    1    2    0    0  0.84240520133E+01 -0.16672958170E+02  0.13136836727E+01  0.72461602822E+02  0.70000042374E+02 0.  0.
        -12    1    1    2    0    0 -0.84240520133E+01  0.16672958170E+02 -0.13136836727E+01  0.18726397178E+02  0.00000000000E+00 0.  1.
         11    1    3    3    0    0  0.11052129070E+02 -0.51868157400E+00 -0.19077190098E+01  0.11227554482E+02  0.51100000000E-03 0. -1.
        -11    1    3    3    0    0  0.18486205389E+02 -0.28843708107E+02  0.99917230217E+01  0.35686605557E+02  0.51100000000E-03 0.  1.
         12    1    3    3    0    0 -0.21114282446E+02  0.12689431510E+02 -0.67703203392E+01  0.25547442783E+02  0.00000000000E+00 0. -1.
</event>
<event>
 7    1  0.2656097E-013  0.7246151E+02  0.7816164E-02  0.1226708E+00
        -11   -1    0    0    0    0  0.00000000000E+00  0.00000000000E+00  0.45593999997E+02  0.45594000000E+02  0.51100000000E-03 0. -1.
         11   -1    0    0    0    0 -0.00000000000E+00 -0.00000000000E+00 -0.45593999997E+02  0.45594000000E+02  0.51100000000E-03 0.  1.
    9900012    2    1    2    0    0  0.64902987398E+01  0.14669500036E+02 -0.96624699644E+01  0.72461507139E+02  0.69999917729E+02 0.  0.
        -12    1    1    2    0    0 -0.64902987398E+01 -0.14669500036E+02  0.96624699644E+01  0.18726492861E+02  0.00000000000E+00 0.  1.
         11    1    3    3    0    0  0.25610714221E+02  0.20266028456E+02  0.47371352739E+01  0.33000924884E+02  0.51100000000E-03 0. -1.
        -11    1    3    3    0    0  0.32985130665E+01 -0.57074749347E+01 -0.15675402349E+02  0.17005107987E+02  0.51100000000E-03 0.  1.
         12    1    3    3    0    0 -0.22418928548E+02  0.11094651486E+00  0.12757971105E+01  0.22455474269E+02  0.00000000000E+00 0. -1.
</event>
<event>
 7    1  0.2656097E-013  0.7246134E+02  0.7816164E-02  0.1226709E+00
        -11   -1    0    0    0    0  0.00000000000E+00  0.00000000000E+00  0.45593999997E+02  0.45594000000E+02  0.51100000000E-03 0.  1.
         11   -1    0    0    0    0 -0.00000000000E+00 -0.00000000000E+00 -0.45593999997E+02  0.45594000000E+02  0.51100000000E-03 0. -1.
    9900012    2    1    2    0    0  0.16228163123E+02 -0.28376274350E+01 -0.89040579914E+01  0.72461343691E+02  0.69999704806E+02 0.  0.
        -12    1    1    2    0    0 -0.16228163123E+02  0.28376274350E+01  0.89040579914E+01  0.18726656309E+02  0.00000000000E+00 0.  1.
         11    1    3    3    0    0  0.10467672812E+02 -0.19323070410E+02 -0.87021514863E+00  0.21993419444E+02  0.51100000000E-03 0. -1.
        -11    1    3    3    0    0 -0.25997029184E+01 -0.82173061660E+01  0.13924205161E+02  0.16375776791E+02  0.51100000000E-03 0.  1.
         12    1    3    3    0    0  0.83601932296E+01  0.24702749141E+02 -0.21958048004E+02  0.34092147455E+02  0.00000000000E+00 0. -1.
</event>
<event>
 7    1  0.2656097E-013  0.7246160E+02  0.7816164E-02  0.1226708E+00
        -11   -1    0    0    0    0  0.00000000000E+00  0.00000000000E+00  0.45593999997E+02  0.45594000000E+02  0.51100000000E-03 0. -1.
         11   -1    0    0    0    0 -0.00000000000E+00 -0.00000000000E+00 -0.45593999997E+02  0.45594000000E+02  0.51100000000E-03 0.  1.
    9900012    2    1    2    0    0 -0.92614228326E+01  0.68982804550E+01  0.14741706651E+02  0.72461597753E+02  0.70000035771E+02 0.  0.
        -12    1    1    2    0    0  0.92614228326E+01 -0.68982804550E+01 -0.14741706651E+02  0.18726402247E+02  0.00000000000E+00 0.  1.
         11    1    3    3    0    0 -0.79907814851E+01  0.16208982591E+02 -0.85850452366E+01  0.20007166400E+02  0.51100000000E-03 0. -1.
        -11    1    3    3    0    0 -0.89762638970E+01 -0.61777156873E+01 -0.11972213294E+02  0.16188618721E+02  0.51100000000E-03 0.  1.
         12    1    3    3    0    0  0.77056225495E+01 -0.31329864492E+01  0.35298965182E+02  0.36265812632E+02  0.00000000000E+00 0. -1.
</event>
<event>
 7    1  0.2656097E-013  0.7246159E+02  0.7816164E-02  0.1226708E+00
        -11   -1    0    0    0    0  0.00000000000E+00  0.00000000000E+00  0.45593999997E+02  0.45594000000E+02  0.51100000000E-03 0. -1.
         11   -1    0    0    0    0 -0.00000000000E+00 -0.00000000000E+00 -0.45593999997E+02  0.45594000000E+02  0.51100000000E-03 0.  1.
    9900012    2    1    2    0    0 -0.70842351896E+01 -0.11327255978E+02  0.13121942122E+02  0.72461588671E+02  0.70000023939E+02 0.  0.
        -12    1    1    2    0    0  0.70842351896E+01  0.11327255978E+02 -0.13121942122E+02  0.18726411329E+02  0.00000000000E+00 0.  1.
         11    1    3    3    0    0 -0.89023420973E+01  0.67141783688E+01 -0.12245774624E+02  0.16561729450E+02  0.51100000000E-03 0. -1.
        -11    1    3    3    0    0 -0.35980089558E+01  0.84333489676E+01 -0.85476467842E+01  0.12535123018E+02  0.51100000000E-03 0.  1.
         12    1    3    3    0    0  0.54161158636E+01 -0.26474783315E+02  0.33915363530E+02  0.43364736203E+02  0.00000000000E+00 0. -1.
</event>
<event>
 7    1  0.2656097E-013  0.7246154E+02  0.7816164E-02  0.1226708E+00
        -11   -1    0    0    0    0  0.00000000000E+00  0.00000000000E+00  0.45593999997E+02  0.45594000000E+02  0.51100000000E-03 0.  1.
         11   -1    0    0    0    0 -0.00000000000E+00 -0.00000000000E+00 -0.45593999997E+02  0.45594000000E+02  0.51100000000E-03 0. -1.
    9900012    2    1    2    0    0  0.17596422983E+02  0.71422251070E+00  0.63668077209E+01  0.72461535942E+02  0.69999955249E+02 0.  0.
        -12    1    1    2    0    0 -0.17596422983E+02 -0.71422251070E+00 -0.63668077209E+01  0.18726464058E+02  0.00000000000E+00 0.  1.
         11    1    3    3    0    0 -0.18697166238E+02  0.65759931306E+01 -0.13659592971E+02  0.24070982352E+02  0.51100000000E-03 0. -1.
        -11    1    3    3    0    0  0.61618420978E+01  0.81432114693E+01  0.82839160644E+01  0.13149275900E+02  0.51100000000E-03 0.  1.
        -12    1    3    3    0    0  0.30131747122E+02 -0.14004982089E+02  0.11742484628E+02  0.35241277690E+02  0.00000000000E+00 0.  1.
</event>
<event>
 7    1  0.2656097E-013  0.7246156E+02  0.7816164E-02  0.1226708E+00
        -11   -1    0    0    0    0  0.00000000000E+00  0.00000000000E+00  0.45593999997E+02  0.45594000000E+02  0.51100000000E-03 0.  1.
         11   -1    0    0    0    0 -0.00000000000E+00 -0.00000000000E+00 -0.45593999997E+02  0.45594000000E+02  0.51100000000E-03 0. -1.
    9900012    2    1    2    0    0  0.15628464143E+02  0.80283583993E+01  0.64788845942E+01  0.72461564791E+02  0.69999992831E+02 0.  0.
        -12    1    1    2    0    0 -0.15628464143E+02 -0.80283583993E+01 -0.64788845942E+01  0.18726435209E+02  0.00000000000E+00 0.  1.
         11    1    3    3    0    0 -0.14949830543E+01 -0.39845239207E+01 -0.13104495228E+02  0.13778214712E+02  0.51100000000E-03 0. -1.
        -11    1    3    3    0    0  0.32271511804E+02 -0.13253380756E+01  0.27753270698E+01  0.32417733353E+02  0.51100000000E-03 0.  1.
         12    1    3    3    0    0 -0.15148064607E+02  0.13338220396E+02  0.16808052752E+02  0.26265616726E+02  0.00000000000E+00 0. -1.
</event>
<event>
 7    1  0.2656097E-013  0.7246157E+02  0.7816164E-02  0.1226708E+00
        -11   -1    0    0    0    0  0.00000000000E+00  0.00000000000E+00  0.45593999997E+02  0.45594000000E+02  0.51100000000E-03 0.  1.
         11   -1    0    0    0    0 -0.00000000000E+00 -0.00000000000E+00 -0.45593999997E+02  0.45594000000E+02  0.51100000000E-03 0. -1.
    9900012    2    1    2    0    0  0.30143776707E+01 -0.22225828117E+01 -0.18348102719E+02  0.72461568934E+02  0.69999998228E+02 0.  0.
        -12    1    1    2    0    0 -0.30143776707E+01  0.22225828117E+01  0.18348102719E+02  0.18726431066E+02  0.00000000000E+00 0.  1.
         11    1    3    3    0    0  0.42651975597E+01 -0.15634831558E+02 -0.47235927525E+01  0.16880527149E+02  0.51100000000E-03 0. -1.
        -11    1    3    3    0    0  0.20472096271E+02  0.12657760388E+02  0.75606038650E+01  0.25228720832E+02  0.51100000000E-03 0.  1.
         12    1    3    3    0    0 -0.21722916160E+02  0.75448835898E+00 -0.21185113831E+02  0.30352320953E+02  0.00000000000E+00 0. -1.
</event>
<event>
 7    1  0.2656097E-013  0.7246156E+02  0.7816164E-02  0.1226708E+00
        -11   -1    0    0    0    0  0.00000000000E+00  0.00000000000E+00  0.45593999997E+02  0.45594000000E+02  0.51100000000E-03 0. -1.
         11   -1    0    0    0    0 -0.00000000000E+00 -0.00000000000E+00 -0.45593999997E+02  0.45594000000E+02  0.51100000000E-03 0.  1.
    9900012    2    1    2    0    0 -0.16903378145E+02  0.80017709131E+01  0.96275921001E+00  0.72461563186E+02  0.69999990740E+02 0.  0.
        -12    1    1    2    0    0  0.16903378145E+02 -0.80017709131E+01 -0.96275921001E+00  0.18726436814E+02  0.00000000000E+00 0.  1.
         11    1    3    3    0    0 -0.19534314727E+01  0.17138310244E+02  0.25719495836E+02  0.30968210133E+02  0.51100000000E-03 0. -1.
        -11    1    3    3    0    0 -0.11097084104E+02  0.79359116417E+01 -0.37451884420E+01  0.14147452277E+02  0.51100000000E-03 0.  1.
        -12    1    3    3    0    0 -0.38528625678E+01 -0.17072450973E+02 -0.21011548184E+02  0.27345900776E+02  0.00000000000E+00 0.  1.
</event>
<event>
 7    1  0.2656097E-013  0.7246140E+02  0.7816164E-02  0.1226708E+00
        -11   -1    0    0    0    0  0.00000000000E+00  0.00000000000E+00  0.45593999997E+02  0.45594000000E+02  0.51100000000E-03 0.  1.
         11   -1    0    0    0    0 -0.00000000000E+00 -0.00000000000E+00 -0.45593999997E+02  0.45594000000E+02  0.51100000000E-03 0. -1.
    9900012    2    1    2    0    0 -0.16487368837E+02 -0.75322970597E+01 -0.47028608266E+01  0.72461395126E+02  0.69999771810E+02 0.  0.
        -12    1    1    2    0    0  0.16487368837E+02  0.75322970597E+01  0.47028608266E+01  0.18726604874E+02  0.00000000000E+00 0.  1.
         11    1    3    3    0    0  0.69155517150E+01 -0.26623113925E+02 -0.16296300473E+02  0.31971619602E+02  0.51100000000E-03 0. -1.
        -11    1    3    3    0    0 -0.22976006117E+01  0.17470737253E+02  0.56194689512E+01  0.18495514599E+02  0.51100000000E-03 0.  1.
        -12    1    3    3    0    0 -0.21105319940E+02  0.16200796124E+01  0.59739706953E+01  0.21994260924E+02  0.00000000000E+00 0.  1.
</event>
<event>
 7    1  0.2656097E-013  0.7246154E+02  0.7816164E-02  0.1226708E+00
        -11   -1    0    0    0    0  0.00000000000E+00  0.00000000000E+00  0.45593999997E+02  0.45594000000E+02  0.51100000000E-03 0.  1.
         11   -1    0    0    0    0 -0.00000000000E+00 -0.00000000000E+00 -0.45593999997E+02  0.45594000000E+02  0.51100000000E-03 0. -1.
    9900012    2    1    2    0    0 -0.13883947826E+02  0.12202949655E+02 -0.30007002741E+01  0.72461543057E+02  0.69999964518E+02 0.  0.
        -12    1    1    2    0    0  0.13883947826E+02 -0.12202949655E+02  0.30007002741E+01  0.18726456943E+02  0.00000000000E+00 0.  1.
         11    1    3    3    0    0 -0.28697560700E+02  0.28267334765E+02 -0.27956734744E+01  0.40378310952E+02  0.51100000000E-03 0. -1.
        -11    1    3    3    0    0  0.17312701469E+02 -0.24614890062E+01  0.33460769697E+01  0.17804066716E+02  0.51100000000E-03 0.  1.
        -12    1    3    3    0    0 -0.24990885949E+01 -0.13602896104E+02 -0.35511037695E+01  0.14279165389E+02  0.00000000000E+00 0.  1.
</event>
<event>
 7    1  0.2656097E-013  0.7246157E+02  0.7816164E-02  0.1226708E+00
        -11   -1    0    0    0    0  0.00000000000E+00  0.00000000000E+00  0.45593999997E+02  0.45594000000E+02  0.51100000000E-03 0. -1.
         11   -1    0    0    0    0 -0.00000000000E+00 -0.00000000000E+00 -0.45593999997E+02  0.45594000000E+02  0.51100000000E-03 0.  1.
    9900012    2    1    2    0    0  0.43202556343E+01  0.10305766452E+02  0.15026830700E+02  0.72461572904E+02  0.70000003400E+02 0.  0.
        -12    1    1    2    0    0 -0.43202556343E+01 -0.10305766452E+02 -0.15026830700E+02  0.18726427096E+02  0.00000000000E+00 0.  1.
         11    1    3    3    0    0 -0.10660604858E+02 -0.79006486772E+01  0.49430363838E+01  0.14159885396E+02  0.51100000000E-03 0. -1.
        -11    1    3    3    0    0 -0.17678828035E+02 -0.52143700741E+00  0.10657064584E+02  0.20649113372E+02  0.51100000000E-03 0.  1.
         12    1    3    3    0    0  0.32659688527E+02  0.18727852136E+02 -0.57327026781E+00  0.37652574137E+02  0.00000000000E+00 0. -1.
</event>
<event>
 7    1  0.2656097E-013  0.7246155E+02  0.7816164E-02  0.1226708E+00
        -11   -1    0    0    0    0  0.00000000000E+00  0.00000000000E+00  0.45593999997E+02  0.45594000000E+02  0.51100000000E-03 0. -1.
         11   -1    0    0    0    0 -0.00000000000E+00 -0.00000000000E+00 -0.45593999997E+02  0.45594000000E+02  0.51100000000E-03 0.  1.
    9900012    2    1    2    0    0  0.13840429786E+02 -0.10571489215E+02  0.68823117704E+01  0.72461545553E+02  0.69999967769E+02 0.  0.
        -12    1    1    2    0    0 -0.13840429786E+02  0.10571489215E+02 -0.68823117704E+01  0.18726454447E+02  0.00000000000E+00 0.  1.
         11    1    3    3    0    0  0.12448328429E+02 -0.70051239366E+01  0.56770663531E+01  0.15370807548E+02  0.51100000000E-03 0. -1.
        -11    1    3    3    0    0  0.40979788487E+01  0.20687266628E+02 -0.16635549153E+02  0.26860713450E+02  0.51100000000E-03 0.  1.
         12    1    3    3    0    0 -0.27058774923E+01 -0.24253631906E+02  0.17840794571E+02  0.30230024554E+02  0.00000000000E+00 0. -1.
</event>
<event>
 7    1  0.2656097E-013  0.7246156E+02  0.7816164E-02  0.1226708E+00
        -11   -1    0    0    0    0  0.00000000000E+00  0.00000000000E+00  0.45593999997E+02  0.45594000000E+02  0.51100000000E-03 0. -1.
         11   -1    0    0    0    0 -0.00000000000E+00 -0.00000000000E+00 -0.45593999997E+02  0.45594000000E+02  0.51100000000E-03 0.  1.
    9900012    2    1    2    0    0 -0.14835585890E+02  0.82373638801E+01  0.79202882431E+01  0.72461555109E+02  0.69999980218E+02 0.  0.
        -12    1    1    2    0    0  0.14835585890E+02 -0.82373638801E+01 -0.79202882431E+01  0.18726444891E+02  0.00000000000E+00 0.  1.
         11    1    3    3    0    0 -0.31319005720E+01 -0.72122970826E+01  0.13619840499E+02  0.15726604397E+02  0.51100000000E-03 0. -1.
        -11    1    3    3    0    0  0.15901268626E+02  0.17764815209E+02  0.88661584861E+01  0.25437133681E+02  0.51100000000E-03 0.  1.
         12    1    3    3    0    0 -0.27604953945E+02 -0.23151542460E+01 -0.14565710742E+02  0.31297817031E+02  0.00000000000E+00 0. -1.
</event>
<event>
 7    1  0.2656097E-013  0.7246157E+02  0.7816164E-02  0.1226708E+00
        -11   -1    0    0    0    0  0.00000000000E+00  0.00000000000E+00  0.45593999997E+02  0.45594000000E+02  0.51100000000E-03 0.  1.
         11   -1    0    0    0    0 -0.00000000000E+00 -0.00000000000E+00 -0.45593999997E+02  0.45594000000E+02  0.51100000000E-03 0. -1.
    9900012    2    1    2    0    0 -0.29642911293E+01 -0.82511115610E+01 -0.16547243305E+02  0.72461571486E+02  0.70000001553E+02 0.  0.
        -12    1    1    2    0    0  0.29642911293E+01  0.82511115610E+01  0.16547243305E+02  0.18726428514E+02  0.00000000000E+00 0.  1.
         11    1    3    3    0    0 -0.71773892023E+01 -0.46143598330E+01  0.70978643488E+01  0.11098959906E+02  0.51100000000E-03 0. -1.
        -11    1    3    3    0    0 -0.25494025760E+02  0.22404951913E+01 -0.59000731630E+01  0.26263587564E+02  0.51100000000E-03 0.  1.
         12    1    3    3    0    0  0.29707123833E+02 -0.58772469193E+01 -0.17745034490E+02  0.35099024016E+02  0.00000000000E+00 0. -1.
</event>
<event>
 7    1  0.2656097E-013  0.7246161E+02  0.7816164E-02  0.1226708E+00
        -11   -1    0    0    0    0  0.00000000000E+00  0.00000000000E+00  0.45593999997E+02  0.45594000000E+02  0.51100000000E-03 0.  1.
         11   -1    0    0    0    0 -0.00000000000E+00 -0.00000000000E+00 -0.45593999997E+02  0.45594000000E+02  0.51100000000E-03 0. -1.
    9900012    2    1    2    0    0 -0.12735473019E+02 -0.92393549969E+01 -0.10154788466E+02  0.72461609997E+02  0.70000051720E+02 0.  0.
        -12    1    1    2    0    0  0.12735473019E+02  0.92393549969E+01  0.10154788466E+02  0.18726390003E+02  0.00000000000E+00 0.  1.
         11    1    3    3    0    0 -0.16293761618E+02  0.10888072251E+02 -0.14991493341E+02  0.24673501127E+02  0.51100000000E-03 0. -1.
        -11    1    3    3    0    0  0.12189883845E+02 -0.98106791261E+00  0.18900641534E+02  0.22511997092E+02  0.51100000000E-03 0.  1.
         12    1    3    3    0    0 -0.86315952455E+01 -0.19146359335E+02 -0.14063936658E+02  0.25276111778E+02  0.00000000000E+00 0. -1.
</event>
<event>
 7    1  0.2656097E-013  0.7246156E+02  0.7816164E-02  0.1226708E+00
        -11   -1    0    0    0    0  0.00000000000E+00  0.00000000000E+00  0.45593999997E+02  0.45594000000E+02  0.51100000000E-03 0.  1.
         11   -1    0    0    0    0 -0.00000000000E+00 -0.00000000000E+00 -0.45593999997E+02  0.45594000000E+02  0.51100000000E-03 0. -1.
    9900012    2    1    2    0    0  0.16702199622E+02 -0.69339077443E+01 -0.48617758600E+01  0.72461563785E+02  0.69999991520E+02 0.  0.
        -12    1    1    2    0    0 -0.16702199622E+02  0.69339077443E+01  0.48617758600E+01  0.18726436215E+02  0.00000000000E+00 0.  1.
         11    1    3    3    0    0 -0.10337175392E+00 -0.18543717491E+02 -0.29835399754E+01  0.18782482668E+02  0.51100000000E-03 0. -1.
        -11    1    3    3    0    0  0.25087164673E+02  0.54066615567E+01  0.17947046438E+02  0.31316038968E+02  0.51100000000E-03 0.  1.
         12    1    3    3    0    0 -0.82815932977E+01  0.62031481903E+01 -0.19825282322E+02  0.22363042150E+02  0.00000000000E+00 0. -1.
</event>
<event>
 7    1  0.2656097E-013  0.7246156E+02  0.7816164E-02  0.1226708E+00
        -11   -1    0    0    0    0  0.00000000000E+00  0.00000000000E+00  0.45593999997E+02  0.45594000000E+02  0.51100000000E-03 0. -1.
         11   -1    0    0    0    0 -0.00000000000E+00 -0.00000000000E+00 -0.45593999997E+02  0.45594000000E+02  0.51100000000E-03 0.  1.
    9900012    2    1    2    0    0  0.17706093480E+02  0.42066409685E+01 -0.44133972281E+01  0.72461557475E+02  0.69999983300E+02 0.  0.
        -12    1    1    2    0    0 -0.17706093480E+02 -0.42066409685E+01  0.44133972281E+01  0.18726442525E+02  0.00000000000E+00 0.  1.
         11    1    3    3    0    0  0.30064054065E+02  0.17209138218E+02 -0.24398567092E+02  0.42370884596E+02  0.51100000000E-03 0. -1.
        -11    1    3    3    0    0 -0.29107114259E+01  0.25942018852E+01  0.16563993602E+01  0.42362463960E+01  0.51100000000E-03 0.  1.
        -12    1    3    3    0    0 -0.94472491595E+01 -0.15596699134E+02  0.18328770504E+02  0.25854426483E+02  0.00000000000E+00 0.  1.
</event>
<event>
 7    1  0.2656097E-013  0.7246160E+02  0.7816164E-02  0.1226708E+00
        -11   -1    0    0    0    0  0.00000000000E+00  0.00000000000E+00  0.45593999997E+02  0.45594000000E+02  0.51100000000E-03 0.  1.
         11   -1    0    0    0    0 -0.00000000000E+00 -0.00000000000E+00 -0.45593999997E+02  0.45594000000E+02  0.51100000000E-03 0. -1.
    9900012    2    1    2    0    0  0.13407239084E+02  0.12109636620E+02  0.49275366612E+01  0.72461602149E+02  0.70000041497E+02 0.  0.
        -12    1    1    2    0    0 -0.13407239084E+02 -0.12109636620E+02 -0.49275366612E+01  0.18726397851E+02  0.00000000000E+00 0.  1.
         11    1    3    3    0    0  0.27513869245E+02  0.14046820894E+02  0.39774383368E+01  0.31147169920E+02  0.51100000000E-03 0. -1.
        -11    1    3    3    0    0  0.69624055547E+01 -0.42827604676E+01 -0.13413140226E+02  0.15707624241E+02  0.51100000000E-03 0.  1.
        -12    1    3    3    0    0 -0.21069035715E+02  0.23455761933E+01  0.14363238550E+02  0.25606807987E+02  0.00000000000E+00 0.  1.
</event>
<event>
 7    1  0.2656097E-013  0.7246161E+02  0.7816164E-02  0.1226708E+00
        -11   -1    0    0    0    0  0.00000000000E+00  0.00000000000E+00  0.45593999997E+02  0.45594000000E+02  0.51100000000E-03 0.  1.
         11   -1    0    0    0    0 -0.00000000000E+00 -0.00000000000E+00 -0.45593999997E+02  0.45594000000E+02  0.51100000000E-03 0. -1.
    9900012    2    1    2    0    0  0.43976153867E+01  0.58476407182E+01 -0.17237855724E+02  0.72461612387E+02  0.70000054834E+02 0.  0.
        -12    1    1    2    0    0 -0.43976153867E+01 -0.58476407182E+01  0.17237855724E+02  0.18726387613E+02  0.00000000000E+00 0.  1.
         11    1    3    3    0    0  0.22542413750E+02 -0.29155606416E+01  0.36487504533E+01  0.23021170510E+02  0.51100000000E-03 0. -1.
        -11    1    3    3    0    0 -0.82884011251E+01 -0.13887994749E+02  0.13154289057E+01  0.16226655380E+02  0.51100000000E-03 0.  1.
         12    1    3    3    0    0 -0.98563972380E+01  0.22651196109E+02 -0.22202035083E+02  0.33213786497E+02  0.00000000000E+00 0. -1.
</event>
<event>
 7    1  0.2656097E-013  0.7246232E+02  0.7816164E-02  0.1226706E+00
        -11   -1    0    0    0    0  0.00000000000E+00  0.00000000000E+00  0.45593999997E+02  0.45594000000E+02  0.51100000000E-03 0.  1.
         11   -1    0    0    0    0 -0.00000000000E+00 -0.00000000000E+00 -0.45593999997E+02  0.45594000000E+02  0.51100000000E-03 0. -1.
    9900012    2    1    2    0    0  0.18299356696E+02  0.19754550898E+01 -0.34470625699E+01  0.72462319273E+02  0.70000975677E+02 0.  0.
        -12    1    1    2    0    0 -0.18299356696E+02 -0.19754550898E+01  0.34470625699E+01  0.18725680727E+02  0.00000000000E+00 0.  1.
         11    1    3    3    0    0 -0.74152919999E+01  0.13418112819E+01 -0.24935496748E+02  0.26049299631E+02  0.51100000000E-03 0. -1.
        -11    1    3    3    0    0 -0.12430096873E+01  0.10932156445E+02  0.10542150797E+01  0.11052985448E+02  0.51100000000E-03 0.  1.
        -12    1    3    3    0    0  0.26957658384E+02 -0.10298512637E+02  0.20434219098E+02  0.35360034194E+02  0.00000000000E+00 0.  1.
</event>
<event>
 7    1  0.2656097E-013  0.7246156E+02  0.7816164E-02  0.1226708E+00
        -11   -1    0    0    0    0  0.00000000000E+00  0.00000000000E+00  0.45593999997E+02  0.45594000000E+02  0.51100000000E-03 0.  1.
         11   -1    0    0    0    0 -0.00000000000E+00 -0.00000000000E+00 -0.45593999997E+02  0.45594000000E+02  0.51100000000E-03 0. -1.
    9900012    2    1    2    0    0  0.13562376512E+02 -0.49654850143E+01 -0.11919954080E+02  0.72461564051E+02  0.69999991867E+02 0.  0.
        -12    1    1    2    0    0 -0.13562376512E+02  0.49654850143E+01  0.11919954080E+02  0.18726435949E+02  0.00000000000E+00 0.  1.
         11    1    3    3    0    0 -0.18802698931E+02 -0.93161808037E+01 -0.23762226675E+02  0.31701358467E+02  0.51100000000E-03 0. -1.
        -11    1    3    3    0    0  0.58535047462E+01 -0.60718734160E+01 -0.25946861939E+01  0.88240331651E+01  0.51100000000E-03 0.  1.
        -12    1    3    3    0    0  0.26511570697E+02  0.10422569205E+02  0.14436958789E+02  0.31936172418E+02  0.00000000000E+00 0.  1.
</event>
<event>
 7    1  0.2656097E-013  0.7246158E+02  0.7816164E-02  0.1226708E+00
        -11   -1    0    0    0    0  0.00000000000E+00  0.00000000000E+00  0.45593999997E+02  0.45594000000E+02  0.51100000000E-03 0.  1.
         11   -1    0    0    0    0 -0.00000000000E+00 -0.00000000000E+00 -0.45593999997E+02  0.45594000000E+02  0.51100000000E-03 0. -1.
    9900012    2    1    2    0    0  0.32859397254E+01 -0.18368527294E+02 -0.15744086639E+01  0.72461575956E+02  0.70000007375E+02 0.  0.
        -12    1    1    2    0    0 -0.32859397254E+01  0.18368527294E+02  0.15744086639E+01  0.18726424044E+02  0.00000000000E+00 0.  1.
         11    1    3    3    0    0  0.18393052596E+02 -0.27168314794E+02 -0.17073151412E+02  0.36985324278E+02  0.51100000000E-03 0. -1.
        -11    1    3    3    0    0  0.45222086873E+01  0.67370592365E+01 -0.27778979232E+01  0.85764244123E+01  0.51100000000E-03 0.  1.
         12    1    3    3    0    0 -0.19629321558E+02  0.20627282639E+01  0.18276640671E+02  0.26899827266E+02  0.00000000000E+00 0. -1.
</event>
<event>
 7    1  0.2656097E-013  0.7246157E+02  0.7816164E-02  0.1226708E+00
        -11   -1    0    0    0    0  0.00000000000E+00  0.00000000000E+00  0.45593999997E+02  0.45594000000E+02  0.51100000000E-03 0.  1.
         11   -1    0    0    0    0 -0.00000000000E+00 -0.00000000000E+00 -0.45593999997E+02  0.45594000000E+02  0.51100000000E-03 0. -1.
    9900012    2    1    2    0    0  0.72724796758E+01  0.64674214460E+01 -0.15998830839E+02  0.72461572444E+02  0.70000002800E+02 0.  0.
        -12    1    1    2    0    0 -0.72724796758E+01 -0.64674214460E+01  0.15998830839E+02  0.18726427556E+02  0.00000000000E+00 0.  1.
         11    1    3    3    0    0  0.40552824020E+00 -0.30608647723E+01  0.29364375650E+01  0.42609872263E+01  0.51100000000E-03 0. -1.
        -11    1    3    3    0    0  0.22754752453E+01 -0.65646199511E+01  0.22481465563E+02  0.23530582586E+02  0.51100000000E-03 0.  1.
         12    1    3    3    0    0  0.45914761904E+01  0.16092906169E+02 -0.41416733967E+02  0.44670002632E+02  0.00000000000E+00 0. -1.
</event>
<event>
 7    1  0.2656097E-013  0.7246157E+02  0.7816164E-02  0.1226708E+00
        -11   -1    0    0    0    0  0.00000000000E+00  0.00000000000E+00  0.45593999997E+02  0.45594000000E+02  0.51100000000E-03 0. -1.
         11   -1    0    0    0    0 -0.00000000000E+00 -0.00000000000E+00 -0.45593999997E+02  0.45594000000E+02  0.51100000000E-03 0.  1.
    9900012    2    1    2    0    0  0.17056573419E+02  0.14598340326E+01  0.75908779468E+01  0.72461568407E+02  0.69999997542E+02 0.  0.
        -12    1    1    2    0    0 -0.17056573419E+02 -0.14598340326E+01 -0.75908779468E+01  0.18726431593E+02  0.00000000000E+00 0.  1.
         11    1    3    3    0    0  0.13940117372E+02  0.59264803346E+01  0.15097296589E+02  0.21386407039E+02  0.51100000000E-03 0. -1.
        -11    1    3    3    0    0  0.30638612012E+01 -0.16766151093E+02  0.16738601248E+02  0.23888738768E+02  0.51100000000E-03 0.  1.
        -12    1    3    3    0    0  0.52594845943E-01  0.12299504791E+02 -0.24245019890E+02  0.27186422600E+02  0.00000000000E+00 0.  1.
</event>
<event>
 7    1  0.2656097E-013  0.7246176E+02  0.7816164E-02  0.1226708E+00
        -11   -1    0    0    0    0  0.00000000000E+00  0.00000000000E+00  0.45593999997E+02  0.45594000000E+02  0.51100000000E-03 0.  1.
         11   -1    0    0    0    0 -0.00000000000E+00 -0.00000000000E+00 -0.45593999997E+02  0.45594000000E+02  0.51100000000E-03 0. -1.
    9900012    2    1    2    0    0  0.13228612655E+02 -0.10853098080E+02 -0.76083060554E+01  0.72461755002E+02  0.70000240615E+02 0.  0.
        -12    1    1    2    0    0 -0.13228612655E+02  0.10853098080E+02  0.76083060554E+01  0.18726244998E+02  0.00000000000E+00 0.  1.
         11    1    3    3    0    0  0.41849919031E+01  0.33047723594E+01 -0.36476964220E+02  0.36864679526E+02  0.51100000000E-03 0. -1.
        -11    1    3    3    0    0 -0.15205592410E+01  0.40351395971E+00  0.75037664491E+01  0.76669051843E+01  0.51100000000E-03 0.  1.
        -12    1    3    3    0    0  0.10564179993E+02 -0.14561384399E+02  0.21364891715E+02  0.27930170292E+02  0.00000000000E+00 0.  1.
</event>
<event>
 7    1  0.2656097E-013  0.7246153E+02  0.7816164E-02  0.1226708E+00
        -11   -1    0    0    0    0  0.00000000000E+00  0.00000000000E+00  0.45593999997E+02  0.45594000000E+02  0.51100000000E-03 0.  1.
         11   -1    0    0    0    0 -0.00000000000E+00 -0.00000000000E+00 -0.45593999997E+02  0.45594000000E+02  0.51100000000E-03 0. -1.
    9900012    2    1    2    0    0  0.16299221394E+02  0.87123406261E+01 -0.30184811487E+01  0.72461528744E+02  0.69999945873E+02 0.  0.
        -12    1    1    2    0    0 -0.16299221394E+02 -0.87123406261E+01  0.30184811487E+01  0.18726471256E+02  0.00000000000E+00 0.  1.
         11    1    3    3    0    0  0.24677763482E+02 -0.13064827819E+02  0.17298763111E+01  0.27976315139E+02  0.51100000000E-03 0. -1.
        -11    1    3    3    0    0  0.57486732260E+01 -0.87529069736E+01 -0.25226125011E+01  0.10771452940E+02  0.51100000000E-03 0.  1.
         12    1    3    3    0    0 -0.14127215314E+02  0.30530075419E+02 -0.22257449587E+01  0.33713760666E+02  0.00000000000E+00 0. -1.
</event>
<event>
 7    1  0.2656097E-013  0.7246151E+02  0.7816164E-02  0.1226708E+00
        -11   -1    0    0    0    0  0.00000000000E+00  0.00000000000E+00  0.45593999997E+02  0.45594000000E+02  0.51100000000E-03 0. -1.
         11   -1    0    0    0    0 -0.00000000000E+00 -0.00000000000E+00 -0.45593999997E+02  0.45594000000E+02  0.51100000000E-03 0.  1.
    9900012    2    1    2    0    0 -0.62278909181E+01 -0.16669914808E+02  0.58316969439E+01  0.72461511428E+02  0.69999923315E+02 0.  0.
        -12    1    1    2    0    0  0.62278909181E+01  0.16669914808E+02 -0.58316969439E+01  0.18726488572E+02  0.00000000000E+00 0.  1.
         11    1    3    3    0    0 -0.14139335642E+02 -0.39625134033E+02  0.94996118242E+01  0.43131365439E+02  0.51100000000E-03 0.  1.
        -11    1    3    3    0    0 -0.96531543931E+00  0.15224112390E+02  0.33600150132E+01  0.15620343566E+02  0.51100000000E-03 0. -1.
        -12    1    3    3    0    0  0.88767601635E+01  0.77311068350E+01 -0.70279298935E+01  0.13709802423E+02  0.00000000000E+00 0.  1.
</event>
<event>
 7    1  0.2656097E-013  0.7246153E+02  0.7816164E-02  0.1226708E+00
        -11   -1    0    0    0    0  0.00000000000E+00  0.00000000000E+00  0.45593999997E+02  0.45594000000E+02  0.51100000000E-03 0.  1.
         11   -1    0    0    0    0 -0.00000000000E+00 -0.00000000000E+00 -0.45593999997E+02  0.45594000000E+02  0.51100000000E-03 0. -1.
    9900012    2    1    2    0    0  0.17052806905E+02 -0.38492176090E+01 -0.67131077498E+01  0.72461534364E+02  0.69999953195E+02 0.  0.
        -12    1    1    2    0    0 -0.17052806905E+02  0.38492176090E+01  0.67131077498E+01  0.18726465636E+02  0.00000000000E+00 0.  1.
         11    1    3    3    0    0  0.18664548075E+02  0.12732637716E+02 -0.46634927385E+01  0.23070188184E+02  0.51100000000E-03 0. -1.
        -11    1    3    3    0    0  0.20775788877E+02 -0.16656458211E+01 -0.71024222594E+01  0.22019359248E+02  0.51100000000E-03 0.  1.
        -12    1    3    3    0    0 -0.22387530047E+02 -0.14916209504E+02  0.50528072481E+01  0.27371986933E+02  0.00000000000E+00 0.  1.
</event>
<event>
 7    1  0.2656097E-013  0.7246159E+02  0.7816164E-02  0.1226708E+00
        -11   -1    0    0    0    0  0.00000000000E+00  0.00000000000E+00  0.45593999997E+02  0.45594000000E+02  0.51100000000E-03 0.  1.
         11   -1    0    0    0    0 -0.00000000000E+00 -0.00000000000E+00 -0.45593999997E+02  0.45594000000E+02  0.51100000000E-03 0. -1.
    9900012    2    1    2    0    0 -0.10623881022E+02 -0.96171334038E+01  0.12054971620E+02  0.72461589676E+02  0.70000025248E+02 0.  0.
        -12    1    1    2    0    0  0.10623881022E+02  0.96171334038E+01 -0.12054971620E+02  0.18726410324E+02  0.00000000000E+00 0.  1.
         11    1    3    3    0    0 -0.17899294306E+02  0.25977086995E+01  0.16138798143E+00  0.18087533648E+02  0.51100000000E-03 0. -1.
        -11    1    3    3    0    0 -0.10745490001E+02 -0.12553717653E+02  0.26462514105E+02  0.31198173590E+02  0.51100000000E-03 0.  1.
         12    1    3    3    0    0  0.18020903285E+02  0.33887555000E+00 -0.14568930467E+02  0.23175882438E+02  0.00000000000E+00 0. -1.
</event>
<event>
 7    1  0.2656097E-013  0.7246161E+02  0.7816164E-02  0.1226708E+00
        -11   -1    0    0    0    0  0.00000000000E+00  0.00000000000E+00  0.45593999997E+02  0.45594000000E+02  0.51100000000E-03 0.  1.
         11   -1    0    0    0    0 -0.00000000000E+00 -0.00000000000E+00 -0.45593999997E+02  0.45594000000E+02  0.51100000000E-03 0. -1.
    9900012    2    1    2    0    0 -0.41414224468E+01 -0.44306293863E+01 -0.17717109076E+02  0.72461606577E+02  0.70000047264E+02 0.  0.
        -12    1    1    2    0    0  0.41414224468E+01  0.44306293863E+01  0.17717109076E+02  0.18726393423E+02  0.00000000000E+00 0.  1.
         11    1    3    3    0    0  0.18217331005E+02  0.12171410727E+02  0.10105094614E+01  0.21932521918E+02  0.51100000000E-03 0. -1.
        -11    1    3    3    0    0  0.72724826417E+01 -0.96235701109E+01  0.38127166499E+01  0.12650648757E+02  0.51100000000E-03 0.  1.
        -12    1    3    3    0    0 -0.29631236094E+02 -0.69784700026E+01 -0.22540335187E+02  0.37878435902E+02  0.00000000000E+00 0.  1.
</event>
<event>
 7    1  0.2656097E-013  0.7246159E+02  0.7816164E-02  0.1226708E+00
        -11   -1    0    0    0    0  0.00000000000E+00  0.00000000000E+00  0.45593999997E+02  0.45594000000E+02  0.51100000000E-03 0.  1.
         11   -1    0    0    0    0 -0.00000000000E+00 -0.00000000000E+00 -0.45593999997E+02  0.45594000000E+02  0.51100000000E-03 0. -1.
    9900012    2    1    2    0    0  0.18000610454E+02  0.50475506825E+01 -0.10856531933E+01  0.72461591176E+02  0.70000027202E+02 0.  0.
        -12    1    1    2    0    0 -0.18000610454E+02 -0.50475506825E+01  0.10856531933E+01  0.18726408824E+02  0.00000000000E+00 0.  1.
         11    1    3    3    0    0  0.41219417428E+01 -0.42314317525E+00 -0.15763308966E+02  0.16298814794E+02  0.51100000000E-03 0. -1.
        -11    1    3    3    0    0 -0.19115814851E+02 -0.45620936599E+01  0.67263140493E+01  0.20771865032E+02  0.51100000000E-03 0.  1.
         12    1    3    3    0    0  0.32994483562E+02  0.10032787518E+02  0.79513417236E+01  0.35390911349E+02  0.00000000000E+00 0. -1.
</event>
<event>
 7    1  0.2656097E-013  0.7246160E+02  0.7816164E-02  0.1226708E+00
        -11   -1    0    0    0    0  0.00000000000E+00  0.00000000000E+00  0.45593999997E+02  0.45594000000E+02  0.51100000000E-03 0.  1.
         11   -1    0    0    0    0 -0.00000000000E+00 -0.00000000000E+00 -0.45593999997E+02  0.45594000000E+02  0.51100000000E-03 0. -1.
    9900012    2    1    2    0    0 -0.82673559372E+01  0.16415374744E+01 -0.16722263649E+02  0.72461603630E+02  0.70000043425E+02 0.  0.
        -12    1    1    2    0    0  0.82673559372E+01 -0.16415374744E+01  0.16722263649E+02  0.18726396370E+02  0.00000000000E+00 0.  1.
         11    1    3    3    0    0  0.27257220662E+01  0.16485510775E+02 -0.30053010860E+01  0.16977439771E+02  0.51100000000E-03 0. -1.
        -11    1    3    3    0    0 -0.29865606907E+02 -0.12288594802E+01 -0.35922675208E+01  0.30105962163E+02  0.51100000000E-03 0.  1.
         12    1    3    3    0    0  0.18872528904E+02 -0.13615113821E+02 -0.10124695042E+02  0.25378201695E+02  0.00000000000E+00 0. -1.
</event>
<event>
 7    1  0.2656097E-013  0.7246166E+02  0.7816164E-02  0.1226708E+00
        -11   -1    0    0    0    0  0.00000000000E+00  0.00000000000E+00  0.45593999997E+02  0.45594000000E+02  0.51100000000E-03 0.  1.
         11   -1    0    0    0    0 -0.00000000000E+00 -0.00000000000E+00 -0.45593999997E+02  0.45594000000E+02  0.51100000000E-03 0. -1.
    9900012    2    1    2    0    0  0.11499815258E+02  0.67581393135E+01 -0.13143734002E+02  0.72461656484E+02  0.70000112278E+02 0.  0.
        -12    1    1    2    0    0 -0.11499815258E+02 -0.67581393135E+01  0.13143734002E+02  0.18726343516E+02  0.00000000000E+00 0.  1.
         11    1    3    3    0    0 -0.13115142780E+02  0.13599672635E+02 -0.31502409182E+02  0.36733633777E+02  0.51100000000E-03 0. -1.
        -11    1    3    3    0    0 -0.96723604673E+00  0.83038224615E+00  0.62937404814E+01  0.64215457448E+01  0.51100000000E-03 0.  1.
        -12    1    3    3    0    0  0.25582194085E+02 -0.76719155680E+01  0.12064934698E+02  0.29306476962E+02  0.00000000000E+00 0.  1.
</event>
<event>
 7    1  0.2656097E-013  0.7246142E+02  0.7816164E-02  0.1226708E+00
        -11   -1    0    0    0    0  0.00000000000E+00  0.00000000000E+00  0.45593999997E+02  0.45594000000E+02  0.51100000000E-03 0.  1.
         11   -1    0    0    0    0 -0.00000000000E+00 -0.00000000000E+00 -0.45593999997E+02  0.45594000000E+02  0.51100000000E-03 0. -1.
    9900012    2    1    2    0    0 -0.10165509780E+02 -0.11927154772E+02 -0.10251344105E+02  0.72461423538E+02  0.69999808822E+02 0.  0.
        -12    1    1    2    0    0  0.10165509780E+02  0.11927154772E+02  0.10251344105E+02  0.18726576462E+02  0.00000000000E+00 0.  1.
         11    1    3    3    0    0 -0.19442348590E+02 -0.66772374559E+01  0.39426826861E+01  0.20931678522E+02  0.51100000000E-03 0. -1.
        -11    1    3    3    0    0  0.12118075744E+02 -0.24475330142E+02 -0.16579783456E+02  0.31949628558E+02  0.51100000000E-03 0.  1.
        -12    1    3    3    0    0 -0.28412369336E+01  0.19225412826E+02  0.23857566654E+01  0.19580116458E+02  0.00000000000E+00 0.  1.
</event>
<event>
 7    1  0.2656097E-013  0.7246160E+02  0.7816164E-02  0.1226708E+00
        -11   -1    0    0    0    0  0.00000000000E+00  0.00000000000E+00  0.45593999997E+02  0.45594000000E+02  0.51100000000E-03 0.  1.
         11   -1    0    0    0    0 -0.00000000000E+00 -0.00000000000E+00 -0.45593999997E+02  0.45594000000E+02  0.51100000000E-03 0. -1.
    9900012    2    1    2    0    0 -0.44913669577E+01  0.15859299048E+02 -0.88875436133E+01  0.72461596850E+02  0.70000034594E+02 0.  0.
        -12    1    1    2    0    0  0.44913669577E+01 -0.15859299048E+02  0.88875436133E+01  0.18726403150E+02  0.00000000000E+00 0.  1.
         11    1    3    3    0    0  0.13544828465E+02 -0.16045520423E+02 -0.62908503598E+01  0.21920216748E+02  0.51100000000E-03 0. -1.
        -11    1    3    3    0    0  0.90865882883E+01  0.84780604256E+01 -0.72713200654E+01  0.14398461413E+02  0.51100000000E-03 0.  1.
        -12    1    3    3    0    0 -0.27122783711E+02  0.23426759045E+02  0.46746268120E+01  0.36142918690E+02  0.00000000000E+00 0.  1.
</event>
<event>
 7    1  0.2656097E-013  0.7246174E+02  0.7816164E-02  0.1226708E+00
        -11   -1    0    0    0    0  0.00000000000E+00  0.00000000000E+00  0.45593999997E+02  0.45594000000E+02  0.51100000000E-03 0.  1.
         11   -1    0    0    0    0 -0.00000000000E+00 -0.00000000000E+00 -0.45593999997E+02  0.45594000000E+02  0.51100000000E-03 0. -1.
    9900012    2    1    2    0    0 -0.13807073890E+02  0.10966421119E+02 -0.63067445080E+01  0.72461742824E+02  0.70000224751E+02 0.  0.
        -12    1    1    2    0    0  0.13807073890E+02 -0.10966421119E+02  0.63067445080E+01  0.18726257176E+02  0.00000000000E+00 0.  1.
         11    1    3    3    0    0  0.10739152997E+02  0.12014076768E+02  0.11840528300E+02  0.19996638676E+02  0.51100000000E-03 0. -1.
        -11    1    3    3    0    0  0.45710319935E+01  0.62067469629E+01  0.91048882424E+01  0.11929670218E+02  0.51100000000E-03 0.  1.
        -12    1    3    3    0    0 -0.29117258880E+02 -0.72544026121E+01 -0.27252161050E+02  0.40535433929E+02  0.00000000000E+00 0.  1.
</event>
<event>
 7    1  0.2656097E-013  0.7246135E+02  0.7816164E-02  0.1226709E+00
        -11   -1    0    0    0    0  0.00000000000E+00  0.00000000000E+00  0.45593999997E+02  0.45594000000E+02  0.51100000000E-03 0. -1.
         11   -1    0    0    0    0 -0.00000000000E+00 -0.00000000000E+00 -0.45593999997E+02  0.45594000000E+02  0.51100000000E-03 0.  1.
    9900012    2    1    2    0    0  0.60746709572E+01 -0.11366736822E+02  0.13586134200E+02  0.72461351188E+02  0.69999714573E+02 0.  0.
        -12    1    1    2    0    0 -0.60746709572E+01  0.11366736822E+02 -0.13586134200E+02  0.18726648812E+02  0.00000000000E+00 0.  1.
         11    1    3    3    0    0  0.36659662933E+02 -0.39595312627E+01 -0.22814157161E+00  0.36873578929E+02  0.51100000000E-03 0. -1.
        -11    1    3    3    0    0 -0.97561449909E+01  0.51115508497E+00  0.78160800155E+01  0.12511384882E+02  0.51100000000E-03 0.  1.
        -12    1    3    3    0    0 -0.20828846985E+02 -0.79183606447E+01  0.59981957560E+01  0.23076387377E+02  0.00000000000E+00 0.  1.
</event>
<event>
 7    1  0.2656097E-013  0.7246154E+02  0.7816164E-02  0.1226708E+00
        -11   -1    0    0    0    0  0.00000000000E+00  0.00000000000E+00  0.45593999997E+02  0.45594000000E+02  0.51100000000E-03 0. -1.
         11   -1    0    0    0    0 -0.00000000000E+00 -0.00000000000E+00 -0.45593999997E+02  0.45594000000E+02  0.51100000000E-03 0.  1.
    9900012    2    1    2    0    0 -0.16958895058E+02  0.65247786056E+01 -0.45280936092E+01  0.72461535059E+02  0.69999954100E+02 0.  0.
        -12    1    1    2    0    0  0.16958895058E+02 -0.65247786056E+01  0.45280936092E+01  0.18726464941E+02  0.00000000000E+00 0.  1.
         11    1    3    3    0    0  0.76307148381E+01  0.94665575542E+00  0.11212585831E+02  0.13595809918E+02  0.51100000000E-03 0. -1.
        -11    1    3    3    0    0 -0.20558517513E+02 -0.20144633106E+02 -0.15788696321E+02  0.32828978313E+02  0.51100000000E-03 0.  1.
         12    1    3    3    0    0 -0.40310923829E+01  0.25722755956E+02  0.48016881284E-01  0.26036746828E+02  0.00000000000E+00 0. -1.
</event>
<event>
 7    1  0.2656097E-013  0.7246157E+02  0.7816164E-02  0.1226708E+00
        -11   -1    0    0    0    0  0.00000000000E+00  0.00000000000E+00  0.45593999997E+02  0.45594000000E+02  0.51100000000E-03 0. -1.
         11   -1    0    0    0    0 -0.00000000000E+00 -0.00000000000E+00 -0.45593999997E+02  0.45594000000E+02  0.51100000000E-03 0.  1.
    9900012    2    1    2    0    0  0.65258050208E+01  0.11284345257E+02  0.13444576729E+02  0.72461568881E+02  0.69999998159E+02 0.  0.
        -12    1    1    2    0    0 -0.65258050208E+01 -0.11284345257E+02 -0.13444576729E+02  0.18726431119E+02  0.00000000000E+00 0.  1.
         11    1    3    3    0    0  0.10142958624E+02  0.49585758139E+01  0.28091825816E+02  0.30275695891E+02  0.51100000000E-03 0. -1.
        -11    1    3    3    0    0  0.36416491330E+01  0.12716547672E+02  0.94260056721E+01  0.16242591428E+02  0.51100000000E-03 0.  1.
        -12    1    3    3    0    0 -0.72588027359E+01 -0.63907782291E+01 -0.24073254759E+02  0.25943281562E+02  0.00000000000E+00 0.  1.
</event>
<event>
 7    1  0.2656097E-013  0.7246117E+02  0.7816164E-02  0.1226709E+00
        -11   -1    0    0    0    0  0.00000000000E+00  0.00000000000E+00  0.45593999997E+02  0.45594000000E+02  0.51100000000E-03 0. -1.
         11   -1    0    0    0    0 -0.00000000000E+00 -0.00000000000E+00 -0.45593999997E+02  0.45594000000E+02  0.51100000000E-03 0.  1.
    9900012    2    1    2    0    0 -0.14011852617E+02 -0.10936939711E+02  0.58945382406E+01  0.72461167778E+02  0.69999475645E+02 0.  0.
        -12    1    1    2    0    0  0.14011852617E+02  0.10936939711E+02 -0.58945382406E+01  0.18726832222E+02  0.00000000000E+00 0.  1.
         11    1    3    3    0    0 -0.52648571297E+01 -0.22123652127E+02  0.61673656880E+01  0.23562917981E+02  0.51100000000E-03 0. -1.
        -11    1    3    3    0    0 -0.10896721542E+02 -0.16616394968E+02  0.50646570402E+01  0.20505947266E+02  0.51100000000E-03 0.  1.
        -12    1    3    3    0    0  0.21497260542E+01  0.27803107383E+02 -0.53374844876E+01  0.28392302530E+02  0.00000000000E+00 0.  1.
</event>
<event>
 7    1  0.2656097E-013  0.7246156E+02  0.7816164E-02  0.1226708E+00
        -11   -1    0    0    0    0  0.00000000000E+00  0.00000000000E+00  0.45593999997E+02  0.45594000000E+02  0.51100000000E-03 0.  1.
         11   -1    0    0    0    0 -0.00000000000E+00 -0.00000000000E+00 -0.45593999997E+02  0.45594000000E+02  0.51100000000E-03 0. -1.
    9900012    2    1    2    0    0  0.18658858830E+01 -0.16864463975E+02  0.79238763924E+01  0.72461561674E+02  0.69999988770E+02 0.  0.
        -12    1    1    2    0    0 -0.18658858830E+01  0.16864463975E+02 -0.79238763924E+01  0.18726438326E+02  0.00000000000E+00 0.  1.
         11    1    3    3    0    0  0.83363161892E+01 -0.15206524178E+02 -0.19690136644E+02  0.26238026345E+02  0.51100000000E-03 0. -1.
        -11    1    3    3    0    0  0.14825699985E+02 -0.43069001260E+01  0.93944696971E+01  0.18072266872E+02  0.51100000000E-03 0.  1.
        -12    1    3    3    0    0 -0.21296130292E+02  0.26489603284E+01  0.18219543339E+02  0.28151268456E+02  0.00000000000E+00 0.  1.
</event>
<event>
 7    1  0.2656097E-013  0.7246161E+02  0.7816164E-02  0.1226708E+00
        -11   -1    0    0    0    0  0.00000000000E+00  0.00000000000E+00  0.45593999997E+02  0.45594000000E+02  0.51100000000E-03 0.  1.
         11   -1    0    0    0    0 -0.00000000000E+00 -0.00000000000E+00 -0.45593999997E+02  0.45594000000E+02  0.51100000000E-03 0. -1.
    9900012    2    1    2    0    0 -0.18783094256E+01 -0.58122248676E+01 -0.17702195622E+02  0.72461608622E+02  0.70000049928E+02 0.  0.
        -12    1    1    2    0    0  0.18783094256E+01  0.58122248676E+01  0.17702195622E+02  0.18726391378E+02  0.00000000000E+00 0.  1.
         11    1    3    3    0    0  0.52831528366E+01  0.90533277647E+01  0.64383548310E+00  0.10501855641E+02  0.51100000000E-03 0. -1.
        -11    1    3    3    0    0  0.10981853015E+01  0.21302440769E+02 -0.20165135953E+01  0.21425833029E+02  0.51100000000E-03 0.  1.
         12    1    3    3    0    0 -0.82596475636E+01 -0.36167993401E+02 -0.16329517510E+02  0.40533919952E+02  0.00000000000E+00 0. -1.
</event>
<event>
 7    1  0.2656097E-013  0.7246154E+02  0.7816164E-02  0.1226708E+00
        -11   -1    0    0    0    0  0.00000000000E+00  0.00000000000E+00  0.45593999997E+02  0.45594000000E+02  0.51100000000E-03 0.  1.
         11   -1    0    0    0    0 -0.00000000000E+00 -0.00000000000E+00 -0.45593999997E+02  0.45594000000E+02  0.51100000000E-03 0. -1.
    9900012    2    1    2    0    0 -0.87687064918E+00  0.65196228866E+00 -0.18694555353E+02  0.72461538593E+02  0.69999958704E+02 0.  0.
        -12    1    1    2    0    0  0.87687064918E+00 -0.65196228866E+00  0.18694555353E+02  0.18726461407E+02  0.00000000000E+00 0.  1.
         11    1    3    3    0    0 -0.16029787642E+01 -0.75329455664E+01  0.67936459041E+01  0.10269782605E+02  0.51100000000E-03 0. -1.
        -11    1    3    3    0    0 -0.26159124686E+02  0.99405299887E+01 -0.20745115779E+02  0.34834950405E+02  0.51100000000E-03 0.  1.
         12    1    3    3    0    0  0.26885232801E+02 -0.17556221337E+01 -0.47430854784E+01  0.27356805583E+02  0.00000000000E+00 0. -1.
</event>
<event>
 7    1  0.2729259E-013  0.7246159E+02  0.7816164E-02  0.1226708E+00
        -11   -1    0    0    0    0  0.00000000000E+00  0.00000000000E+00  0.45593999997E+02  0.45594000000E+02  0.51100000000E-03 0. -1.
         11   -1    0    0    0    0 -0.00000000000E+00 -0.00000000000E+00 -0.45593999997E+02  0.45594000000E+02  0.51100000000E-03 0.  1.
    9900012    2    1    2    0    0  0.10876047834E+02  0.22379846020E+01  0.15079166870E+02  0.72461594444E+02  0.70000031459E+02 0.  0.
        -12    1    1    2    0    0 -0.10876047834E+02 -0.22379846020E+01 -0.15079166870E+02  0.18726405556E+02  0.00000000000E+00 0.  1.
         11    1    3    3    0    0 -0.76005691561E+01 -0.72089407652E+01  0.31662508098E+02  0.33350440744E+02  0.51100000000E-03 0. -1.
        -11    1    3    3    0    0  0.16008825774E+02 -0.65138999805E+01 -0.20867054430E+01  0.17408840727E+02  0.51100000000E-03 0.  1.
        -12    1    3    3    0    0  0.24677912168E+01  0.15960825348E+02 -0.14496635786E+02  0.21702312973E+02  0.00000000000E+00 0.  1.
</event>
<event>
 7    1  0.2656097E-013  0.7246146E+02  0.7816164E-02  0.1226708E+00
        -11   -1    0    0    0    0  0.00000000000E+00  0.00000000000E+00  0.45593999997E+02  0.45594000000E+02  0.51100000000E-03 0.  1.
         11   -1    0    0    0    0 -0.00000000000E+00 -0.00000000000E+00 -0.45593999997E+02  0.45594000000E+02  0.51100000000E-03 0. -1.
    9900012    2    1    2    0    0 -0.94652965582E+01 -0.15695196425E+02  0.38408773133E+01  0.72461458186E+02  0.69999853958E+02 0.  0.
        -12    1    1    2    0    0  0.94652965582E+01  0.15695196425E+02 -0.38408773133E+01  0.18726541814E+02  0.00000000000E+00 0.  1.
         11    1    3    3    0    0 -0.35623627775E+02 -0.23500081814E+02 -0.35473931939E+01  0.42823833315E+02  0.51100000000E-03 0. -1.
        -11    1    3    3    0    0  0.85690354909E+01 -0.13220394925E+01  0.60094152178E+00  0.86912190536E+01  0.51100000000E-03 0.  1.
        -12    1    3    3    0    0  0.17589295726E+02  0.91269248807E+01  0.67873289855E+01  0.20946405817E+02  0.00000000000E+00 0.  1.
</event>
<event>
 7    1  0.2656097E-013  0.7246145E+02  0.7816164E-02  0.1226708E+00
        -11   -1    0    0    0    0  0.00000000000E+00  0.00000000000E+00  0.45593999997E+02  0.45594000000E+02  0.51100000000E-03 0. -1.
         11   -1    0    0    0    0 -0.00000000000E+00 -0.00000000000E+00 -0.45593999997E+02  0.45594000000E+02  0.51100000000E-03 0.  1.
    9900012    2    1    2    0    0  0.68712653452E+01 -0.14040320793E+02  0.10312061517E+02  0.72461454453E+02  0.69999849095E+02 0.  0.
        -12    1    1    2    0    0 -0.68712653452E+01  0.14040320793E+02 -0.10312061517E+02  0.18726545547E+02  0.00000000000E+00 0.  1.
         11    1    3    3    0    0 -0.75530421856E+01 -0.20615970410E+01  0.30032972342E+02  0.31036721099E+02  0.51100000000E-03 0. -1.
        -11    1    3    3    0    0 -0.91689899896E+00 -0.43428190646E+01  0.78175887163E+01  0.89897427550E+01  0.51100000000E-03 0.  1.
        -12    1    3    3    0    0  0.15341206530E+02 -0.76359046871E+01 -0.27538499541E+02  0.32434990599E+02  0.00000000000E+00 0.  1.
</event>
<event>
 7    1  0.2656097E-013  0.7246156E+02  0.7816164E-02  0.1226708E+00
        -11   -1    0    0    0    0  0.00000000000E+00  0.00000000000E+00  0.45593999997E+02  0.45594000000E+02  0.51100000000E-03 0.  1.
         11   -1    0    0    0    0 -0.00000000000E+00 -0.00000000000E+00 -0.45593999997E+02  0.45594000000E+02  0.51100000000E-03 0. -1.
    9900012    2    1    2    0    0 -0.12783205704E+02 -0.10589644221E+02 -0.86676766537E+01  0.72461560632E+02  0.69999987414E+02 0.  0.
        -12    1    1    2    0    0  0.12783205704E+02  0.10589644221E+02  0.86676766537E+01  0.18726439368E+02  0.00000000000E+00 0.  1.
         11    1    3    3    0    0 -0.17472058166E+02 -0.78177679394E+01 -0.34862757740E+02  0.39771876868E+02  0.51100000000E-03 0. -1.
        -11    1    3    3    0    0  0.98747393616E+00 -0.67176799685E+01  0.93168494787E+00  0.68534929807E+01  0.51100000000E-03 0.  1.
        -12    1    3    3    0    0  0.37013785254E+01  0.39458036864E+01  0.25263396139E+02  0.25836190783E+02  0.00000000000E+00 0.  1.
</event>
<event>
 7    1  0.2656097E-013  0.7246158E+02  0.7816164E-02  0.1226708E+00
        -11   -1    0    0    0    0  0.00000000000E+00  0.00000000000E+00  0.45593999997E+02  0.45594000000E+02  0.51100000000E-03 0. -1.
         11   -1    0    0    0    0 -0.00000000000E+00 -0.00000000000E+00 -0.45593999997E+02  0.45594000000E+02  0.51100000000E-03 0.  1.
    9900012    2    1    2    0    0  0.68357439214E+01 -0.20775405018E+01  0.17309976526E+02  0.72461578643E+02  0.70000010876E+02 0.  0.
        -12    1    1    2    0    0 -0.68357439214E+01  0.20775405018E+01 -0.17309976526E+02  0.18726421357E+02  0.00000000000E+00 0.  1.
         11    1    3    3    0    0 -0.24333167651E+01  0.10670275563E+02 -0.32524450085E+01  0.11417276815E+02  0.51100000000E-03 0. -1.
        -11    1    3    3    0    0  0.24864314682E+02 -0.30264428791E+01 -0.86780186683E+01  0.26508517676E+02  0.51100000000E-03 0.  1.
         12    1    3    3    0    0 -0.15595253995E+02 -0.97213731857E+01  0.29240440203E+02  0.34535784153E+02  0.00000000000E+00 0. -1.
</event>
<event>
 7    1  0.2656097E-013  0.7246156E+02  0.7816164E-02  0.1226708E+00
        -11   -1    0    0    0    0  0.00000000000E+00  0.00000000000E+00  0.45593999997E+02  0.45594000000E+02  0.51100000000E-03 0.  1.
         11   -1    0    0    0    0 -0.00000000000E+00 -0.00000000000E+00 -0.45593999997E+02  0.45594000000E+02  0.51100000000E-03 0. -1.
    9900012    2    1    2    0    0  0.56795005640E+01  0.70181230557E+01 -0.16406363259E+02  0.72461560582E+02  0.69999987348E+02 0.  0.
        -12    1    1    2    0    0 -0.56795005640E+01 -0.70181230557E+01  0.16406363259E+02  0.18726439418E+02  0.00000000000E+00 0.  1.
         11    1    3    3    0    0  0.19983984590E+02  0.46825195733E+01  0.54246036842E+01  0.21229977744E+02  0.51100000000E-03 0. -1.
        -11    1    3    3    0    0  0.14782914435E+02 -0.58918557232E+01 -0.98482807284E+01  0.18714624138E+02  0.51100000000E-03 0.  1.
        -12    1    3    3    0    0 -0.29087398461E+02  0.82274592056E+01 -0.11982686215E+02  0.32516958700E+02  0.00000000000E+00 0.  1.
</event>
<event>
 7    1  0.2656097E-013  0.7246155E+02  0.7816164E-02  0.1226708E+00
        -11   -1    0    0    0    0  0.00000000000E+00  0.00000000000E+00  0.45593999997E+02  0.45594000000E+02  0.51100000000E-03 0.  1.
         11   -1    0    0    0    0 -0.00000000000E+00 -0.00000000000E+00 -0.45593999997E+02  0.45594000000E+02  0.51100000000E-03 0. -1.
    9900012    2    1    2    0    0 -0.18410430381E+02 -0.95603895211E+00  0.32896823498E+01  0.72461548995E+02  0.69999972254E+02 0.  0.
        -12    1    1    2    0    0  0.18410430381E+02  0.95603895211E+00 -0.32896823498E+01  0.18726451005E+02  0.00000000000E+00 0.  1.
         11    1    3    3    0    0 -0.62306406782E+01 -0.88465717141E+01  0.21200921401E+01  0.11026218994E+02  0.51100000000E-03 0. -1.
        -11    1    3    3    0    0 -0.25948025581E+02 -0.31833394884E+01  0.21966394763E+02  0.34146100524E+02  0.51100000000E-03 0.  1.
         12    1    3    3    0    0  0.13768235878E+02  0.11073872250E+02 -0.20796804554E+02  0.27289229477E+02  0.00000000000E+00 0. -1.
</event>
<event>
 7    1  0.2656097E-013  0.7246160E+02  0.7816164E-02  0.1226708E+00
        -11   -1    0    0    0    0  0.00000000000E+00  0.00000000000E+00  0.45593999997E+02  0.45594000000E+02  0.51100000000E-03 0.  1.
         11   -1    0    0    0    0 -0.00000000000E+00 -0.00000000000E+00 -0.45593999997E+02  0.45594000000E+02  0.51100000000E-03 0. -1.
    9900012    2    1    2    0    0 -0.77303184069E+01 -0.13563082723E+02 -0.10342295407E+02  0.72461598586E+02  0.70000036855E+02 0.  0.
        -12    1    1    2    0    0  0.77303184069E+01  0.13563082723E+02  0.10342295407E+02  0.18726401414E+02  0.00000000000E+00 0.  1.
         11    1    3    3    0    0  0.49755210029E+01  0.14460748050E+02 -0.78137282341E+01  0.17173333765E+02  0.51100000000E-03 0. -1.
        -11    1    3    3    0    0 -0.36826433827E+01  0.12439944940E+02  0.33928111622E+01  0.13409894117E+02  0.51100000000E-03 0.  1.
         12    1    3    3    0    0 -0.90231960271E+01 -0.40463775713E+02 -0.59213783354E+01  0.41878370704E+02  0.00000000000E+00 0. -1.
</event>
<event>
 7    1  0.2656097E-013  0.7246154E+02  0.7816164E-02  0.1226708E+00
        -11   -1    0    0    0    0  0.00000000000E+00  0.00000000000E+00  0.45593999997E+02  0.45594000000E+02  0.51100000000E-03 0.  1.
         11   -1    0    0    0    0 -0.00000000000E+00 -0.00000000000E+00 -0.45593999997E+02  0.45594000000E+02  0.51100000000E-03 0. -1.
    9900012    2    1    2    0    0  0.55414173473E+01  0.17563991302E+02  0.33881144592E+01  0.72461537006E+02  0.69999956636E+02 0.  0.
        -12    1    1    2    0    0 -0.55414173473E+01 -0.17563991302E+02 -0.33881144592E+01  0.18726462994E+02  0.00000000000E+00 0.  1.
         11    1    3    3    0    0  0.29842287775E+02  0.13431746521E+02 -0.62423904237E+01  0.33315782937E+02  0.51100000000E-03 0. -1.
        -11    1    3    3    0    0 -0.12154805215E+02 -0.89928956993E+00 -0.98316689684E+01  0.15659173877E+02  0.51100000000E-03 0.  1.
        -12    1    3    3    0    0 -0.12146065213E+02  0.50315343513E+01  0.19462173851E+02  0.23486580192E+02  0.00000000000E+00 0.  1.
</event>
<event>
 7    1  0.2656097E-013  0.7246172E+02  0.7816164E-02  0.1226708E+00
        -11   -1    0    0    0    0  0.00000000000E+00  0.00000000000E+00  0.45593999997E+02  0.45594000000E+02  0.51100000000E-03 0.  1.
         11   -1    0    0    0    0 -0.00000000000E+00 -0.00000000000E+00 -0.45593999997E+02  0.45594000000E+02  0.51100000000E-03 0. -1.
    9900012    2    1    2    0    0 -0.12095898304E+02  0.57458441790E+01 -0.13089993841E+02  0.72461723812E+02  0.70000199985E+02 0.  0.
        -12    1    1    2    0    0  0.12095898304E+02 -0.57458441790E+01  0.13089993841E+02  0.18726276188E+02  0.00000000000E+00 0.  1.
         11    1    3    3    0    0  0.62607080048E+01  0.14760177390E+02 -0.27921777275E+00  0.16035500121E+02  0.51100000000E-03 0. -1.
        -11    1    3    3    0    0  0.55060910556E+01  0.17172099016E+02  0.17595538265E+01  0.18118886645E+02  0.51100000000E-03 0.  1.
        -12    1    3    3    0    0 -0.23862697364E+02 -0.26186432227E+02 -0.14570329894E+02  0.38307337046E+02  0.00000000000E+00 0.  1.
</event>
<event>
 7    1  0.2656097E-013  0.7246156E+02  0.7816164E-02  0.1226708E+00
        -11   -1    0    0    0    0  0.00000000000E+00  0.00000000000E+00  0.45593999997E+02  0.45594000000E+02  0.51100000000E-03 0.  1.
         11   -1    0    0    0    0 -0.00000000000E+00 -0.00000000000E+00 -0.45593999997E+02  0.45594000000E+02  0.51100000000E-03 0. -1.
    9900012    2    1    2    0    0 -0.14956574011E+02  0.71107529225E+01 -0.87417286727E+01  0.72461555237E+02  0.69999980386E+02 0.  0.
        -12    1    1    2    0    0  0.14956574011E+02 -0.71107529225E+01  0.87417286727E+01  0.18726444763E+02  0.00000000000E+00 0.  1.
         11    1    3    3    0    0  0.17107973842E+00  0.19930207794E+02  0.11644887536E+02  0.23083454182E+02  0.51100000000E-03 0. -1.
        -11    1    3    3    0    0  0.73518670108E+01  0.21194855143E+01  0.73973196317E+01  0.10642485865E+02  0.51100000000E-03 0.  1.
         12    1    3    3    0    0 -0.22479520760E+02 -0.14938940386E+02 -0.27783935840E+02  0.38735615191E+02  0.00000000000E+00 0. -1.
</event>
<event>
 7    1  0.2656097E-013  0.7246154E+02  0.7816164E-02  0.1226708E+00
        -11   -1    0    0    0    0  0.00000000000E+00  0.00000000000E+00  0.45593999997E+02  0.45594000000E+02  0.51100000000E-03 0. -1.
         11   -1    0    0    0    0 -0.00000000000E+00 -0.00000000000E+00 -0.45593999997E+02  0.45594000000E+02  0.51100000000E-03 0.  1.
    9900012    2    1    2    0    0  0.10055918604E+02 -0.19149737081E+01  0.15680931594E+02  0.72461541741E+02  0.69999962804E+02 0.  0.
        -12    1    1    2    0    0 -0.10055918604E+02  0.19149737081E+01 -0.15680931594E+02  0.18726458259E+02  0.00000000000E+00 0.  1.
         11    1    3    3    0    0  0.14044953915E+02 -0.31960251242E+02  0.58412449743E+01  0.35395459215E+02  0.51100000000E-03 0. -1.
        -11    1    3    3    0    0 -0.55272293977E+01  0.77522824404E+00  0.47248826028E+01  0.73127121861E+01  0.51100000000E-03 0.  1.
        -12    1    3    3    0    0  0.15381940869E+01  0.29270049290E+02  0.51148040166E+01  0.29753370340E+02  0.00000000000E+00 0.  1.
</event>
<event>
 7    1  0.2656097E-013  0.7246154E+02  0.7816164E-02  0.1226708E+00
        -11   -1    0    0    0    0  0.00000000000E+00  0.00000000000E+00  0.45593999997E+02  0.45594000000E+02  0.51100000000E-03 0. -1.
         11   -1    0    0    0    0 -0.00000000000E+00 -0.00000000000E+00 -0.45593999997E+02  0.45594000000E+02  0.51100000000E-03 0.  1.
    9900012    2    1    2    0    0 -0.12011981989E+02 -0.12036654505E+02  0.78429326231E+01  0.72461538638E+02  0.69999958762E+02 0.  0.
        -12    1    1    2    0    0  0.12011981989E+02  0.12036654505E+02 -0.78429326231E+01  0.18726461362E+02  0.00000000000E+00 0.  1.
         11    1    3    3    0    0  0.13971450946E+02 -0.15476561929E+02  0.26278346694E+02  0.33545147427E+02  0.51100000000E-03 0. -1.
        -11    1    3    3    0    0 -0.94050072882E+01 -0.58986649556E+01 -0.16366541525E+02  0.19776554100E+02  0.51100000000E-03 0.  1.
        -12    1    3    3    0    0 -0.16578425647E+02  0.93385723794E+01 -0.20688725463E+01  0.19139837111E+02  0.00000000000E+00 0.  1.
</event>
<event>
 7    1  0.2656097E-013  0.7246155E+02  0.7816164E-02  0.1226708E+00
        -11   -1    0    0    0    0  0.00000000000E+00  0.00000000000E+00  0.45593999997E+02  0.45594000000E+02  0.51100000000E-03 0. -1.
         11   -1    0    0    0    0 -0.00000000000E+00 -0.00000000000E+00 -0.45593999997E+02  0.45594000000E+02  0.51100000000E-03 0.  1.
    9900012    2    1    2    0    0  0.96947563901E+01 -0.13877190699E+02  0.80072005611E+01  0.72461548548E+02  0.69999971671E+02 0.  0.
        -12    1    1    2    0    0 -0.96947563901E+01  0.13877190699E+02 -0.80072005611E+01  0.18726451452E+02  0.00000000000E+00 0.  1.
         11    1    3    3    0    0  0.28136812469E+02 -0.13762476598E+02 -0.10583594470E+02  0.33062039413E+02  0.51100000000E-03 0. -1.
        -11    1    3    3    0    0 -0.95315870843E+01  0.40063025453E+01 -0.66659318143E+01  0.12301880330E+02  0.51100000000E-03 0.  1.
        -12    1    3    3    0    0 -0.89104689942E+01 -0.41210166472E+01  0.25256726845E+02  0.27097628805E+02  0.00000000000E+00 0.  1.
</event>
<event>
 7    1  0.2656097E-013  0.7246169E+02  0.7816164E-02  0.1226708E+00
        -11   -1    0    0    0    0  0.00000000000E+00  0.00000000000E+00  0.45593999997E+02  0.45594000000E+02  0.51100000000E-03 0. -1.
         11   -1    0    0    0    0 -0.00000000000E+00 -0.00000000000E+00 -0.45593999997E+02  0.45594000000E+02  0.51100000000E-03 0.  1.
    9900012    2    1    2    0    0 -0.12208722236E+02  0.12484623001E+02  0.67643083079E+01  0.72461692916E+02  0.70000159737E+02 0.  0.
        -12    1    1    2    0    0  0.12208722236E+02 -0.12484623001E+02 -0.67643083079E+01  0.18726307084E+02  0.00000000000E+00 0.  1.
         11    1    3    3    0    0 -0.80632326602E+01 -0.11128885915E+02 -0.76036813893E+01  0.15706170557E+02  0.51100000000E-03 0. -1.
        -11    1    3    3    0    0 -0.84093589830E+01 -0.14344317638E+02  0.57969817297E+01  0.17609138662E+02  0.51100000000E-03 0.  1.
         12    1    3    3    0    0  0.42638694068E+01  0.37957826553E+02  0.85710079675E+01  0.39146383697E+02  0.00000000000E+00 0. -1.
</event>
<event>
 7    1  0.2656097E-013  0.7246156E+02  0.7816164E-02  0.1226708E+00
        -11   -1    0    0    0    0  0.00000000000E+00  0.00000000000E+00  0.45593999997E+02  0.45594000000E+02  0.51100000000E-03 0.  1.
         11   -1    0    0    0    0 -0.00000000000E+00 -0.00000000000E+00 -0.45593999997E+02  0.45594000000E+02  0.51100000000E-03 0. -1.
    9900012    2    1    2    0    0  0.18723203190E+02  0.13020420139E+00  0.32297125982E+00  0.72461558767E+02  0.69999984983E+02 0.  0.
        -12    1    1    2    0    0 -0.18723203190E+02 -0.13020420139E+00 -0.32297125982E+00  0.18726441233E+02  0.00000000000E+00 0.  1.
         11    1    3    3    0    0 -0.21460331830E+01  0.16386482007E+02 -0.15049247530E+02  0.22351780745E+02  0.51100000000E-03 0. -1.
        -11    1    3    3    0    0 -0.53748154783E+01 -0.11579697166E+02 -0.76535269069E+01  0.14884706993E+02  0.51100000000E-03 0.  1.
        -12    1    3    3    0    0  0.26244051851E+02 -0.46765806395E+01  0.23025745697E+02  0.35225071029E+02  0.00000000000E+00 0.  1.
</event>
<event>
 7    1  0.2656097E-013  0.7246154E+02  0.7816164E-02  0.1226708E+00
        -11   -1    0    0    0    0  0.00000000000E+00  0.00000000000E+00  0.45593999997E+02  0.45594000000E+02  0.51100000000E-03 0. -1.
         11   -1    0    0    0    0 -0.00000000000E+00 -0.00000000000E+00 -0.45593999997E+02  0.45594000000E+02  0.51100000000E-03 0.  1.
    9900012    2    1    2    0    0  0.12353603520E+02 -0.20857573373E+01 -0.13918276215E+02  0.72461539673E+02  0.69999960109E+02 0.  0.
        -12    1    1    2    0    0 -0.12353603520E+02  0.20857573373E+01  0.13918276215E+02  0.18726460327E+02  0.00000000000E+00 0.  1.
         11    1    3    3    0    0  0.49736991689E+01  0.24774059535E+02 -0.18565678750E+02  0.31355639635E+02  0.51100000000E-03 0. -1.
        -11    1    3    3    0    0  0.57873428071E+01  0.47148322211E+01 -0.38079604593E+01  0.83799488520E+01  0.51100000000E-03 0.  1.
        -12    1    3    3    0    0  0.15925615444E+01 -0.31574649093E+02  0.84553629944E+01  0.32725951185E+02  0.00000000000E+00 0.  1.
</event>
<event>
 7    1  0.2656097E-013  0.7246157E+02  0.7816164E-02  0.1226708E+00
        -11   -1    0    0    0    0  0.00000000000E+00  0.00000000000E+00  0.45593999997E+02  0.45594000000E+02  0.51100000000E-03 0.  1.
         11   -1    0    0    0    0 -0.00000000000E+00 -0.00000000000E+00 -0.45593999997E+02  0.45594000000E+02  0.51100000000E-03 0. -1.
    9900012    2    1    2    0    0 -0.18546771174E+02 -0.17963104826E+01  0.18627607812E+01  0.72461566008E+02  0.69999994416E+02 0.  0.
        -12    1    1    2    0    0  0.18546771174E+02  0.17963104826E+01 -0.18627607812E+01  0.18726433992E+02  0.00000000000E+00 0.  1.
         11    1    3    3    0    0  0.10292443480E+02 -0.12515240663E+02  0.15862483641E+01  0.16281333661E+02  0.51100000000E-03 0. -1.
        -11    1    3    3    0    0  0.42694912389E+01 -0.13503075945E+02 -0.45482587357E+01  0.14874416735E+02  0.51100000000E-03 0.  1.
        -12    1    3    3    0    0 -0.33108705893E+02  0.24222006126E+02  0.48247711528E+01  0.41305815612E+02  0.00000000000E+00 0.  1.
</event>
<event>
 7    1  0.2656097E-013  0.7246164E+02  0.7816164E-02  0.1226708E+00
        -11   -1    0    0    0    0  0.00000000000E+00  0.00000000000E+00  0.45593999997E+02  0.45594000000E+02  0.51100000000E-03 0. -1.
         11   -1    0    0    0    0 -0.00000000000E+00 -0.00000000000E+00 -0.45593999997E+02  0.45594000000E+02  0.51100000000E-03 0.  1.
    9900012    2    1    2    0    0  0.12425475520E+02 -0.13453110186E+02  0.39112456773E+01  0.72461642684E+02  0.70000094301E+02 0.  0.
        -12    1    1    2    0    0 -0.12425475520E+02  0.13453110186E+02 -0.39112456773E+01  0.18726357316E+02  0.00000000000E+00 0.  1.
         11    1    3    3    0    0 -0.11414670423E+02 -0.28524038466E+02  0.40570088964E+01  0.30989914371E+02  0.51100000000E-03 0. -1.
        -11    1    3    3    0    0  0.21563357323E+02  0.61785891722E-01  0.94170044391E+01  0.23530026974E+02  0.51100000000E-03 0.  1.
         12    1    3    3    0    0  0.22767886200E+01  0.15009142388E+02 -0.95627676582E+01  0.17941701339E+02  0.00000000000E+00 0. -1.
</event>
<event>
 7    1  0.2656097E-013  0.7246162E+02  0.7816164E-02  0.1226708E+00
        -11   -1    0    0    0    0  0.00000000000E+00  0.00000000000E+00  0.45593999997E+02  0.45594000000E+02  0.51100000000E-03 0. -1.
         11   -1    0    0    0    0 -0.00000000000E+00 -0.00000000000E+00 -0.45593999997E+02  0.45594000000E+02  0.51100000000E-03 0.  1.
    9900012    2    1    2    0    0  0.15679102489E+02 -0.77329422376E+01  0.67115227766E+01  0.72461623189E+02  0.70000068905E+02 0.  0.
        -12    1    1    2    0    0 -0.15679102489E+02  0.77329422376E+01 -0.67115227766E+01  0.18726376811E+02  0.00000000000E+00 0.  1.
         11    1    3    3    0    0 -0.78593662538E+01  0.59180695027E+01 -0.38576073864E+01  0.10567607088E+02  0.51100000000E-03 0. -1.
        -11    1    3    3    0    0 -0.14681139387E+02 -0.23021949500E+01 -0.91121831991E+01  0.17431805363E+02  0.51100000000E-03 0.  1.
         12    1    3    3    0    0  0.38219608129E+02 -0.11348816790E+02  0.19681313362E+02  0.44462210738E+02  0.00000000000E+00 0. -1.
</event>
<event>
 7    1  0.2656097E-013  0.7246157E+02  0.7816164E-02  0.1226708E+00
        -11   -1    0    0    0    0  0.00000000000E+00  0.00000000000E+00  0.45593999997E+02  0.45594000000E+02  0.51100000000E-03 0.  1.
         11   -1    0    0    0    0 -0.00000000000E+00 -0.00000000000E+00 -0.45593999997E+02  0.45594000000E+02  0.51100000000E-03 0. -1.
    9900012    2    1    2    0    0  0.71021013479E+01 -0.75612841700E+01 -0.15590587055E+02  0.72461567703E+02  0.69999996625E+02 0.  0.
        -12    1    1    2    0    0 -0.71021013479E+01  0.75612841700E+01  0.15590587055E+02  0.18726432297E+02  0.00000000000E+00 0.  1.
         11    1    3    3    0    0 -0.10404100304E+02 -0.65419936125E+01  0.89776757235E+00  0.12322701426E+02  0.51100000000E-03 0. -1.
        -11    1    3    3    0    0  0.23136678688E+02 -0.14570308927E+02  0.10604951987E+02  0.29326861575E+02  0.51100000000E-03 0.  1.
         12    1    3    3    0    0 -0.56304770357E+01  0.13551018369E+02 -0.27093306614E+02  0.30812004702E+02  0.00000000000E+00 0. -1.
</event>
<event>
 7    1  0.2656097E-013  0.7246158E+02  0.7816164E-02  0.1226708E+00
        -11   -1    0    0    0    0  0.00000000000E+00  0.00000000000E+00  0.45593999997E+02  0.45594000000E+02  0.51100000000E-03 0.  1.
         11   -1    0    0    0    0 -0.00000000000E+00 -0.00000000000E+00 -0.45593999997E+02  0.45594000000E+02  0.51100000000E-03 0. -1.
    9900012    2    1    2    0    0 -0.13291423849E+02  0.12286680666E+02 -0.48014920954E+01  0.72461580266E+02  0.70000012989E+02 0.  0.
        -12    1    1    2    0    0  0.13291423849E+02 -0.12286680666E+02  0.48014920954E+01  0.18726419734E+02  0.00000000000E+00 0.  1.
         11    1    3    3    0    0 -0.53868726473E+01  0.34300182079E+02 -0.44880458278E+00  0.34723512400E+02  0.51100000000E-03 0. -1.
        -11    1    3    3    0    0 -0.51926378229E+01 -0.11036202407E+02 -0.16903825795E+02  0.20844677448E+02  0.51100000000E-03 0.  1.
        -12    1    3    3    0    0 -0.27119133785E+01 -0.10977299005E+02  0.12551138282E+02  0.16893390418E+02  0.00000000000E+00 0.  1.
</event>
<event>
 7    1  0.2656097E-013  0.7246155E+02  0.7816164E-02  0.1226708E+00
        -11   -1    0    0    0    0  0.00000000000E+00  0.00000000000E+00  0.45593999997E+02  0.45594000000E+02  0.51100000000E-03 0.  1.
         11   -1    0    0    0    0 -0.00000000000E+00 -0.00000000000E+00 -0.45593999997E+02  0.45594000000E+02  0.51100000000E-03 0. -1.
    9900012    2    1    2    0    0  0.90116289488E+01 -0.16241264507E+01 -0.16335014531E+02  0.72461549648E+02  0.69999973105E+02 0.  0.
        -12    1    1    2    0    0 -0.90116289488E+01  0.16241264507E+01  0.16335014531E+02  0.18726450352E+02  0.00000000000E+00 0.  1.
         11    1    3    3    0    0 -0.14242398606E+02  0.33013245385E+01  0.77319797906E+01  0.16538687176E+02  0.51100000000E-03 0. -1.
        -11    1    3    3    0    0  0.85421145349E+01 -0.22807421313E+02 -0.21746954749E+02  0.32650822789E+02  0.51100000000E-03 0.  1.
         12    1    3    3    0    0  0.14711913020E+02  0.17881970324E+02 -0.23200395727E+01  0.23272039683E+02  0.00000000000E+00 0. -1.
</event>
<event>
 7    1  0.2656097E-013  0.7246157E+02  0.7816164E-02  0.1226708E+00
        -11   -1    0    0    0    0  0.00000000000E+00  0.00000000000E+00  0.45593999997E+02  0.45594000000E+02  0.51100000000E-03 0.  1.
         11   -1    0    0    0    0 -0.00000000000E+00 -0.00000000000E+00 -0.45593999997E+02  0.45594000000E+02  0.51100000000E-03 0. -1.
    9900012    2    1    2    0    0  0.51421456367E+01  0.99552610406E+01 -0.15004337869E+02  0.72461573779E+02  0.70000004539E+02 0.  0.
        -12    1    1    2    0    0 -0.51421456367E+01 -0.99552610406E+01  0.15004337869E+02  0.18726426221E+02  0.00000000000E+00 0.  1.
         11    1    3    3    0    0 -0.25577797009E+02  0.99853741351E+01 -0.10493546926E+02  0.29394658083E+02  0.51100000000E-03 0. -1.
        -11    1    3    3    0    0  0.82211000178E+01  0.84772154362E+00 -0.15836183858E+02  0.17863085869E+02  0.51100000000E-03 0.  1.
        -12    1    3    3    0    0  0.22498842628E+02 -0.87783463816E+00  0.11325392915E+02  0.25203829827E+02  0.00000000000E+00 0.  1.
</event>
<event>
 7    1  0.2656097E-013  0.7246147E+02  0.7816164E-02  0.1226708E+00
        -11   -1    0    0    0    0  0.00000000000E+00  0.00000000000E+00  0.45593999997E+02  0.45594000000E+02  0.51100000000E-03 0. -1.
         11   -1    0    0    0    0 -0.00000000000E+00 -0.00000000000E+00 -0.45593999997E+02  0.45594000000E+02  0.51100000000E-03 0.  1.
    9900012    2    1    2    0    0 -0.15555221967E+02 -0.84608706057E+01  0.60935764769E+01  0.72461469725E+02  0.69999868990E+02 0.  0.
        -12    1    1    2    0    0  0.15555221967E+02  0.84608706057E+01 -0.60935764769E+01  0.18726530275E+02  0.00000000000E+00 0.  1.
         11    1    3    3    0    0 -0.38206294156E+01  0.95690584719E+01 -0.10428119458E+01  0.10356232239E+02  0.51100000000E-03 0. -1.
        -11    1    3    3    0    0  0.21598801964E+02 -0.19416271263E+01 -0.65335360815E+01  0.22648736304E+02  0.51100000000E-03 0.  1.
         12    1    3    3    0    0 -0.33333394516E+02 -0.16088301951E+02  0.13669924504E+02  0.39456501182E+02  0.00000000000E+00 0. -1.
</event>
<event>
 7    1  0.2656097E-013  0.7246155E+02  0.7816164E-02  0.1226708E+00
        -11   -1    0    0    0    0  0.00000000000E+00  0.00000000000E+00  0.45593999997E+02  0.45594000000E+02  0.51100000000E-03 0.  1.
         11   -1    0    0    0    0 -0.00000000000E+00 -0.00000000000E+00 -0.45593999997E+02  0.45594000000E+02  0.51100000000E-03 0. -1.
    9900012    2    1    2    0    0  0.15453669077E+02  0.83910117239E+01 -0.64385532242E+01  0.72461549901E+02  0.69999973434E+02 0.  0.
        -12    1    1    2    0    0 -0.15453669077E+02 -0.83910117239E+01  0.64385532242E+01  0.18726450099E+02  0.00000000000E+00 0.  1.
         11    1    3    3    0    0  0.44180443206E+01  0.97279385878E+01  0.14964656904E+02  0.18387301632E+02  0.51100000000E-03 0.  1.
        -11    1    3    3    0    0  0.12993484484E+01 -0.96880620254E+01 -0.34430908070E+02  0.35791539266E+02  0.51100000000E-03 0. -1.
         12    1    3    3    0    0  0.97362763081E+01  0.83511351614E+01  0.13027697942E+02  0.18282709004E+02  0.00000000000E+00 0. -1.
</event>
<event>
 7    1  0.2656097E-013  0.7246156E+02  0.7816164E-02  0.1226708E+00
        -11   -1    0    0    0    0  0.00000000000E+00  0.00000000000E+00  0.45593999997E+02  0.45594000000E+02  0.51100000000E-03 0. -1.
         11   -1    0    0    0    0 -0.00000000000E+00 -0.00000000000E+00 -0.45593999997E+02  0.45594000000E+02  0.51100000000E-03 0.  1.
    9900012    2    1    2    0    0 -0.18447794405E+02  0.26154323896E+01  0.18755999425E+01  0.72461562001E+02  0.69999989196E+02 0.  0.
        -12    1    1    2    0    0  0.18447794405E+02 -0.26154323896E+01 -0.18755999425E+01  0.18726437999E+02  0.00000000000E+00 0.  1.
         11    1    3    3    0    0 -0.17155714208E+02  0.18616984410E+02 -0.12592922537E+02  0.28275295521E+02  0.51100000000E-03 0. -1.
        -11    1    3    3    0    0 -0.16898437899E+02 -0.89686017960E+01 -0.34119750639E+01  0.19432822639E+02  0.51100000000E-03 0.  1.
         12    1    3    3    0    0  0.15606357702E+02 -0.70329502249E+01  0.17880497543E+02  0.24753443841E+02  0.00000000000E+00 0. -1.
</event>
<event>
 7    1  0.2656097E-013  0.7246152E+02  0.7816164E-02  0.1226708E+00
        -11   -1    0    0    0    0  0.00000000000E+00  0.00000000000E+00  0.45593999997E+02  0.45594000000E+02  0.51100000000E-03 0. -1.
         11   -1    0    0    0    0 -0.00000000000E+00 -0.00000000000E+00 -0.45593999997E+02  0.45594000000E+02  0.51100000000E-03 0.  1.
    9900012    2    1    2    0    0 -0.79288478192E+01  0.93348882536E+01  0.14165950316E+02  0.72461523695E+02  0.69999939295E+02 0.  0.
        -12    1    1    2    0    0  0.79288478192E+01 -0.93348882536E+01 -0.14165950316E+02  0.18726476305E+02  0.00000000000E+00 0.  1.
         11    1    3    3    0    0  0.41212377712E+01  0.95928039023E+01  0.88178716341E+01  0.13666065560E+02  0.51100000000E-03 0. -1.
        -11    1    3    3    0    0  0.14149902500E+02  0.20391722971E+02  0.55604455928E+01  0.25435421403E+02  0.51100000000E-03 0.  1.
        -12    1    3    3    0    0 -0.26199988091E+02 -0.20649638619E+02 -0.21236691059E+00  0.33360036732E+02  0.00000000000E+00 0.  1.
</event>
<event>
 7    1  0.2656097E-013  0.7246125E+02  0.7816164E-02  0.1226709E+00
        -11   -1    0    0    0    0  0.00000000000E+00  0.00000000000E+00  0.45593999997E+02  0.45594000000E+02  0.51100000000E-03 0.  1.
         11   -1    0    0    0    0 -0.00000000000E+00 -0.00000000000E+00 -0.45593999997E+02  0.45594000000E+02  0.51100000000E-03 0. -1.
    9900012    2    1    2    0    0 -0.32420564703E+01  0.18013300146E+02 -0.39624581617E+01  0.72461254768E+02  0.69999588967E+02 0.  0.
        -12    1    1    2    0    0  0.32420564703E+01 -0.18013300146E+02  0.39624581617E+01  0.18726745232E+02  0.00000000000E+00 0.  1.
         11    1    3    3    0    0  0.13662857110E+02 -0.44058546634E+01 -0.18549162333E+02  0.23455418206E+02  0.51100000000E-03 0. -1.
        -11    1    3    3    0    0  0.24352985588E+01 -0.51813376092E+01 -0.69543244029E+01  0.90077503658E+01  0.51100000000E-03 0.  1.
         12    1    3    3    0    0 -0.19340212139E+02  0.27600492418E+02  0.21541028574E+02  0.39998086196E+02  0.00000000000E+00 0. -1.
</event>
<event>
 7    1  0.2656097E-013  0.7246156E+02  0.7816164E-02  0.1226708E+00
        -11   -1    0    0    0    0  0.00000000000E+00  0.00000000000E+00  0.45593999997E+02  0.45594000000E+02  0.51100000000E-03 0. -1.
         11   -1    0    0    0    0 -0.00000000000E+00 -0.00000000000E+00 -0.45593999997E+02  0.45594000000E+02  0.51100000000E-03 0.  1.
    9900012    2    1    2    0    0 -0.16016179576E+02 -0.88981075928E+01 -0.38710707946E+01  0.72461561043E+02  0.69999987948E+02 0.  0.
        -12    1    1    2    0    0  0.16016179576E+02  0.88981075928E+01  0.38710707946E+01  0.18726438957E+02  0.00000000000E+00 0.  1.
         11    1    3    3    0    0  0.11035678474E+02  0.10699119684E+01  0.15153629494E+02  0.18776671646E+02  0.51100000000E-03 0. -1.
        -11    1    3    3    0    0 -0.21008350427E+02 -0.12980788949E+01  0.96275020362E+01  0.23145725138E+02  0.51100000000E-03 0.  1.
        -12    1    3    3    0    0 -0.60435076232E+01 -0.86699406663E+01 -0.28652202324E+02  0.30539164258E+02  0.00000000000E+00 0.  1.
</event>
<event>
 7    1  0.2656097E-013  0.7246158E+02  0.7816164E-02  0.1226708E+00
        -11   -1    0    0    0    0  0.00000000000E+00  0.00000000000E+00  0.45593999997E+02  0.45594000000E+02  0.51100000000E-03 0. -1.
         11   -1    0    0    0    0 -0.00000000000E+00 -0.00000000000E+00 -0.45593999997E+02  0.45594000000E+02  0.51100000000E-03 0.  1.
    9900012    2    1    2    0    0 -0.11819675987E+02  0.35925086256E+01 -0.14073662216E+02  0.72461579444E+02  0.70000011919E+02 0.  0.
        -12    1    1    2    0    0  0.11819675987E+02 -0.35925086256E+01  0.14073662216E+02  0.18726420556E+02  0.00000000000E+00 0.  1.
         11    1    3    3    0    0  0.71188400363E+01  0.20988401752E+02  0.11078106121E+02  0.24777314767E+02  0.51100000000E-03 0. -1.
        -11    1    3    3    0    0 -0.11053351229E+02  0.45982779896E+01  0.16982626269E+01  0.12091518931E+02  0.51100000000E-03 0.  1.
        -12    1    3    3    0    0 -0.78851647949E+01 -0.21994171116E+02 -0.26850030964E+02  0.35592745745E+02  0.00000000000E+00 0.  1.
</event>
<event>
 7    1  0.2656097E-013  0.7246162E+02  0.7816164E-02  0.1226708E+00
        -11   -1    0    0    0    0  0.00000000000E+00  0.00000000000E+00  0.45593999997E+02  0.45594000000E+02  0.51100000000E-03 0. -1.
         11   -1    0    0    0    0 -0.00000000000E+00 -0.00000000000E+00 -0.45593999997E+02  0.45594000000E+02  0.51100000000E-03 0.  1.
    9900012    2    1    2    0    0 -0.82429911263E+01  0.58771748482E+01  0.15754018999E+02  0.72461622840E+02  0.70000068451E+02 0.  0.
        -12    1    1    2    0    0  0.82429911263E+01 -0.58771748482E+01 -0.15754018999E+02  0.18726377160E+02  0.00000000000E+00 0.  1.
         11    1    3    3    0    0 -0.12436644301E+02  0.24749905624E+01  0.27382049833E+02  0.30175691427E+02  0.51100000000E-03 0. -1.
        -11    1    3    3    0    0  0.16221108830E+02  0.13413267305E+02 -0.15530580122E+02  0.26157963045E+02  0.51100000000E-03 0.  1.
         12    1    3    3    0    0 -0.12027455655E+02 -0.10011083019E+02  0.39025492881E+01  0.16127968369E+02  0.00000000000E+00 0. -1.
</event>
<event>
 7    1  0.2656097E-013  0.7246158E+02  0.7816164E-02  0.1226708E+00
        -11   -1    0    0    0    0  0.00000000000E+00  0.00000000000E+00  0.45593999997E+02  0.45594000000E+02  0.51100000000E-03 0.  1.
         11   -1    0    0    0    0 -0.00000000000E+00 -0.00000000000E+00 -0.45593999997E+02  0.45594000000E+02  0.51100000000E-03 0. -1.
    9900012    2    1    2    0    0  0.21605823354E+01 -0.21900317051E+01 -0.18471994071E+02  0.72461576960E+02  0.70000008683E+02 0.  0.
        -12    1    1    2    0    0 -0.21605823354E+01  0.21900317051E+01  0.18471994071E+02  0.18726423040E+02  0.00000000000E+00 0.  1.
         11    1    3    3    0    0  0.64484169192E+01  0.24173931156E+02 -0.65656520115E+01  0.25866364547E+02  0.51100000000E-03 0. -1.
        -11    1    3    3    0    0  0.11039810659E+02 -0.10028628577E+02  0.77367946089E+01  0.16802047542E+02  0.51100000000E-03 0.  1.
        -12    1    3    3    0    0 -0.15327645243E+02 -0.16335334284E+02 -0.19643136669E+02  0.29793164871E+02  0.00000000000E+00 0.  1.
</event>
<event>
 7    1  0.2656097E-013  0.7246154E+02  0.7816164E-02  0.1226708E+00
        -11   -1    0    0    0    0  0.00000000000E+00  0.00000000000E+00  0.45593999997E+02  0.45594000000E+02  0.51100000000E-03 0. -1.
         11   -1    0    0    0    0 -0.00000000000E+00 -0.00000000000E+00 -0.45593999997E+02  0.45594000000E+02  0.51100000000E-03 0.  1.
    9900012    2    1    2    0    0  0.10552599757E+02 -0.96084370274E+01  0.12124387679E+02  0.72461542771E+02  0.69999964146E+02 0.  0.
        -12    1    1    2    0    0 -0.10552599757E+02  0.96084370274E+01 -0.12124387679E+02  0.18726457229E+02  0.00000000000E+00 0.  1.
         11    1    3    3    0    0 -0.75268016339E+01  0.51886564200E+01 -0.28370580835E+01  0.95720320262E+01  0.51100000000E-03 0. -1.
        -11    1    3    3    0    0 -0.14883850254E+02 -0.15264660586E+02 -0.79382972273E+01  0.22749844490E+02  0.51100000000E-03 0.  1.
         12    1    3    3    0    0  0.32963251645E+02  0.46756713823E+00  0.22899742990E+02  0.40139666255E+02  0.00000000000E+00 0. -1.
</event>
<event>
 7    1  0.2656097E-013  0.7246157E+02  0.7816164E-02  0.1226708E+00
        -11   -1    0    0    0    0  0.00000000000E+00  0.00000000000E+00  0.45593999997E+02  0.45594000000E+02  0.51100000000E-03 0.  1.
         11   -1    0    0    0    0 -0.00000000000E+00 -0.00000000000E+00 -0.45593999997E+02  0.45594000000E+02  0.51100000000E-03 0. -1.
    9900012    2    1    2    0    0  0.26890742189E+01 -0.12872744361E+02 -0.13331936469E+02  0.72461569546E+02  0.69999999025E+02 0.  0.
        -12    1    1    2    0    0 -0.26890742189E+01  0.12872744361E+02  0.13331936469E+02  0.18726430454E+02  0.00000000000E+00 0.  1.
         11    1    3    3    0    0 -0.80436774292E+01 -0.18400538846E+02 -0.13942759173E+02  0.24447517461E+02  0.51100000000E-03 0. -1.
        -11    1    3    3    0    0 -0.30533575680E+01 -0.17917276590E+02  0.79576936097E+01  0.19841287274E+02  0.51100000000E-03 0.  1.
         12    1    3    3    0    0  0.13786109216E+02  0.23445071075E+02 -0.73468709061E+01  0.28172764811E+02  0.00000000000E+00 0. -1.
</event>
<event>
 7    1  0.2656097E-013  0.7246149E+02  0.7816164E-02  0.1226708E+00
        -11   -1    0    0    0    0  0.00000000000E+00  0.00000000000E+00  0.45593999997E+02  0.45594000000E+02  0.51100000000E-03 0.  1.
         11   -1    0    0    0    0 -0.00000000000E+00 -0.00000000000E+00 -0.45593999997E+02  0.45594000000E+02  0.51100000000E-03 0. -1.
    9900012    2    1    2    0    0  0.15959708351E+02 -0.95701487867E+01 -0.20933458339E+01  0.72461491110E+02  0.69999896847E+02 0.  0.
        -12    1    1    2    0    0 -0.15959708351E+02  0.95701487867E+01  0.20933458339E+01  0.18726508890E+02  0.00000000000E+00 0.  1.
         11    1    3    3    0    0 -0.15470682955E+02 -0.21075163434E+02 -0.10441700200E+01  0.26164763255E+02  0.51100000000E-03 0. -1.
        -11    1    3    3    0    0  0.13247341745E+02  0.82196598205E+01  0.15138883618E+02  0.21731099106E+02  0.51100000000E-03 0.  1.
        -12    1    3    3    0    0  0.18183049561E+02  0.32853548269E+01 -0.16188059432E+02  0.24565628749E+02  0.00000000000E+00 0.  1.
</event>
<event>
 7    1  0.2656097E-013  0.7246154E+02  0.7816164E-02  0.1226708E+00
        -11   -1    0    0    0    0  0.00000000000E+00  0.00000000000E+00  0.45593999997E+02  0.45594000000E+02  0.51100000000E-03 0. -1.
         11   -1    0    0    0    0 -0.00000000000E+00 -0.00000000000E+00 -0.45593999997E+02  0.45594000000E+02  0.51100000000E-03 0.  1.
    9900012    2    1    2    0    0  0.14588943504E+02  0.63884244344E+01  0.98504322163E+01  0.72461541334E+02  0.69999962274E+02 0.  0.
        -12    1    1    2    0    0 -0.14588943504E+02 -0.63884244344E+01 -0.98504322163E+01  0.18726458666E+02  0.00000000000E+00 0.  1.
         11    1    3    3    0    0  0.25508994983E+02 -0.12396129021E+01  0.11001100937E+02  0.27807727114E+02  0.51100000000E-03 0. -1.
        -11    1    3    3    0    0  0.27153182329E+01  0.32554058292E+01 -0.20302710363E+02  0.20740556129E+02  0.51100000000E-03 0.  1.
        -12    1    3    3    0    0 -0.13635369712E+02  0.43726315073E+01  0.19152041642E+02  0.23913258091E+02  0.00000000000E+00 0.  1.
</event>
<event>
 7    1  0.2656097E-013  0.7246172E+02  0.7816164E-02  0.1226708E+00
        -11   -1    0    0    0    0  0.00000000000E+00  0.00000000000E+00  0.45593999997E+02  0.45594000000E+02  0.51100000000E-03 0.  1.
         11   -1    0    0    0    0 -0.00000000000E+00 -0.00000000000E+00 -0.45593999997E+02  0.45594000000E+02  0.51100000000E-03 0. -1.
    9900012    2    1    2    0    0 -0.12978814209E+02  0.11020231482E+02 -0.77960550121E+01  0.72461719164E+02  0.70000193930E+02 0.  0.
        -12    1    1    2    0    0  0.12978814209E+02 -0.11020231482E+02  0.77960550121E+01  0.18726280836E+02  0.00000000000E+00 0.  1.
         11    1    3    3    0    0  0.30446663687E+00 -0.25487527310E+01 -0.30601900840E+02  0.30709366253E+02  0.51100000000E-03 0. -1.
        -11    1    3    3    0    0  0.21251890008E+01 -0.76830277206E+01  0.92422452967E+01  0.12205099001E+02  0.51100000000E-03 0.  1.
        -12    1    3    3    0    0 -0.15408469847E+02  0.21252011934E+02  0.13563600531E+02  0.29547253910E+02  0.00000000000E+00 0.  1.
</event>
<event>
 7    1  0.2656097E-013  0.7246162E+02  0.7816164E-02  0.1226708E+00
        -11   -1    0    0    0    0  0.00000000000E+00  0.00000000000E+00  0.45593999997E+02  0.45594000000E+02  0.51100000000E-03 0.  1.
         11   -1    0    0    0    0 -0.00000000000E+00 -0.00000000000E+00 -0.45593999997E+02  0.45594000000E+02  0.51100000000E-03 0. -1.
    9900012    2    1    2    0    0  0.34406586715E+00  0.12627914490E+02  0.13823706883E+02  0.72461615467E+02  0.70000058845E+02 0.  0.
        -12    1    1    2    0    0 -0.34406586715E+00 -0.12627914490E+02 -0.13823706883E+02  0.18726384533E+02  0.00000000000E+00 0.  1.
         11    1    3    3    0    0  0.13878913798E+02  0.99074608130E+01  0.15591008421E+02  0.23105444636E+02  0.51100000000E-03 0. -1.
        -11    1    3    3    0    0 -0.85376735186E+01 -0.16339073912E+02 -0.16510058096E+02  0.24747509450E+02  0.51100000000E-03 0.  1.
         12    1    3    3    0    0 -0.49971744123E+01  0.19059527589E+02  0.14742756558E+02  0.24608661381E+02  0.00000000000E+00 0. -1.
</event>
<event>
 7    1  0.2656097E-013  0.7246157E+02  0.7816164E-02  0.1226708E+00
        -11   -1    0    0    0    0  0.00000000000E+00  0.00000000000E+00  0.45593999997E+02  0.45594000000E+02  0.51100000000E-03 0. -1.
         11   -1    0    0    0    0 -0.00000000000E+00 -0.00000000000E+00 -0.45593999997E+02  0.45594000000E+02  0.51100000000E-03 0.  1.
    9900012    2    1    2    0    0  0.63049640443E+01 -0.93579089173E+01  0.14945100318E+02  0.72461573368E+02  0.70000004004E+02 0.  0.
        -12    1    1    2    0    0 -0.63049640443E+01  0.93579089173E+01 -0.14945100318E+02  0.18726426632E+02  0.00000000000E+00 0.  1.
         11    1    3    3    0    0 -0.72530652680E+01  0.35243285759E+01  0.15972418639E+02  0.17892624322E+02  0.51100000000E-03 0. -1.
        -11    1    3    3    0    0 -0.17741919212E+02  0.35716575401E+01 -0.55259491994E+01  0.18922699324E+02  0.51100000000E-03 0.  1.
        -12    1    3    3    0    0  0.31299948524E+02 -0.16453895033E+02  0.44986308778E+01  0.35646249721E+02  0.00000000000E+00 0.  1.
</event>
<event>
 7    1  0.2656097E-013  0.7246159E+02  0.7816164E-02  0.1226708E+00
        -11   -1    0    0    0    0  0.00000000000E+00  0.00000000000E+00  0.45593999997E+02  0.45594000000E+02  0.51100000000E-03 0.  1.
         11   -1    0    0    0    0 -0.00000000000E+00 -0.00000000000E+00 -0.45593999997E+02  0.45594000000E+02  0.51100000000E-03 0. -1.
    9900012    2    1    2    0    0  0.38107981712E+01  0.97768442550E+01 -0.15510308615E+02  0.72461587112E+02  0.70000021909E+02 0.  0.
        -12    1    1    2    0    0 -0.38107981712E+01 -0.97768442550E+01  0.15510308615E+02  0.18726412888E+02  0.00000000000E+00 0.  1.
         11    1    3    3    0    0  0.10456144012E+02  0.17804867686E+02 -0.19872432912E+02  0.28657596742E+02  0.51100000000E-03 0. -1.
        -11    1    3    3    0    0  0.95316380648E+01  0.13346124308E+02  0.44678234504E+01  0.16998017676E+02  0.51100000000E-03 0.  1.
        -12    1    3    3    0    0 -0.16176983905E+02 -0.21374147739E+02 -0.10569915351E+00  0.26805972695E+02  0.00000000000E+00 0.  1.
</event>
<event>
 7    1  0.2656097E-013  0.7246156E+02  0.7816164E-02  0.1226708E+00
        -11   -1    0    0    0    0  0.00000000000E+00  0.00000000000E+00  0.45593999997E+02  0.45594000000E+02  0.51100000000E-03 0. -1.
         11   -1    0    0    0    0 -0.00000000000E+00 -0.00000000000E+00 -0.45593999997E+02  0.45594000000E+02  0.51100000000E-03 0.  1.
    9900012    2    1    2    0    0 -0.10161502842E+02 -0.61830570151E+01  0.14463516723E+02  0.72461557464E+02  0.69999983286E+02 0.  0.
        -12    1    1    2    0    0  0.10161502842E+02  0.61830570151E+01 -0.14463516723E+02  0.18726442536E+02  0.00000000000E+00 0.  1.
         11    1    3    3    0    0  0.42234431284E+01  0.55764689649E+01 -0.68863993549E+01  0.98161588369E+01  0.51100000000E-03 0. -1.
        -11    1    3    3    0    0  0.48921398127E+01 -0.17704035127E+02 -0.13212915412E+02  0.22626246389E+02  0.51100000000E-03 0.  1.
         12    1    3    3    0    0 -0.19277085783E+02  0.59445091469E+01  0.34562831490E+02  0.40019152238E+02  0.00000000000E+00 0. -1.
</event>
<event>
 7    1  0.2656097E-013  0.7246181E+02  0.7816164E-02  0.1226707E+00
        -11   -1    0    0    0    0  0.00000000000E+00  0.00000000000E+00  0.45593999997E+02  0.45594000000E+02  0.51100000000E-03 0. -1.
         11   -1    0    0    0    0 -0.00000000000E+00 -0.00000000000E+00 -0.45593999997E+02  0.45594000000E+02  0.51100000000E-03 0.  1.
    9900012    2    1    2    0    0 -0.43695598065E+01 -0.59938126685E-01  0.18209160789E+02  0.72461810261E+02  0.70000312601E+02 0.  0.
        -12    1    1    2    0    0  0.43695598065E+01  0.59938126685E-01 -0.18209160789E+02  0.18726189739E+02  0.00000000000E+00 0.  1.
         11    1    3    3    0    0  0.24456570579E+01 -0.48519323936E+01 -0.34364163550E+01  0.64289535714E+01  0.51100000000E-03 0. -1.
        -11    1    3    3    0    0  0.16815055619E+02 -0.20740421593E+02  0.14964133958E+02  0.30607784773E+02  0.51100000000E-03 0.  1.
         12    1    3    3    0    0 -0.23630272483E+02  0.25532415860E+02  0.66814431867E+01  0.35425071917E+02  0.00000000000E+00 0. -1.
</event>
<event>
 7    1  0.2656097E-013  0.7246165E+02  0.7816164E-02  0.1226708E+00
        -11   -1    0    0    0    0  0.00000000000E+00  0.00000000000E+00  0.45593999997E+02  0.45594000000E+02  0.51100000000E-03 0. -1.
         11   -1    0    0    0    0 -0.00000000000E+00 -0.00000000000E+00 -0.45593999997E+02  0.45594000000E+02  0.51100000000E-03 0.  1.
    9900012    2    1    2    0    0 -0.38968220588E+01 -0.46354276419E+01  0.17720148259E+02  0.72461653162E+02  0.70000107950E+02 0.  0.
        -12    1    1    2    0    0  0.38968220588E+01  0.46354276419E+01 -0.17720148259E+02  0.18726346838E+02  0.00000000000E+00 0.  1.
         11    1    3    3    0    0  0.48843304062E+01  0.15272112030E+02 -0.95024113499E+00  0.16062286508E+02  0.51100000000E-03 0. -1.
        -11    1    3    3    0    0 -0.17064327767E+02  0.10265997199E+02 -0.93562756175E-01  0.19914585983E+02  0.51100000000E-03 0.  1.
        -12    1    3    3    0    0  0.82831753016E+01 -0.30173536871E+02  0.18763952150E+02  0.36484780672E+02  0.00000000000E+00 0.  1.
</event>
<event>
 7    1  0.2656097E-013  0.7246166E+02  0.7816164E-02  0.1226708E+00
        -11   -1    0    0    0    0  0.00000000000E+00  0.00000000000E+00  0.45593999997E+02  0.45594000000E+02  0.51100000000E-03 0.  1.
         11   -1    0    0    0    0 -0.00000000000E+00 -0.00000000000E+00 -0.45593999997E+02  0.45594000000E+02  0.51100000000E-03 0. -1.
    9900012    2    1    2    0    0 -0.84834158383E+00 -0.54361231542E+01 -0.17899853076E+02  0.72461658698E+02  0.70000115163E+02 0.  0.
        -12    1    1    2    0    0  0.84834158383E+00  0.54361231542E+01  0.17899853076E+02  0.18726341302E+02  0.00000000000E+00 0.  1.
         11    1    3    3    0    0 -0.10601402770E+02 -0.75427125747E+01 -0.76570863319E+01  0.15096795191E+02  0.51100000000E-03 0. -1.
        -11    1    3    3    0    0 -0.13840583644E+02 -0.98330667539E+01 -0.22526698601E+02  0.28208209931E+02  0.51100000000E-03 0.  1.
        -12    1    3    3    0    0  0.23593644831E+02  0.11939656174E+02  0.12283931856E+02  0.29156653577E+02  0.00000000000E+00 0.  1.
</event>
<event>
 7    1  0.2656097E-013  0.7246154E+02  0.7816164E-02  0.1226708E+00
        -11   -1    0    0    0    0  0.00000000000E+00  0.00000000000E+00  0.45593999997E+02  0.45594000000E+02  0.51100000000E-03 0. -1.
         11   -1    0    0    0    0 -0.00000000000E+00 -0.00000000000E+00 -0.45593999997E+02  0.45594000000E+02  0.51100000000E-03 0.  1.
    9900012    2    1    2    0    0  0.37721734596E+01 -0.17580381295E+02 -0.52326965492E+01  0.72461542453E+02  0.69999963731E+02 0.  0.
        -12    1    1    2    0    0 -0.37721734596E+01  0.17580381295E+02  0.52326965492E+01  0.18726457547E+02  0.00000000000E+00 0.  1.
         11    1    3    3    0    0 -0.12001779252E+02 -0.31752933374E+02  0.90805988355E+01  0.35138991997E+02  0.51100000000E-03 0. -1.
        -11    1    3    3    0    0 -0.42817580068E+01  0.18418888921E+01  0.50260695612E+01  0.68547342629E+01  0.51100000000E-03 0.  1.
        -12    1    3    3    0    0  0.20055710719E+02  0.12330663187E+02 -0.19339364946E+02  0.30467816193E+02  0.00000000000E+00 0.  1.
</event>
<event>
 7    1  0.2656097E-013  0.7246166E+02  0.7816164E-02  0.1226708E+00
        -11   -1    0    0    0    0  0.00000000000E+00  0.00000000000E+00  0.45593999997E+02  0.45594000000E+02  0.51100000000E-03 0. -1.
         11   -1    0    0    0    0 -0.00000000000E+00 -0.00000000000E+00 -0.45593999997E+02  0.45594000000E+02  0.51100000000E-03 0.  1.
    9900012    2    1    2    0    0 -0.17305250480E+02  0.67967408878E+01  0.22379474577E+01  0.72461660536E+02  0.70000117557E+02 0.  0.
        -12    1    1    2    0    0  0.17305250480E+02 -0.67967408878E+01 -0.22379474577E+01  0.18726339464E+02  0.00000000000E+00 0.  1.
         11    1    3    3    0    0 -0.86006785129E+01 -0.10821781045E+01 -0.48536603158E-01  0.86686294416E+01  0.51100000000E-03 0. -1.
        -11    1    3    3    0    0 -0.23928726038E+02 -0.19247572614E+02  0.89375372766E+01  0.31983316810E+02  0.51100000000E-03 0.  1.
         12    1    3    3    0    0  0.15224154071E+02  0.27126491606E+02 -0.66510532158E+01  0.31809714285E+02  0.00000000000E+00 0. -1.
</event>
<event>
 7    1  0.2656097E-013  0.7246149E+02  0.7816164E-02  0.1226708E+00
        -11   -1    0    0    0    0  0.00000000000E+00  0.00000000000E+00  0.45593999997E+02  0.45594000000E+02  0.51100000000E-03 0. -1.
         11   -1    0    0    0    0 -0.00000000000E+00 -0.00000000000E+00 -0.45593999997E+02  0.45594000000E+02  0.51100000000E-03 0.  1.
    9900012    2    1    2    0    0 -0.13335309878E+02  0.85902082417E+01  0.99528936921E+01  0.72461487777E+02  0.69999892506E+02 0.  0.
        -12    1    1    2    0    0  0.13335309878E+02 -0.85902082417E+01 -0.99528936921E+01  0.18726512223E+02  0.00000000000E+00 0.  1.
         11    1    3    3    0    0  0.72243859945E+01  0.80966672817E+01 -0.86482636043E+01  0.13875886916E+02  0.51100000000E-03 0. -1.
        -11    1    3    3    0    0  0.78512527595E+00 -0.19716274134E+02 -0.55989686270E+01  0.20510883388E+02  0.51100000000E-03 0.  1.
         12    1    3    3    0    0 -0.21344821148E+02  0.20209815094E+02  0.24200125923E+02  0.38074717473E+02  0.00000000000E+00 0. -1.
</event>
<event>
 7    1  0.2656097E-013  0.7246160E+02  0.7816164E-02  0.1226708E+00
        -11   -1    0    0    0    0  0.00000000000E+00  0.00000000000E+00  0.45593999997E+02  0.45594000000E+02  0.51100000000E-03 0.  1.
         11   -1    0    0    0    0 -0.00000000000E+00 -0.00000000000E+00 -0.45593999997E+02  0.45594000000E+02  0.51100000000E-03 0. -1.
    9900012    2    1    2    0    0  0.12195224453E+02  0.51138472351E+01 -0.13259077322E+02  0.72461599800E+02  0.70000038437E+02 0.  0.
        -12    1    1    2    0    0 -0.12195224453E+02 -0.51138472351E+01  0.13259077322E+02  0.18726400200E+02  0.00000000000E+00 0.  1.
         11    1    3    3    0    0  0.39828202926E+01  0.69556894290E+01 -0.17114712927E+02  0.18898620895E+02  0.51100000000E-03 0. -1.
        -11    1    3    3    0    0 -0.45449545790E+01  0.20258982213E+02 -0.11545863105E+02  0.23756892212E+02  0.51100000000E-03 0.  1.
         12    1    3    3    0    0  0.12757358739E+02 -0.22100824407E+02  0.15401498710E+02  0.29806086694E+02  0.00000000000E+00 0. -1.
</event>
<event>
 7    1  0.2656097E-013  0.7246152E+02  0.7816164E-02  0.1226708E+00
        -11   -1    0    0    0    0  0.00000000000E+00  0.00000000000E+00  0.45593999997E+02  0.45594000000E+02  0.51100000000E-03 0.  1.
         11   -1    0    0    0    0 -0.00000000000E+00 -0.00000000000E+00 -0.45593999997E+02  0.45594000000E+02  0.51100000000E-03 0. -1.
    9900012    2    1    2    0    0  0.78151051783E+01  0.23702422989E+01 -0.16851920102E+02  0.72461517986E+02  0.69999931859E+02 0.  0.
        -12    1    1    2    0    0 -0.78151051783E+01 -0.23702422989E+01  0.16851920102E+02  0.18726482014E+02  0.00000000000E+00 0.  1.
         11    1    3    3    0    0  0.20636836455E+02  0.85061932511E+01 -0.17080767165E+02  0.28106706490E+02  0.51100000000E-03 0. -1.
        -11    1    3    3    0    0 -0.82836656341E+00  0.14890483477E+02  0.10312843489E+02  0.18131945027E+02  0.51100000000E-03 0.  1.
         12    1    3    3    0    0 -0.11993364713E+02 -0.21026434429E+02 -0.10083996426E+02  0.26222866470E+02  0.00000000000E+00 0. -1.
</event>
<event>
 7    1  0.2656097E-013  0.7246156E+02  0.7816164E-02  0.1226708E+00
        -11   -1    0    0    0    0  0.00000000000E+00  0.00000000000E+00  0.45593999997E+02  0.45594000000E+02  0.51100000000E-03 0.  1.
         11   -1    0    0    0    0 -0.00000000000E+00 -0.00000000000E+00 -0.45593999997E+02  0.45594000000E+02  0.51100000000E-03 0. -1.
    9900012    2    1    2    0    0  0.11162086877E+02 -0.13626636165E+02 -0.63562770597E+01  0.72461557341E+02  0.69999983125E+02 0.  0.
        -12    1    1    2    0    0 -0.11162086877E+02  0.13626636165E+02  0.63562770597E+01  0.18726442659E+02  0.00000000000E+00 0.  1.
         11    1    3    3    0    0  0.89092929858E+01 -0.12022709796E+02 -0.35493474069E+01  0.15379171617E+02  0.51100000000E-03 0. -1.
        -11    1    3    3    0    0 -0.21036614799E+02 -0.60851349577E+01  0.15745013930E+02  0.26971716548E+02  0.51100000000E-03 0.  1.
         12    1    3    3    0    0  0.23289408690E+02  0.44812085886E+01 -0.18551943582E+02  0.30110669176E+02  0.00000000000E+00 0. -1.
</event>
<event>
 7    1  0.2656097E-013  0.7246145E+02  0.7816164E-02  0.1226708E+00
        -11   -1    0    0    0    0  0.00000000000E+00  0.00000000000E+00  0.45593999997E+02  0.45594000000E+02  0.51100000000E-03 0.  1.
         11   -1    0    0    0    0 -0.00000000000E+00 -0.00000000000E+00 -0.45593999997E+02  0.45594000000E+02  0.51100000000E-03 0. -1.
    9900012    2    1    2    0    0 -0.14211837851E+02  0.86191671602E+01  0.86265512359E+01  0.72461447624E+02  0.69999840199E+02 0.  0.
        -12    1    1    2    0    0  0.14211837851E+02 -0.86191671602E+01 -0.86265512359E+01  0.18726552376E+02  0.00000000000E+00 0.  1.
         11    1    3    3    0    0 -0.11979778436E+02  0.23407276815E+02 -0.20993902066E+02  0.33647579756E+02  0.51100000000E-03 0. -1.
        -11    1    3    3    0    0 -0.48131096223E+00  0.50268658201E+01  0.44407196428E+01  0.67246584614E+01  0.51100000000E-03 0.  1.
         12    1    3    3    0    0 -0.17507484532E+01 -0.19814975475E+02  0.25179733659E+02  0.32089209407E+02  0.00000000000E+00 0. -1.
</event>
<event>
 7    1  0.2656097E-013  0.7246159E+02  0.7816164E-02  0.1226708E+00
        -11   -1    0    0    0    0  0.00000000000E+00  0.00000000000E+00  0.45593999997E+02  0.45594000000E+02  0.51100000000E-03 0. -1.
         11   -1    0    0    0    0 -0.00000000000E+00 -0.00000000000E+00 -0.45593999997E+02  0.45594000000E+02  0.51100000000E-03 0.  1.
    9900012    2    1    2    0    0 -0.17890641974E+02  0.12337137499E+01 -0.53927172286E+01  0.72461587665E+02  0.70000022628E+02 0.  0.
        -12    1    1    2    0    0  0.17890641974E+02 -0.12337137499E+01  0.53927172286E+01  0.18726412335E+02  0.00000000000E+00 0.  1.
         11    1    3    3    0    0  0.18944655625E+02 -0.11459554729E+02 -0.16740004886E+02  0.27756965526E+02  0.51100000000E-03 0. -1.
        -11    1    3    3    0    0  0.18853537464E+01 -0.70078657186E+00  0.16482394145E+01  0.26004526523E+01  0.51100000000E-03 0.  1.
        -12    1    3    3    0    0 -0.38720651346E+02  0.13394055051E+02  0.96990482424E+01  0.42104169487E+02  0.00000000000E+00 0.  1.
</event>
<event>
 7    1  0.2656097E-013  0.7246159E+02  0.7816164E-02  0.1226708E+00
        -11   -1    0    0    0    0  0.00000000000E+00  0.00000000000E+00  0.45593999997E+02  0.45594000000E+02  0.51100000000E-03 0. -1.
         11   -1    0    0    0    0 -0.00000000000E+00 -0.00000000000E+00 -0.45593999997E+02  0.45594000000E+02  0.51100000000E-03 0.  1.
    9900012    2    1    2    0    0  0.31545068926E+00 -0.27389089604E+01  0.18522350857E+02  0.72461585162E+02  0.70000019367E+02 0.  0.
        -12    1    1    2    0    0 -0.31545068926E+00  0.27389089604E+01 -0.18522350857E+02  0.18726414838E+02  0.00000000000E+00 0.  1.
         11    1    3    3    0    0  0.20013604351E+02 -0.22783192861E+02 -0.22847272814E+01  0.30411152808E+02  0.51100000000E-03 0. -1.
        -11    1    3    3    0    0 -0.13197662953E+01 -0.78774385170E+00 -0.43243825279E+01  0.45894016995E+01  0.51100000000E-03 0.  1.
        -12    1    3    3    0    0 -0.18378387367E+02  0.20832027752E+02  0.25131460666E+02  0.37461030655E+02  0.00000000000E+00 0.  1.
</event>
<event>
 7    1  0.2656097E-013  0.7246156E+02  0.7816164E-02  0.1226708E+00
        -11   -1    0    0    0    0  0.00000000000E+00  0.00000000000E+00  0.45593999997E+02  0.45594000000E+02  0.51100000000E-03 0. -1.
         11   -1    0    0    0    0 -0.00000000000E+00 -0.00000000000E+00 -0.45593999997E+02  0.45594000000E+02  0.51100000000E-03 0.  1.
    9900012    2    1    2    0    0  0.54772724731E+01 -0.34986068959E+01  0.17562429907E+02  0.72461555912E+02  0.69999981264E+02 0.  0.
        -12    1    1    2    0    0 -0.54772724731E+01  0.34986068959E+01 -0.17562429907E+02  0.18726444088E+02  0.00000000000E+00 0.  1.
         11    1    3    3    0    0  0.17662359677E+02  0.12350221841E+02  0.44946189279E+01  0.22015642813E+02  0.51100000000E-03 0. -1.
        -11    1    3    3    0    0  0.64203305776E+01  0.12854035349E+02  0.56893673034E+01  0.15453665263E+02  0.51100000000E-03 0.  1.
         12    1    3    3    0    0 -0.18605417782E+02 -0.28702864086E+02  0.73784436756E+01  0.34992247836E+02  0.00000000000E+00 0. -1.
</event>
<event>
 7    1  0.2656097E-013  0.7246158E+02  0.7816164E-02  0.1226708E+00
        -11   -1    0    0    0    0  0.00000000000E+00  0.00000000000E+00  0.45593999997E+02  0.45594000000E+02  0.51100000000E-03 0.  1.
         11   -1    0    0    0    0 -0.00000000000E+00 -0.00000000000E+00 -0.45593999997E+02  0.45594000000E+02  0.51100000000E-03 0. -1.
    9900012    2    1    2    0    0  0.76818278390E+01  0.25807217490E+01 -0.16882187430E+02  0.72461578662E+02  0.70000010900E+02 0.  0.
        -12    1    1    2    0    0 -0.76818278390E+01 -0.25807217490E+01  0.16882187430E+02  0.18726421338E+02  0.00000000000E+00 0.  1.
         11    1    3    3    0    0 -0.71393331263E+01 -0.16207540094E+02 -0.21276903789E+02  0.27683227205E+02  0.51100000000E-03 0. -1.
        -11    1    3    3    0    0 -0.21263614596E+01 -0.96834624804E+01 -0.38476447778E+01  0.10634624077E+02  0.51100000000E-03 0.  1.
        -12    1    3    3    0    0  0.16947522425E+02  0.28471724323E+02  0.82423611364E+01  0.34143727380E+02  0.00000000000E+00 0.  1.
</event>
<event>
 7    1  0.2656097E-013  0.7246152E+02  0.7816164E-02  0.1226708E+00
        -11   -1    0    0    0    0  0.00000000000E+00  0.00000000000E+00  0.45593999997E+02  0.45594000000E+02  0.51100000000E-03 0.  1.
         11   -1    0    0    0    0 -0.00000000000E+00 -0.00000000000E+00 -0.45593999997E+02  0.45594000000E+02  0.51100000000E-03 0. -1.
    9900012    2    1    2    0    0  0.64792700728E+01  0.12198603219E+02 -0.12644928309E+02  0.72461519468E+02  0.69999933790E+02 0.  0.
        -12    1    1    2    0    0 -0.64792700728E+01 -0.12198603219E+02  0.12644928309E+02  0.18726480532E+02  0.00000000000E+00 0.  1.
         11    1    3    3    0    0 -0.39219578442E+01  0.23382353822E+01 -0.12494918161E+02  0.13303085287E+02  0.51100000000E-03 0. -1.
        -11    1    3    3    0    0  0.21962445647E+02 -0.16148604214E+02 -0.10004247392E+02  0.29038102606E+02  0.51100000000E-03 0.  1.
         12    1    3    3    0    0 -0.11561217730E+02  0.26008972050E+02  0.98542372450E+01  0.30120331575E+02  0.00000000000E+00 0. -1.
</event>
<event>
 7    1  0.2656097E-013  0.7246162E+02  0.7816164E-02  0.1226708E+00
        -11   -1    0    0    0    0  0.00000000000E+00  0.00000000000E+00  0.45593999997E+02  0.45594000000E+02  0.51100000000E-03 0. -1.
         11   -1    0    0    0    0 -0.00000000000E+00 -0.00000000000E+00 -0.45593999997E+02  0.45594000000E+02  0.51100000000E-03 0.  1.
    9900012    2    1    2    0    0  0.53666422096E+01 -0.42418098554E+01  0.17432252597E+02  0.72461622078E+02  0.70000067458E+02 0.  0.
        -12    1    1    2    0    0 -0.53666422096E+01  0.42418098554E+01 -0.17432252597E+02  0.18726377922E+02  0.00000000000E+00 0.  1.
         11    1    3    3    0    0 -0.12202401028E+02  0.15751786991E+02  0.23721088189E+02  0.30979144749E+02  0.51100000000E-03 0. -1.
        -11    1    3    3    0    0  0.10790767666E+02 -0.38927101427E+01  0.11715001194E+02  0.16396192006E+02  0.51100000000E-03 0.  1.
        -12    1    3    3    0    0  0.67782755718E+01 -0.16100886703E+02 -0.18003836785E+02  0.25086285324E+02  0.00000000000E+00 0.  1.
</event>
<event>
 7    1  0.2656097E-013  0.7246157E+02  0.7816164E-02  0.1226708E+00
        -11   -1    0    0    0    0  0.00000000000E+00  0.00000000000E+00  0.45593999997E+02  0.45594000000E+02  0.51100000000E-03 0. -1.
         11   -1    0    0    0    0 -0.00000000000E+00 -0.00000000000E+00 -0.45593999997E+02  0.45594000000E+02  0.51100000000E-03 0.  1.
    9900012    2    1    2    0    0  0.17370432420E+02 -0.57221048878E+01 -0.40255069198E+01  0.72461571809E+02  0.70000001974E+02 0.  0.
        -12    1    1    2    0    0 -0.17370432420E+02  0.57221048878E+01  0.40255069198E+01  0.18726428191E+02  0.00000000000E+00 0.  1.
         11    1    3    3    0    0 -0.71024014603E+01 -0.84602847853E+01  0.41271598785E+01  0.11792114911E+02  0.51100000000E-03 0. -1.
        -11    1    3    3    0    0 -0.14028444156E+02 -0.12293694702E+02 -0.66323235866E+00  0.18664727490E+02  0.51100000000E-03 0.  1.
         12    1    3    3    0    0  0.38501278037E+02  0.15031874600E+02 -0.74894344396E+01  0.42004729408E+02  0.00000000000E+00 0. -1.
</event>
<event>
 7    1  0.2656097E-013  0.7246158E+02  0.7816164E-02  0.1226708E+00
        -11   -1    0    0    0    0  0.00000000000E+00  0.00000000000E+00  0.45593999997E+02  0.45594000000E+02  0.51100000000E-03 0.  1.
         11   -1    0    0    0    0 -0.00000000000E+00 -0.00000000000E+00 -0.45593999997E+02  0.45594000000E+02  0.51100000000E-03 0. -1.
    9900012    2    1    2    0    0  0.14344119314E+02 -0.11705362368E+02 -0.28123997180E+01  0.72461578579E+02  0.70000010793E+02 0.  0.
        -12    1    1    2    0    0 -0.14344119314E+02  0.11705362368E+02  0.28123997180E+01  0.18726421421E+02  0.00000000000E+00 0.  1.
         11    1    3    3    0    0  0.11712649109E+02  0.19117888453E+02  0.60333151312E+00  0.22428638327E+02  0.51100000000E-03 0. -1.
        -11    1    3    3    0    0  0.76454457691E+01 -0.10011587600E+02 -0.19528931612E+02  0.23239274891E+02  0.51100000000E-03 0.  1.
        -12    1    3    3    0    0 -0.50139755643E+01 -0.20811663221E+02  0.16113200381E+02  0.26793665361E+02  0.00000000000E+00 0.  1.
</event>
<event>
 7    1  0.2656097E-013  0.7246155E+02  0.7816164E-02  0.1226708E+00
        -11   -1    0    0    0    0  0.00000000000E+00  0.00000000000E+00  0.45593999997E+02  0.45594000000E+02  0.51100000000E-03 0. -1.
         11   -1    0    0    0    0 -0.00000000000E+00 -0.00000000000E+00 -0.45593999997E+02  0.45594000000E+02  0.51100000000E-03 0.  1.
    9900012    2    1    2    0    0 -0.20962948378E+01 -0.22405038872E+00  0.18607393757E+02  0.72461554714E+02  0.69999979704E+02 0.  0.
        -12    1    1    2    0    0  0.20962948378E+01  0.22405038872E+00 -0.18607393757E+02  0.18726445286E+02  0.00000000000E+00 0.  1.
         11    1    3    3    0    0  0.51780606145E+01  0.58286415721E+01  0.70927730646E+01  0.10540057130E+02  0.51100000000E-03 0. -1.
        -11    1    3    3    0    0  0.10181458946E+02  0.23939951655E+02  0.68916134294E+01  0.26912408428E+02  0.51100000000E-03 0.  1.
        -12    1    3    3    0    0 -0.17455814398E+02 -0.29992643615E+02  0.46230072630E+01  0.35009089155E+02  0.00000000000E+00 0.  1.
</event>
<event>
 7    1  0.2656097E-013  0.7246156E+02  0.7816164E-02  0.1226708E+00
        -11   -1    0    0    0    0  0.00000000000E+00  0.00000000000E+00  0.45593999997E+02  0.45594000000E+02  0.51100000000E-03 0. -1.
         11   -1    0    0    0    0 -0.00000000000E+00 -0.00000000000E+00 -0.45593999997E+02  0.45594000000E+02  0.51100000000E-03 0.  1.
    9900012    2    1    2    0    0 -0.13581724344E+02 -0.78006558006E+00  0.12868870587E+02  0.72461559638E+02  0.69999986118E+02 0.  0.
        -12    1    1    2    0    0  0.13581724344E+02  0.78006558006E+00 -0.12868870587E+02  0.18726440362E+02  0.00000000000E+00 0.  1.
         11    1    3    3    0    0 -0.83766054883E+01 -0.20640864167E+02  0.16197486473E+02  0.27542174232E+02  0.51100000000E-03 0. -1.
        -11    1    3    3    0    0  0.90477615227E+01  0.15175652884E+01  0.13437911373E+02  0.16270908251E+02  0.51100000000E-03 0.  1.
        -12    1    3    3    0    0 -0.14252880379E+02  0.18343233299E+02 -0.16766527260E+02  0.28648477155E+02  0.00000000000E+00 0.  1.
</event>
<event>
 7    1  0.2656097E-013  0.7246155E+02  0.7816164E-02  0.1226708E+00
        -11   -1    0    0    0    0  0.00000000000E+00  0.00000000000E+00  0.45593999997E+02  0.45594000000E+02  0.51100000000E-03 0. -1.
         11   -1    0    0    0    0 -0.00000000000E+00 -0.00000000000E+00 -0.45593999997E+02  0.45594000000E+02  0.51100000000E-03 0.  1.
    9900012    2    1    2    0    0  0.33099480401E+01 -0.18205366398E+02 -0.28790077599E+01  0.72461553263E+02  0.69999977814E+02 0.  0.
        -12    1    1    2    0    0 -0.33099480401E+01  0.18205366398E+02  0.28790077599E+01  0.18726446737E+02  0.00000000000E+00 0.  1.
         11    1    3    3    0    0 -0.22730057684E+02 -0.58882652592E+01  0.58016074185E+01  0.24186480500E+02  0.51100000000E-03 0. -1.
        -11    1    3    3    0    0 -0.69763600178E+01  0.64580647488E+01 -0.16879622807E+01  0.96553309793E+01  0.51100000000E-03 0.  1.
        -12    1    3    3    0    0  0.33016365742E+02 -0.18775165888E+02 -0.69926528977E+01  0.38619741784E+02  0.00000000000E+00 0.  1.
</event>
<event>
 7    1  0.2656097E-013  0.7246185E+02  0.7816164E-02  0.1226707E+00
        -11   -1    0    0    0    0  0.00000000000E+00  0.00000000000E+00  0.45593999997E+02  0.45594000000E+02  0.51100000000E-03 0.  1.
         11   -1    0    0    0    0 -0.00000000000E+00 -0.00000000000E+00 -0.45593999997E+02  0.45594000000E+02  0.51100000000E-03 0. -1.
    9900012    2    1    2    0    0 -0.11696157212E+02 -0.14276531057E+02 -0.31700583193E+01  0.72461849774E+02  0.70000364073E+02 0.  0.
        -12    1    1    2    0    0  0.11696157212E+02  0.14276531057E+02  0.31700583193E+01  0.18726150226E+02  0.00000000000E+00 0.  1.
         11    1    3    3    0    0 -0.13013682912E+02 -0.20487773254E+02 -0.16316431541E+00  0.24272029554E+02  0.51100000000E-03 0.  1.
        -11    1    3    3    0    0 -0.13750690099E+02  0.11155502331E+02 -0.18788070674E+02  0.25817015908E+02  0.51100000000E-03 0. -1.
         12    1    3    3    0    0  0.15068215800E+02 -0.49442601347E+01  0.15781176670E+02  0.22372804311E+02  0.00000000000E+00 0. -1.
</event>
<event>
 7    1  0.2656097E-013  0.7246160E+02  0.7816164E-02  0.1226708E+00
        -11   -1    0    0    0    0  0.00000000000E+00  0.00000000000E+00  0.45593999997E+02  0.45594000000E+02  0.51100000000E-03 0. -1.
         11   -1    0    0    0    0 -0.00000000000E+00 -0.00000000000E+00 -0.45593999997E+02  0.45594000000E+02  0.51100000000E-03 0.  1.
    9900012    2    1    2    0    0  0.70354787368E+01  0.67385919789E+01  0.15992857797E+02  0.72461599293E+02  0.70000037776E+02 0.  0.
        -12    1    1    2    0    0 -0.70354787368E+01 -0.67385919789E+01 -0.15992857797E+02  0.18726400707E+02  0.00000000000E+00 0.  1.
         11    1    3    3    0    0 -0.62822406049E+01  0.15054612030E+01 -0.97911437711E-01  0.64608472635E+01  0.51100000000E-03 0. -1.
        -11    1    3    3    0    0  0.24581257206E+02  0.24907292096E+02 -0.46154908426E+01  0.35297509280E+02  0.51100000000E-03 0.  1.
         12    1    3    3    0    0 -0.11263537865E+02 -0.19674161320E+02  0.20706260078E+02  0.30703242749E+02  0.00000000000E+00 0. -1.
</event>
<event>
 7    1  0.2656097E-013  0.7246157E+02  0.7816164E-02  0.1226708E+00
        -11   -1    0    0    0    0  0.00000000000E+00  0.00000000000E+00  0.45593999997E+02  0.45594000000E+02  0.51100000000E-03 0. -1.
         11   -1    0    0    0    0 -0.00000000000E+00 -0.00000000000E+00 -0.45593999997E+02  0.45594000000E+02  0.51100000000E-03 0.  1.
    9900012    2    1    2    0    0 -0.14503644790E+01  0.15283448933E+02  0.10723426820E+02  0.72461568114E+02  0.69999997160E+02 0.  0.
        -12    1    1    2    0    0  0.14503644790E+01 -0.15283448933E+02 -0.10723426820E+02  0.18726431886E+02  0.00000000000E+00 0.  1.
         11    1    3    3    0    0  0.36230235437E+01  0.18868933023E+02  0.13223464931E+02  0.23324299733E+02  0.51100000000E-03 0. -1.
        -11    1    3    3    0    0 -0.30676633472E+01  0.13867123568E+02  0.17486562088E+02  0.22527483845E+02  0.51100000000E-03 0.  1.
        -12    1    3    3    0    0 -0.20057246755E+01 -0.17452607658E+02 -0.19986600199E+02  0.26609784536E+02  0.00000000000E+00 0.  1.
</event>
<event>
 7    1  0.2656097E-013  0.7246155E+02  0.7816164E-02  0.1226708E+00
        -11   -1    0    0    0    0  0.00000000000E+00  0.00000000000E+00  0.45593999997E+02  0.45594000000E+02  0.51100000000E-03 0. -1.
         11   -1    0    0    0    0 -0.00000000000E+00 -0.00000000000E+00 -0.45593999997E+02  0.45594000000E+02  0.51100000000E-03 0.  1.
    9900012    2    1    2    0    0 -0.10606128997E+02 -0.14100219674E+02  0.62748513825E+01  0.72461550069E+02  0.69999973652E+02 0.  0.
        -12    1    1    2    0    0  0.10606128997E+02  0.14100219674E+02 -0.62748513825E+01  0.18726449931E+02  0.00000000000E+00 0.  1.
         11    1    3    3    0    0 -0.10817188674E+02 -0.30582632197E+01  0.20375428226E+02  0.23270638590E+02  0.51100000000E-03 0. -1.
        -11    1    3    3    0    0  0.14882045044E+02  0.63623074468E+01 -0.19948933665E+02  0.25688794743E+02  0.51100000000E-03 0.  1.
         12    1    3    3    0    0 -0.14670985367E+02 -0.17404263901E+02  0.58483568213E+01  0.23502116736E+02  0.00000000000E+00 0. -1.
</event>
<event>
 7    1  0.2656097E-013  0.7246157E+02  0.7816164E-02  0.1226708E+00
        -11   -1    0    0    0    0  0.00000000000E+00  0.00000000000E+00  0.45593999997E+02  0.45594000000E+02  0.51100000000E-03 0.  1.
         11   -1    0    0    0    0 -0.00000000000E+00 -0.00000000000E+00 -0.45593999997E+02  0.45594000000E+02  0.51100000000E-03 0. -1.
    9900012    2    1    2    0    0 -0.62748340981E+01 -0.25079683483E+01 -0.17464695799E+02  0.72461573551E+02  0.70000004242E+02 0.  0.
        -12    1    1    2    0    0  0.62748340981E+01  0.25079683483E+01  0.17464695799E+02  0.18726426449E+02  0.00000000000E+00 0.  1.
         11    1    3    3    0    0  0.34386689658E+01 -0.87817951773E+01 -0.20513101373E+02  0.22577238515E+02  0.51100000000E-03 0. -1.
        -11    1    3    3    0    0 -0.24727133484E+02 -0.78567829499E+01  0.10460852263E+02  0.27974802931E+02  0.51100000000E-03 0.  1.
         12    1    3    3    0    0  0.15013630420E+02  0.14130609779E+02 -0.74124466895E+01  0.21909532105E+02  0.00000000000E+00 0. -1.
</event>
<event>
 7    1  0.2656097E-013  0.7246157E+02  0.7816164E-02  0.1226708E+00
        -11   -1    0    0    0    0  0.00000000000E+00  0.00000000000E+00  0.45593999997E+02  0.45594000000E+02  0.51100000000E-03 0.  1.
         11   -1    0    0    0    0 -0.00000000000E+00 -0.00000000000E+00 -0.45593999997E+02  0.45594000000E+02  0.51100000000E-03 0. -1.
    9900012    2    1    2    0    0  0.10261970563E+02 -0.12743093026E+02  0.91095972453E+01  0.72461568902E+02  0.69999998186E+02 0.  0.
        -12    1    1    2    0    0 -0.10261970563E+02  0.12743093026E+02 -0.91095972453E+01  0.18726431098E+02  0.00000000000E+00 0.  1.
         11    1    3    3    0    0  0.98352974089E+01  0.13672140601E+02  0.21494219752E+02  0.27306812094E+02  0.51100000000E-03 0. -1.
        -11    1    3    3    0    0  0.12725882207E+02 -0.82763189070E+01  0.62218369198E+01  0.16405998522E+02  0.51100000000E-03 0.  1.
         12    1    3    3    0    0 -0.12299209053E+02 -0.18138914720E+02 -0.18606459427E+02  0.28748758285E+02  0.00000000000E+00 0. -1.
</event>
<event>
 7    1  0.2656097E-013  0.7246146E+02  0.7816164E-02  0.1226708E+00
        -11   -1    0    0    0    0  0.00000000000E+00  0.00000000000E+00  0.45593999997E+02  0.45594000000E+02  0.51100000000E-03 0.  1.
         11   -1    0    0    0    0 -0.00000000000E+00 -0.00000000000E+00 -0.45593999997E+02  0.45594000000E+02  0.51100000000E-03 0. -1.
    9900012    2    1    2    0    0 -0.78608719696E+00  0.21571653048E+01 -0.18585262248E+02  0.72461460863E+02  0.69999857445E+02 0.  0.
        -12    1    1    2    0    0  0.78608719696E+00 -0.21571653048E+01  0.18585262248E+02  0.18726539137E+02  0.00000000000E+00 0.  1.
         11    1    3    3    0    0  0.45324353360E+01 -0.10938655642E+02  0.11973809479E+02  0.16839515166E+02  0.51100000000E-03 0. -1.
        -11    1    3    3    0    0  0.89110939527E+01 -0.76731913730E+01  0.43873211996E+01  0.12551256863E+02  0.51100000000E-03 0.  1.
         12    1    3    3    0    0 -0.14229616486E+02  0.20769012320E+02 -0.34946392926E+02  0.43070688834E+02  0.00000000000E+00 0. -1.
</event>
<event>
 7    1  0.2656097E-013  0.7246156E+02  0.7816164E-02  0.1226708E+00
        -11   -1    0    0    0    0  0.00000000000E+00  0.00000000000E+00  0.45593999997E+02  0.45594000000E+02  0.51100000000E-03 0.  1.
         11   -1    0    0    0    0 -0.00000000000E+00 -0.00000000000E+00 -0.45593999997E+02  0.45594000000E+02  0.51100000000E-03 0. -1.
    9900012    2    1    2    0    0 -0.15148893294E+02  0.64958158190E+01 -0.88879069611E+01  0.72461561969E+02  0.69999989155E+02 0.  0.
        -12    1    1    2    0    0  0.15148893294E+02 -0.64958158190E+01  0.88879069611E+01  0.18726438031E+02  0.00000000000E+00 0.  1.
         11    1    3    3    0    0  0.68282899712E+01  0.47052913165E+01 -0.19534492406E+02  0.21221727171E+02  0.51100000000E-03 0. -1.
        -11    1    3    3    0    0  0.82735694135E+01  0.89432241063E+01 -0.83865949576E+01  0.14790814159E+02  0.51100000000E-03 0.  1.
        -12    1    3    3    0    0 -0.30250752679E+02 -0.71526996038E+01  0.19033180403E+02  0.36449020638E+02  0.00000000000E+00 0.  1.
</event>
<event>
 7    1  0.2656097E-013  0.7246155E+02  0.7816164E-02  0.1226708E+00
        -11   -1    0    0    0    0  0.00000000000E+00  0.00000000000E+00  0.45593999997E+02  0.45594000000E+02  0.51100000000E-03 0. -1.
         11   -1    0    0    0    0 -0.00000000000E+00 -0.00000000000E+00 -0.45593999997E+02  0.45594000000E+02  0.51100000000E-03 0.  1.
    9900012    2    1    2    0    0 -0.20404665298E+01  0.98879998352E+01  0.15771613639E+02  0.72461552361E+02  0.69999976639E+02 0.  0.
        -12    1    1    2    0    0  0.20404665298E+01 -0.98879998352E+01 -0.15771613639E+02  0.18726447639E+02  0.00000000000E+00 0.  1.
         11    1    3    3    0    0  0.55955055452E+01  0.19562238827E+02 -0.41788038349E+01  0.20771453295E+02  0.51100000000E-03 0. -1.
        -11    1    3    3    0    0  0.17892052902E+02  0.36918993956E+01  0.11783820891E+02  0.21739689814E+02  0.51100000000E-03 0.  1.
         12    1    3    3    0    0 -0.25528024977E+02 -0.13366138388E+02  0.81665965829E+01  0.29950409252E+02  0.00000000000E+00 0. -1.
</event>
<event>
 7    1  0.2656097E-013  0.7246167E+02  0.7816164E-02  0.1226708E+00
        -11   -1    0    0    0    0  0.00000000000E+00  0.00000000000E+00  0.45593999997E+02  0.45594000000E+02  0.51100000000E-03 0.  1.
         11   -1    0    0    0    0 -0.00000000000E+00 -0.00000000000E+00 -0.45593999997E+02  0.45594000000E+02  0.51100000000E-03 0. -1.
    9900012    2    1    2    0    0 -0.12007827240E+02 -0.13956768174E+02  0.34199808737E+01  0.72461666614E+02  0.70000125475E+02 0.  0.
        -12    1    1    2    0    0  0.12007827240E+02  0.13956768174E+02 -0.34199808737E+01  0.18726333386E+02  0.00000000000E+00 0.  1.
         11    1    3    3    0    0  0.29105659460E+01 -0.78402323926E+01  0.49988949516E+01  0.97431816720E+01  0.51100000000E-03 0. -1.
        -11    1    3    3    0    0  0.18062091653E+02  0.15041085480E+02 -0.11402371549E+01  0.23532393595E+02  0.51100000000E-03 0.  1.
         12    1    3    3    0    0 -0.32980484839E+02 -0.21157621261E+02 -0.43867692301E+00  0.39186091347E+02  0.00000000000E+00 0. -1.
</event>
<event>
 7    1  0.2656097E-013  0.7246166E+02  0.7816164E-02  0.1226708E+00
        -11   -1    0    0    0    0  0.00000000000E+00  0.00000000000E+00  0.45593999997E+02  0.45594000000E+02  0.51100000000E-03 0.  1.
         11   -1    0    0    0    0 -0.00000000000E+00 -0.00000000000E+00 -0.45593999997E+02  0.45594000000E+02  0.51100000000E-03 0. -1.
    9900012    2    1    2    0    0 -0.15243333377E+02  0.93329178374E+01 -0.55868720415E+01  0.72461662745E+02  0.70000120434E+02 0.  0.
        -12    1    1    2    0    0  0.15243333377E+02 -0.93329178374E+01  0.55868720415E+01  0.18726337255E+02  0.00000000000E+00 0.  1.
         11    1    3    3    0    0 -0.69828943970E+01 -0.26697687692E+02 -0.14959142569E+02  0.31389541075E+02  0.51100000000E-03 0. -1.
        -11    1    3    3    0    0  0.35783695510E+01  0.28728242926E+01  0.24070650293E+01  0.51818732497E+01  0.51100000000E-03 0.  1.
        -12    1    3    3    0    0 -0.11838808531E+02  0.33157781237E+02  0.69652054980E+01  0.35890248420E+02  0.00000000000E+00 0.  1.
</event>
<event>
 7    1  0.2656097E-013  0.7246178E+02  0.7816164E-02  0.1226707E+00
        -11   -1    0    0    0    0  0.00000000000E+00  0.00000000000E+00  0.45593999997E+02  0.45594000000E+02  0.51100000000E-03 0.  1.
         11   -1    0    0    0    0 -0.00000000000E+00 -0.00000000000E+00 -0.45593999997E+02  0.45594000000E+02  0.51100000000E-03 0. -1.
    9900012    2    1    2    0    0  0.37891373043E+01 -0.11111892733E+02 -0.14589028489E+02  0.72461775771E+02  0.70000267670E+02 0.  0.
        -12    1    1    2    0    0 -0.37891373043E+01  0.11111892733E+02  0.14589028489E+02  0.18726224229E+02  0.00000000000E+00 0.  1.
         11    1    3    3    0    0  0.13342951795E+02 -0.28004953930E+00 -0.26754183223E+02  0.29898145603E+02  0.51100000000E-03 0. -1.
        -11    1    3    3    0    0  0.23874094919E+01 -0.21801214608E+02  0.14340041647E+02  0.26203615727E+02  0.51100000000E-03 0.  1.
         12    1    3    3    0    0 -0.11941223982E+02  0.10969371414E+02 -0.21748869136E+01  0.16360014440E+02  0.00000000000E+00 0. -1.
</event>
<event>
 7    1  0.2656097E-013  0.7246163E+02  0.7816164E-02  0.1226708E+00
        -11   -1    0    0    0    0  0.00000000000E+00  0.00000000000E+00  0.45593999997E+02  0.45594000000E+02  0.51100000000E-03 0. -1.
         11   -1    0    0    0    0 -0.00000000000E+00 -0.00000000000E+00 -0.45593999997E+02  0.45594000000E+02  0.51100000000E-03 0.  1.
    9900012    2    1    2    0    0  0.13330932658E+01 -0.18302797434E+02  0.37292843147E+01  0.72461625736E+02  0.70000072223E+02 0.  0.
        -12    1    1    2    0    0 -0.13330932658E+01  0.18302797434E+02 -0.37292843147E+01  0.18726374264E+02  0.00000000000E+00 0.  1.
         11    1    3    3    0    0  0.23743810795E+02 -0.26568701825E+01 -0.36818531416E+01  0.24174026414E+02  0.51100000000E-03 0. -1.
        -11    1    3    3    0    0 -0.38902448464E+01  0.33183930663E+01  0.18766153034E+02  0.19450301732E+02  0.51100000000E-03 0.  1.
        -12    1    3    3    0    0 -0.18520472683E+02 -0.18964320318E+02 -0.11355015578E+02  0.28837297590E+02  0.00000000000E+00 0.  1.
</event>
<event>
 7    1  0.2656097E-013  0.7246158E+02  0.7816164E-02  0.1226708E+00
        -11   -1    0    0    0    0  0.00000000000E+00  0.00000000000E+00  0.45593999997E+02  0.45594000000E+02  0.51100000000E-03 0.  1.
         11   -1    0    0    0    0 -0.00000000000E+00 -0.00000000000E+00 -0.45593999997E+02  0.45594000000E+02  0.51100000000E-03 0. -1.
    9900012    2    1    2    0    0 -0.12507375339E+02 -0.13443585603E+02 -0.36761932861E+01  0.72461579392E+02  0.70000011851E+02 0.  0.
        -12    1    1    2    0    0  0.12507375339E+02  0.13443585603E+02  0.36761932861E+01  0.18726420608E+02  0.00000000000E+00 0.  1.
         11    1    3    3    0    0  0.53632308344E+01  0.19287791046E+02  0.23721282500E+01  0.20159616095E+02  0.51100000000E-03 0.  1.
        -11    1    3    3    0    0  0.30765093795E+01 -0.91748908975E+01 -0.16468785717E+02  0.19101424978E+02  0.51100000000E-03 0. -1.
        -12    1    3    3    0    0 -0.20947115553E+02 -0.23556485751E+02  0.10420464180E+02  0.33200538319E+02  0.00000000000E+00 0.  1.
</event>
<event>
 7    1  0.2656097E-013  0.7246158E+02  0.7816164E-02  0.1226708E+00
        -11   -1    0    0    0    0  0.00000000000E+00  0.00000000000E+00  0.45593999997E+02  0.45594000000E+02  0.51100000000E-03 0. -1.
         11   -1    0    0    0    0 -0.00000000000E+00 -0.00000000000E+00 -0.45593999997E+02  0.45594000000E+02  0.51100000000E-03 0.  1.
    9900012    2    1    2    0    0  0.12124103450E+02  0.11829401803E+02  0.79843727205E+01  0.72461579113E+02  0.70000011488E+02 0.  0.
        -12    1    1    2    0    0 -0.12124103450E+02 -0.11829401803E+02 -0.79843727205E+01  0.18726420887E+02  0.00000000000E+00 0.  1.
         11    1    3    3    0    0  0.92203622166E+01  0.11305262067E+02 -0.17240076800E+02  0.22584159894E+02  0.51100000000E-03 0. -1.
        -11    1    3    3    0    0 -0.13330114708E+02 -0.44594956185E+01 -0.52387308283E+01  0.15000778655E+02  0.51100000000E-03 0.  1.
         12    1    3    3    0    0  0.16233855941E+02  0.49836353545E+01  0.30463180349E+02  0.34876640564E+02  0.00000000000E+00 0. -1.
</event>
<event>
 7    1  0.2656097E-013  0.7246156E+02  0.7816164E-02  0.1226708E+00
        -11   -1    0    0    0    0  0.00000000000E+00  0.00000000000E+00  0.45593999997E+02  0.45594000000E+02  0.51100000000E-03 0. -1.
         11   -1    0    0    0    0 -0.00000000000E+00 -0.00000000000E+00 -0.45593999997E+02  0.45594000000E+02  0.51100000000E-03 0.  1.
    9900012    2    1    2    0    0 -0.31221357163E+01  0.17032216888E+02 -0.71299079113E+01  0.72461555320E+02  0.69999980493E+02 0.  0.
        -12    1    1    2    0    0  0.31221357163E+01 -0.17032216888E+02  0.71299079113E+01  0.18726444680E+02  0.00000000000E+00 0.  1.
         11    1    3    3    0    0 -0.34552390691E+01 -0.13115407663E+01  0.15396503966E+02  0.15833860895E+02  0.51100000000E-03 0. -1.
        -11    1    3    3    0    0 -0.23447074641E+02  0.49474867297E+01 -0.15163996799E+02  0.28358239250E+02  0.51100000000E-03 0.  1.
        -12    1    3    3    0    0  0.23780177994E+02  0.13396270924E+02 -0.73624150786E+01  0.28269455175E+02  0.00000000000E+00 0.  1.
</event>
<event>
 7    1  0.2656097E-013  0.7246093E+02  0.7816164E-02  0.1226710E+00
        -11   -1    0    0    0    0  0.00000000000E+00  0.00000000000E+00  0.45593999997E+02  0.45594000000E+02  0.51100000000E-03 0. -1.
         11   -1    0    0    0    0 -0.00000000000E+00 -0.00000000000E+00 -0.45593999997E+02  0.45594000000E+02  0.51100000000E-03 0.  1.
    9900012    2    1    2    0    0  0.55143320741E+01  0.39792112769E+01  0.17448820717E+02  0.72460925348E+02  0.69999159832E+02 0.  0.
        -12    1    1    2    0    0 -0.55143320741E+01 -0.39792112769E+01 -0.17448820717E+02  0.18727074652E+02  0.00000000000E+00 0.  1.
         11    1    3    3    0    0  0.10932736098E+02  0.10796633105E+02  0.21078445093E+02  0.26084341142E+02  0.51100000000E-03 0. -1.
        -11    1    3    3    0    0  0.55915936523E+01  0.17560771018E+02  0.33508042005E+01  0.18731644011E+02  0.51100000000E-03 0.  1.
        -12    1    3    3    0    0 -0.11009997676E+02 -0.24378192846E+02 -0.69804285764E+01  0.27644940195E+02  0.00000000000E+00 0.  1.
</event>
<event>
 7    1  0.2656097E-013  0.7246150E+02  0.7816164E-02  0.1226708E+00
        -11   -1    0    0    0    0  0.00000000000E+00  0.00000000000E+00  0.45593999997E+02  0.45594000000E+02  0.51100000000E-03 0. -1.
         11   -1    0    0    0    0 -0.00000000000E+00 -0.00000000000E+00 -0.45593999997E+02  0.45594000000E+02  0.51100000000E-03 0.  1.
    9900012    2    1    2    0    0 -0.93217112164E+01 -0.16161837068E+02  0.16070465713E+01  0.72461498028E+02  0.69999905860E+02 0.  0.
        -12    1    1    2    0    0  0.93217112164E+01  0.16161837068E+02 -0.16070465713E+01  0.18726501972E+02  0.00000000000E+00 0.  1.
         11    1    3    3    0    0  0.21854241391E+02  0.16764195956E+01  0.44694643007E+01  0.22369496213E+02  0.51100000000E-03 0. -1.
        -11    1    3    3    0    0 -0.19360111467E+01 -0.99470199577E+00  0.12733310839E+02  0.12918002029E+02  0.51100000000E-03 0.  1.
         12    1    3    3    0    0 -0.29239941461E+02 -0.16843554668E+02 -0.15595728569E+02  0.37173999786E+02  0.00000000000E+00 0. -1.
</event>
<event>
 7    1  0.2656097E-013  0.7246165E+02  0.7816164E-02  0.1226708E+00
        -11   -1    0    0    0    0  0.00000000000E+00  0.00000000000E+00  0.45593999997E+02  0.45594000000E+02  0.51100000000E-03 0.  1.
         11   -1    0    0    0    0 -0.00000000000E+00 -0.00000000000E+00 -0.45593999997E+02  0.45594000000E+02  0.51100000000E-03 0. -1.
    9900012    2    1    2    0    0 -0.14373343188E+01  0.64237520629E+01 -0.17531271469E+02  0.72461654926E+02  0.70000110248E+02 0.  0.
        -12    1    1    2    0    0  0.14373343188E+01 -0.64237520629E+01  0.17531271469E+02  0.18726345074E+02  0.00000000000E+00 0.  1.
         11    1    3    3    0    0 -0.74775290096E+01  0.17644219765E+02  0.13477923804E+02  0.23428323917E+02  0.51100000000E-03 0. -1.
        -11    1    3    3    0    0  0.40490403539E+01 -0.10441831522E+02  0.54892595789E+01  0.12472311105E+02  0.51100000000E-03 0.  1.
         12    1    3    3    0    0  0.19911543369E+01 -0.77863618082E+00 -0.36498454852E+02  0.36561019904E+02  0.00000000000E+00 0. -1.
</event>
<event>
 7    1  0.2656097E-013  0.7246156E+02  0.7816164E-02  0.1226708E+00
        -11   -1    0    0    0    0  0.00000000000E+00  0.00000000000E+00  0.45593999997E+02  0.45594000000E+02  0.51100000000E-03 0.  1.
         11   -1    0    0    0    0 -0.00000000000E+00 -0.00000000000E+00 -0.45593999997E+02  0.45594000000E+02  0.51100000000E-03 0. -1.
    9900012    2    1    2    0    0  0.17800661361E+00  0.22237515514E+01 -0.18593081168E+02  0.72461563482E+02  0.69999991126E+02 0.  0.
        -12    1    1    2    0    0 -0.17800661361E+00 -0.22237515514E+01  0.18593081168E+02  0.18726436518E+02  0.00000000000E+00 0.  1.
         11    1    3    3    0    0 -0.52639142177E+01 -0.60258760345E+00  0.24431903062E+01  0.58344737419E+01  0.51100000000E-03 0. -1.
        -11    1    3    3    0    0  0.34296427227E+02  0.18707201365E+01 -0.11640854313E+02  0.36266430811E+02  0.51100000000E-03 0.  1.
         12    1    3    3    0    0 -0.28854506395E+02  0.95561901836E+00 -0.93954171613E+01  0.30360658930E+02  0.00000000000E+00 0. -1.
</event>
<event>
 7    1  0.2656097E-013  0.7246155E+02  0.7816164E-02  0.1226708E+00
        -11   -1    0    0    0    0  0.00000000000E+00  0.00000000000E+00  0.45593999997E+02  0.45594000000E+02  0.51100000000E-03 0.  1.
         11   -1    0    0    0    0 -0.00000000000E+00 -0.00000000000E+00 -0.45593999997E+02  0.45594000000E+02  0.51100000000E-03 0. -1.
    9900012    2    1    2    0    0  0.51326251634E+01 -0.75933577043E+01 -0.16330252088E+02  0.72461546637E+02  0.69999969182E+02 0.  0.
        -12    1    1    2    0    0 -0.51326251634E+01  0.75933577043E+01  0.16330252088E+02  0.18726453363E+02  0.00000000000E+00 0.  1.
         11    1    3    3    0    0  0.95372921476E+01  0.57786902203E+01 -0.92125340784E+01  0.14464576958E+02  0.51100000000E-03 0. -1.
        -11    1    3    3    0    0  0.21991442787E+02 -0.19750964281E+02  0.12375618111E+01  0.29584720809E+02  0.51100000000E-03 0.  1.
         12    1    3    3    0    0 -0.26396109771E+02  0.63789163568E+01 -0.83552798209E+01  0.28412248869E+02  0.00000000000E+00 0. -1.
</event>
<event>
 7    1  0.2656097E-013  0.7246156E+02  0.7816164E-02  0.1226708E+00
        -11   -1    0    0    0    0  0.00000000000E+00  0.00000000000E+00  0.45593999997E+02  0.45594000000E+02  0.51100000000E-03 0. -1.
         11   -1    0    0    0    0 -0.00000000000E+00 -0.00000000000E+00 -0.45593999997E+02  0.45594000000E+02  0.51100000000E-03 0.  1.
    9900012    2    1    2    0    0  0.16886589216E+02  0.44898322383E+01 -0.67352939081E+01  0.72461556854E+02  0.69999982491E+02 0.  0.
        -12    1    1    2    0    0 -0.16886589216E+02 -0.44898322383E+01  0.67352939081E+01  0.18726443146E+02  0.00000000000E+00 0.  1.
         11    1    3    3    0    0  0.25868227008E+02  0.83183802055E+01  0.21816079017E+02  0.34846835175E+02  0.51100000000E-03 0. -1.
        -11    1    3    3    0    0 -0.75880605221E-01 -0.78185856216E+01 -0.41041432702E+00  0.78297176941E+01  0.51100000000E-03 0.  1.
        -12    1    3    3    0    0 -0.89057571865E+01  0.39900376543E+01 -0.28140958598E+02  0.29785003985E+02  0.00000000000E+00 0.  1.
</event>
<event>
 7    1  0.2656097E-013  0.7246158E+02  0.7816164E-02  0.1226708E+00
        -11   -1    0    0    0    0  0.00000000000E+00  0.00000000000E+00  0.45593999997E+02  0.45594000000E+02  0.51100000000E-03 0.  1.
         11   -1    0    0    0    0 -0.00000000000E+00 -0.00000000000E+00 -0.45593999997E+02  0.45594000000E+02  0.51100000000E-03 0. -1.
    9900012    2    1    2    0    0 -0.95544026961E+01 -0.16069091462E+02 -0.10846695728E+01  0.72461579644E+02  0.70000012179E+02 0.  0.
        -12    1    1    2    0    0  0.95544026961E+01  0.16069091462E+02  0.10846695728E+01  0.18726420356E+02  0.00000000000E+00 0.  1.
         11    1    3    3    0    0  0.98416786728E+01 -0.22045816502E+02 -0.18217268311E+02  0.30244760361E+02  0.51100000000E-03 0. -1.
        -11    1    3    3    0    0  0.16684883916E+01 -0.74960867279E+01  0.15331593216E+02  0.17147388156E+02  0.51100000000E-03 0.  1.
        -12    1    3    3    0    0 -0.21064569761E+02  0.13472811768E+02  0.18010055216E+01  0.25069431127E+02  0.00000000000E+00 0.  1.
</event>
<event>
 7    1  0.2656097E-013  0.7246153E+02  0.7816164E-02  0.1226708E+00
        -11   -1    0    0    0    0  0.00000000000E+00  0.00000000000E+00  0.45593999997E+02  0.45594000000E+02  0.51100000000E-03 0. -1.
         11   -1    0    0    0    0 -0.00000000000E+00 -0.00000000000E+00 -0.45593999997E+02  0.45594000000E+02  0.51100000000E-03 0.  1.
    9900012    2    1    2    0    0  0.87467683999E+01 -0.11144823265E+02  0.12246131748E+02  0.72461527138E+02  0.69999943781E+02 0.  0.
        -12    1    1    2    0    0 -0.87467683999E+01  0.11144823265E+02 -0.12246131748E+02  0.18726472862E+02  0.00000000000E+00 0.  1.
         11    1    3    3    0    0 -0.20397172216E+01  0.20500212657E+01  0.60079995048E+01  0.66677651312E+01  0.51100000000E-03 0. -1.
        -11    1    3    3    0    0  0.26870282455E+02 -0.61529677166E+01  0.27011763077E+02  0.38594124368E+02  0.51100000000E-03 0.  1.
         12    1    3    3    0    0 -0.16083796834E+02 -0.70418768141E+01 -0.20773630834E+02  0.27199637639E+02  0.00000000000E+00 0. -1.
</event>
<event>
 7    1  0.2656097E-013  0.7246161E+02  0.7816164E-02  0.1226708E+00
        -11   -1    0    0    0    0  0.00000000000E+00  0.00000000000E+00  0.45593999997E+02  0.45594000000E+02  0.51100000000E-03 0.  1.
         11   -1    0    0    0    0 -0.00000000000E+00 -0.00000000000E+00 -0.45593999997E+02  0.45594000000E+02  0.51100000000E-03 0. -1.
    9900012    2    1    2    0    0  0.39077811940E+01  0.58550744774E+01 -0.17352951532E+02  0.72461612792E+02  0.70000055361E+02 0.  0.
        -12    1    1    2    0    0 -0.39077811940E+01 -0.58550744774E+01  0.17352951532E+02  0.18726387208E+02  0.00000000000E+00 0.  1.
         11    1    3    3    0    0  0.44876933133E+01 -0.23347208518E+02 -0.15099804199E+02  0.28164438996E+02  0.51100000000E-03 0. -1.
        -11    1    3    3    0    0  0.43862418881E+01 -0.62079528807E+01  0.29702332900E+01  0.81608873861E+01  0.51100000000E-03 0.  1.
        -12    1    3    3    0    0 -0.49661540074E+01  0.35410235876E+02 -0.52233806223E+01  0.36136286410E+02  0.00000000000E+00 0.  1.
</event>
<event>
 7    1  0.2656097E-013  0.7246162E+02  0.7816164E-02  0.1226708E+00
        -11   -1    0    0    0    0  0.00000000000E+00  0.00000000000E+00  0.45593999997E+02  0.45594000000E+02  0.51100000000E-03 0.  1.
         11   -1    0    0    0    0 -0.00000000000E+00 -0.00000000000E+00 -0.45593999997E+02  0.45594000000E+02  0.51100000000E-03 0. -1.
    9900012    2    1    2    0    0 -0.16597688647E+01  0.32776926383E+00 -0.18649799799E+02  0.72461620266E+02  0.70000065098E+02 0.  0.
        -12    1    1    2    0    0  0.16597688647E+01 -0.32776926383E+00  0.18649799799E+02  0.18726379734E+02  0.00000000000E+00 0.  1.
         11    1    3    3    0    0 -0.34757053291E+01  0.62407673682E+01 -0.30354350621E+02  0.31183558276E+02  0.51100000000E-03 0. -1.
        -11    1    3    3    0    0  0.13963836432E+02 -0.10458545185E+02 -0.67626335921E+01  0.18711042426E+02  0.51100000000E-03 0.  1.
         12    1    3    3    0    0 -0.12147899968E+02  0.45455470806E+01  0.18467184413E+02  0.22567019565E+02  0.00000000000E+00 0. -1.
</event>
<event>
 7    1  0.2656097E-013  0.7246077E+02  0.7816164E-02  0.1226710E+00
        -11   -1    0    0    0    0  0.00000000000E+00  0.00000000000E+00  0.45593999997E+02  0.45594000000E+02  0.51100000000E-03 0.  1.
         11   -1    0    0    0    0 -0.00000000000E+00 -0.00000000000E+00 -0.45593999997E+02  0.45594000000E+02  0.51100000000E-03 0. -1.
    9900012    2    1    2    0    0 -0.12373570266E+02  0.89742844248E-01 -0.14056877198E+02  0.72460771389E+02  0.69998959270E+02 0.  0.
        -12    1    1    2    0    0  0.12373570266E+02 -0.89742844248E-01  0.14056877198E+02  0.18727228611E+02  0.00000000000E+00 0.  1.
         11    1    3    3    0    0 -0.25294326468E+02  0.11291361230E+01 -0.61097257713E+01  0.26046240595E+02  0.51100000000E-03 0. -1.
        -11    1    3    3    0    0  0.19460125001E+01 -0.42535712131E+01 -0.25246981519E+02  0.25676641307E+02  0.51100000000E-03 0.  1.
         12    1    3    3    0    0  0.10974743702E+02  0.32141779344E+01  0.17299830093E+02  0.20737889487E+02  0.00000000000E+00 0. -1.
</event>
<event>
 7    1  0.2656097E-013  0.7246156E+02  0.7816164E-02  0.1226708E+00
        -11   -1    0    0    0    0  0.00000000000E+00  0.00000000000E+00  0.45593999997E+02  0.45594000000E+02  0.51100000000E-03 0. -1.
         11   -1    0    0    0    0 -0.00000000000E+00 -0.00000000000E+00 -0.45593999997E+02  0.45594000000E+02  0.51100000000E-03 0.  1.
    9900012    2    1    2    0    0 -0.10054896892E+02 -0.15088864928E+02 -0.46802657495E+01  0.72461556563E+02  0.69999982112E+02 0.  0.
        -12    1    1    2    0    0  0.10054896892E+02  0.15088864928E+02  0.46802657495E+01  0.18726443437E+02  0.00000000000E+00 0.  1.
         11    1    3    3    0    0  0.25955131263E+01 -0.13931759313E+02  0.14500140473E+02  0.20275223302E+02  0.51100000000E-03 0. -1.
        -11    1    3    3    0    0  0.14717475326E+02  0.94048405698E+01 -0.14028602902E+02  0.22402160738E+02  0.51100000000E-03 0.  1.
         12    1    3    3    0    0 -0.27367885344E+02 -0.10561946185E+02 -0.51518033213E+01  0.29784172523E+02  0.00000000000E+00 0. -1.
</event>
<event>
 7    1  0.2656097E-013  0.7246158E+02  0.7816164E-02  0.1226708E+00
        -11   -1    0    0    0    0  0.00000000000E+00  0.00000000000E+00  0.45593999997E+02  0.45594000000E+02  0.51100000000E-03 0. -1.
         11   -1    0    0    0    0 -0.00000000000E+00 -0.00000000000E+00 -0.45593999997E+02  0.45594000000E+02  0.51100000000E-03 0.  1.
    9900012    2    1    2    0    0  0.97425275704E+00  0.15661510332E+02 -0.10219919433E+02  0.72461579425E+02  0.70000011895E+02 0.  0.
        -12    1    1    2    0    0 -0.97425275704E+00 -0.15661510332E+02  0.10219919433E+02  0.18726420575E+02  0.00000000000E+00 0.  1.
         11    1    3    3    0    0  0.10959176356E+01 -0.81867874937E+01  0.10769401234E+02  0.13572196879E+02  0.51100000000E-03 0. -1.
        -11    1    3    3    0    0  0.22258294279E+02  0.51582827337E+01 -0.18908208479E+02  0.29657375021E+02  0.51100000000E-03 0.  1.
         12    1    3    3    0    0 -0.22379959157E+02  0.18690015092E+02 -0.20811121888E+01  0.29232007525E+02  0.00000000000E+00 0. -1.
</event>
<event>
 7    1  0.2656097E-013  0.7246159E+02  0.7816164E-02  0.1226708E+00
        -11   -1    0    0    0    0  0.00000000000E+00  0.00000000000E+00  0.45593999997E+02  0.45594000000E+02  0.51100000000E-03 0. -1.
         11   -1    0    0    0    0 -0.00000000000E+00 -0.00000000000E+00 -0.45593999997E+02  0.45594000000E+02  0.51100000000E-03 0.  1.
    9900012    2    1    2    0    0 -0.19406126968E+01 -0.13542606031E+01  0.18576288374E+02  0.72461588460E+02  0.70000023664E+02 0.  0.
        -12    1    1    2    0    0  0.19406126968E+01  0.13542606031E+01 -0.18576288374E+02  0.18726411540E+02  0.00000000000E+00 0.  1.
         11    1    3    3    0    0  0.14690291057E+02 -0.10574891819E+01  0.26164733550E+02  0.30025259644E+02  0.51100000000E-03 0. -1.
        -11    1    3    3    0    0 -0.22507752270E+02 -0.45985359482E+01  0.87227781854E+01  0.24572999505E+02  0.51100000000E-03 0.  1.
         12    1    3    3    0    0  0.58768485166E+01  0.43017645269E+01 -0.16311223361E+02  0.17863329311E+02  0.00000000000E+00 0. -1.
</event>
<event>
 7    1  0.2656097E-013  0.7246165E+02  0.7816164E-02  0.1226708E+00
        -11   -1    0    0    0    0  0.00000000000E+00  0.00000000000E+00  0.45593999997E+02  0.45594000000E+02  0.51100000000E-03 0.  1.
         11   -1    0    0    0    0 -0.00000000000E+00 -0.00000000000E+00 -0.45593999997E+02  0.45594000000E+02  0.51100000000E-03 0. -1.
    9900012    2    1    2    0    0  0.18343625569E+02  0.96334420645E+00  0.36413664146E+01  0.72461650103E+02  0.70000103966E+02 0.  0.
        -12    1    1    2    0    0 -0.18343625569E+02 -0.96334420645E+00 -0.36413664146E+01  0.18726349897E+02  0.00000000000E+00 0.  1.
         11    1    3    3    0    0  0.37924342943E-02  0.59605493944E+01  0.11238473422E+02  0.12721299013E+02  0.51100000000E-03 0. -1.
        -11    1    3    3    0    0 -0.10798000598E-01  0.97450215843E+01  0.20731975310E+02  0.22908085097E+02  0.51100000000E-03 0.  1.
         12    1    3    3    0    0  0.18350631136E+02 -0.14742226772E+02 -0.28329082317E+02  0.36832265994E+02  0.00000000000E+00 0. -1.
</event>
<event>
 7    1  0.2656097E-013  0.7246152E+02  0.7816164E-02  0.1226708E+00
        -11   -1    0    0    0    0  0.00000000000E+00  0.00000000000E+00  0.45593999997E+02  0.45594000000E+02  0.51100000000E-03 0.  1.
         11   -1    0    0    0    0 -0.00000000000E+00 -0.00000000000E+00 -0.45593999997E+02  0.45594000000E+02  0.51100000000E-03 0. -1.
    9900012    2    1    2    0    0  0.18467596908E+02  0.17082790574E+00  0.30983614264E+01  0.72461517114E+02  0.69999930723E+02 0.  0.
        -12    1    1    2    0    0 -0.18467596908E+02 -0.17082790574E+00 -0.30983614264E+01  0.18726482886E+02  0.00000000000E+00 0.  1.
         11    1    3    3    0    0 -0.40246327960E+01 -0.87707300092E+01  0.57394365645E+01  0.11227845135E+02  0.51100000000E-03 0. -1.
        -11    1    3    3    0    0  0.50254468854E+01 -0.16776792433E+01  0.25727583941E+02  0.26267438012E+02  0.51100000000E-03 0.  1.
         12    1    3    3    0    0  0.17466782819E+02  0.10619237158E+02 -0.28368659079E+02  0.34966233967E+02  0.00000000000E+00 0. -1.
</event>
<event>
 7    1  0.2656097E-013  0.7246156E+02  0.7816164E-02  0.1226708E+00
        -11   -1    0    0    0    0  0.00000000000E+00  0.00000000000E+00  0.45593999997E+02  0.45594000000E+02  0.51100000000E-03 0.  1.
         11   -1    0    0    0    0 -0.00000000000E+00 -0.00000000000E+00 -0.45593999997E+02  0.45594000000E+02  0.51100000000E-03 0. -1.
    9900012    2    1    2    0    0 -0.44231827322E+01 -0.34781794350E+01 -0.17861052374E+02  0.72461562283E+02  0.69999989564E+02 0.  0.
        -12    1    1    2    0    0  0.44231827322E+01  0.34781794350E+01  0.17861052374E+02  0.18726437717E+02  0.00000000000E+00 0.  1.
         11    1    3    3    0    0  0.10865154150E+02  0.85749936675E+01 -0.37750342033E+02  0.40207840218E+02  0.51100000000E-03 0. -1.
        -11    1    3    3    0    0 -0.10532610854E+02 -0.10884521368E+02  0.40553401587E+01  0.15679747475E+02  0.51100000000E-03 0.  1.
        -12    1    3    3    0    0 -0.47557260284E+01 -0.11686517346E+01  0.15833949500E+02  0.16573974590E+02  0.00000000000E+00 0.  1.
</event>
<event>
 7    1  0.2656097E-013  0.7246187E+02  0.7816164E-02  0.1226707E+00
        -11   -1    0    0    0    0  0.00000000000E+00  0.00000000000E+00  0.45593999997E+02  0.45594000000E+02  0.51100000000E-03 0.  1.
         11   -1    0    0    0    0 -0.00000000000E+00 -0.00000000000E+00 -0.45593999997E+02  0.45594000000E+02  0.51100000000E-03 0. -1.
    9900012    2    1    2    0    0  0.15216375370E+02 -0.78463331267E+01 -0.75871503936E+01  0.72461871889E+02  0.70000392882E+02 0.  0.
        -12    1    1    2    0    0 -0.15216375370E+02  0.78463331267E+01  0.75871503936E+01  0.18726128111E+02  0.00000000000E+00 0.  1.
         11    1    3    3    0    0  0.13361349594E+01 -0.19586267196E+02 -0.85225621503E+01  0.21401896766E+02  0.51100000000E-03 0. -1.
        -11    1    3    3    0    0  0.41373835126E+01  0.10361419738E+02 -0.22790311433E+02  0.25374697177E+02  0.51100000000E-03 0.  1.
         12    1    3    3    0    0  0.97428568979E+01  0.13785143315E+01  0.23725723190E+02  0.25685277947E+02  0.00000000000E+00 0. -1.
</event>
<event>
 7    1  0.2656097E-013  0.7246158E+02  0.7816164E-02  0.1226708E+00
        -11   -1    0    0    0    0  0.00000000000E+00  0.00000000000E+00  0.45593999997E+02  0.45594000000E+02  0.51100000000E-03 0.  1.
         11   -1    0    0    0    0 -0.00000000000E+00 -0.00000000000E+00 -0.45593999997E+02  0.45594000000E+02  0.51100000000E-03 0. -1.
    9900012    2    1    2    0    0 -0.15018726836E+02  0.10642360871E+02  0.34433866310E+01  0.72461577165E+02  0.70000008951E+02 0.  0.
        -12    1    1    2    0    0  0.15018726836E+02 -0.10642360871E+02 -0.34433866310E+01  0.18726422835E+02  0.00000000000E+00 0.  1.
         11    1    3    3    0    0 -0.10367704345E+01  0.14180293704E+02 -0.23805020654E+02  0.27727867409E+02  0.51100000000E-03 0. -1.
        -11    1    3    3    0    0 -0.11123009979E+02 -0.14344945736E+02  0.35008863082E+01  0.18486617440E+02  0.51100000000E-03 0.  1.
        -12    1    3    3    0    0 -0.28589464223E+01  0.10807012903E+02  0.23747520976E+02  0.26247092316E+02  0.00000000000E+00 0.  1.
</event>
<event>
 7    1  0.2656097E-013  0.7246159E+02  0.7816164E-02  0.1226708E+00
        -11   -1    0    0    0    0  0.00000000000E+00  0.00000000000E+00  0.45593999997E+02  0.45594000000E+02  0.51100000000E-03 0.  1.
         11   -1    0    0    0    0 -0.00000000000E+00 -0.00000000000E+00 -0.45593999997E+02  0.45594000000E+02  0.51100000000E-03 0. -1.
    9900012    2    1    2    0    0  0.57676030057E+01 -0.17754985391E+02  0.14742822491E+01  0.72461594611E+02  0.70000031676E+02 0.  0.
        -12    1    1    2    0    0 -0.57676030057E+01  0.17754985391E+02 -0.14742822491E+01  0.18726405389E+02  0.00000000000E+00 0.  1.
         11    1    3    3    0    0  0.10859763622E+02  0.34156765248E+01 -0.11614403461E+02  0.16263323155E+02  0.51100000000E-03 0. -1.
        -11    1    3    3    0    0  0.16352876232E+02 -0.22341182820E+02 -0.49809187176E+01  0.28131024908E+02  0.51100000000E-03 0.  1.
        -12    1    3    3    0    0 -0.21445036847E+02  0.11705209049E+01  0.18069604427E+02  0.28067246547E+02  0.00000000000E+00 0.  1.
</event>
<event>
 7    1  0.2656097E-013  0.7246155E+02  0.7816164E-02  0.1226708E+00
        -11   -1    0    0    0    0  0.00000000000E+00  0.00000000000E+00  0.45593999997E+02  0.45594000000E+02  0.51100000000E-03 0. -1.
         11   -1    0    0    0    0 -0.00000000000E+00 -0.00000000000E+00 -0.45593999997E+02  0.45594000000E+02  0.51100000000E-03 0.  1.
    9900012    2    1    2    0    0 -0.12754439506E+02  0.95419121342E+00  0.13678224277E+02  0.72461547390E+02  0.69999970163E+02 0.  0.
        -12    1    1    2    0    0  0.12754439506E+02 -0.95419121342E+00 -0.13678224277E+02  0.18726452610E+02  0.00000000000E+00 0.  1.
         11    1    3    3    0    0  0.14023396678E+02 -0.23085426964E+01  0.94390857349E+00  0.14243454196E+02  0.51100000000E-03 0. -1.
        -11    1    3    3    0    0  0.49120427145E+01  0.17519508979E+02 -0.54563327740E+01  0.18995602809E+02  0.51100000000E-03 0.  1.
         12    1    3    3    0    0 -0.31689878898E+02 -0.14256775069E+02  0.18190648477E+02  0.39222490385E+02  0.00000000000E+00 0. -1.
</event>
<event>
 7    1  0.2656097E-013  0.7246176E+02  0.7816164E-02  0.1226708E+00
        -11   -1    0    0    0    0  0.00000000000E+00  0.00000000000E+00  0.45593999997E+02  0.45594000000E+02  0.51100000000E-03 0.  1.
         11   -1    0    0    0    0 -0.00000000000E+00 -0.00000000000E+00 -0.45593999997E+02  0.45594000000E+02  0.51100000000E-03 0. -1.
    9900012    2    1    2    0    0 -0.14068390567E+01 -0.77081915270E+01 -0.17008135369E+02  0.72461759548E+02  0.70000246537E+02 0.  0.
        -12    1    1    2    0    0  0.14068390567E+01  0.77081915270E+01  0.17008135369E+02  0.18726240452E+02  0.00000000000E+00 0.  1.
         11    1    3    3    0    0  0.76931197342E+01 -0.96555818281E+01 -0.12678671718E+02  0.17696414000E+02  0.51100000000E-03 0. -1.
        -11    1    3    3    0    0 -0.14880824502E+02 -0.22808990774E+02  0.49924248060E+01  0.27687782571E+02  0.51100000000E-03 0.  1.
         12    1    3    3    0    0  0.57808657108E+01  0.24756381076E+02 -0.93218884574E+01  0.27077562976E+02  0.00000000000E+00 0. -1.
</event>
<event>
 7    1  0.2656097E-013  0.7246165E+02  0.7816164E-02  0.1226708E+00
        -11   -1    0    0    0    0  0.00000000000E+00  0.00000000000E+00  0.45593999997E+02  0.45594000000E+02  0.51100000000E-03 0. -1.
         11   -1    0    0    0    0 -0.00000000000E+00 -0.00000000000E+00 -0.45593999997E+02  0.45594000000E+02  0.51100000000E-03 0.  1.
    9900012    2    1    2    0    0  0.15136533963E+02  0.11143448384E+01  0.10969033333E+02  0.72461651795E+02  0.70000106170E+02 0.  0.
        -12    1    1    2    0    0 -0.15136533963E+02 -0.11143448384E+01 -0.10969033333E+02  0.18726348205E+02  0.00000000000E+00 0.  1.
         11    1    3    3    0    0 -0.15856556122E+02 -0.40776829617E+01  0.83405878320E+01  0.18374527913E+02  0.51100000000E-03 0. -1.
        -11    1    3    3    0    0  0.12948530108E+02  0.92723941211E+01 -0.19543330251E+02  0.25210781072E+02  0.51100000000E-03 0.  1.
         12    1    3    3    0    0  0.18044559977E+02 -0.40803663210E+01  0.22171775752E+02  0.28876342810E+02  0.00000000000E+00 0. -1.
</event>
<event>
 7    1  0.2656097E-013  0.7246148E+02  0.7816164E-02  0.1226708E+00
        -11   -1    0    0    0    0  0.00000000000E+00  0.00000000000E+00  0.45593999997E+02  0.45594000000E+02  0.51100000000E-03 0.  1.
         11   -1    0    0    0    0 -0.00000000000E+00 -0.00000000000E+00 -0.45593999997E+02  0.45594000000E+02  0.51100000000E-03 0. -1.
    9900012    2    1    2    0    0  0.42120860283E+00 -0.12994431342E+02 -0.13477752626E+02  0.72461481946E+02  0.69999884910E+02 0.  0.
        -12    1    1    2    0    0 -0.42120860283E+00  0.12994431342E+02  0.13477752626E+02  0.18726518054E+02  0.00000000000E+00 0.  1.
         11    1    3    3    0    0 -0.18055049662E+01  0.80544857278E+00 -0.78508136534E+01  0.80959169257E+01  0.51100000000E-03 0. -1.
        -11    1    3    3    0    0 -0.99703642657E+01  0.99067157532E+01  0.21914218958E+02  0.26034288417E+02  0.51100000000E-03 0.  1.
         12    1    3    3    0    0  0.12197077835E+02 -0.23706595668E+02 -0.27541157930E+02  0.38331276603E+02  0.00000000000E+00 0. -1.
</event>
<event>
 7    1  0.2656097E-013  0.7246153E+02  0.7816164E-02  0.1226708E+00
        -11   -1    0    0    0    0  0.00000000000E+00  0.00000000000E+00  0.45593999997E+02  0.45594000000E+02  0.51100000000E-03 0. -1.
         11   -1    0    0    0    0 -0.00000000000E+00 -0.00000000000E+00 -0.45593999997E+02  0.45594000000E+02  0.51100000000E-03 0.  1.
    9900012    2    1    2    0    0 -0.45370918195E+01 -0.43710225438E+01  0.17634894560E+02  0.72461533531E+02  0.69999952109E+02 0.  0.
        -12    1    1    2    0    0  0.45370918195E+01  0.43710225438E+01 -0.17634894560E+02  0.18726466469E+02  0.00000000000E+00 0.  1.
         11    1    3    3    0    0 -0.42483547307E+01 -0.27834009542E+01  0.23956338094E+02  0.24488813241E+02  0.51100000000E-03 0. -1.
        -11    1    3    3    0    0 -0.11250560142E+02 -0.17399136328E+02  0.97543161562E+01  0.22900911170E+02  0.51100000000E-03 0.  1.
         12    1    3    3    0    0  0.10961823053E+02  0.15811514739E+02 -0.16075759690E+02  0.25071809121E+02  0.00000000000E+00 0. -1.
</event>
<event>
 7    1  0.2656097E-013  0.7246158E+02  0.7816164E-02  0.1226708E+00
        -11   -1    0    0    0    0  0.00000000000E+00  0.00000000000E+00  0.45593999997E+02  0.45594000000E+02  0.51100000000E-03 0.  1.
         11   -1    0    0    0    0 -0.00000000000E+00 -0.00000000000E+00 -0.45593999997E+02  0.45594000000E+02  0.51100000000E-03 0. -1.
    9900012    2    1    2    0    0 -0.75347322343E+01  0.42711265760E+01 -0.16603135679E+02  0.72461579455E+02  0.70000011933E+02 0.  0.
        -12    1    1    2    0    0  0.75347322343E+01 -0.42711265760E+01  0.16603135679E+02  0.18726420545E+02  0.00000000000E+00 0.  1.
         11    1    3    3    0    0  0.15457041957E+02  0.28759789263E+02 -0.87079686569E+01  0.33791631256E+02  0.51100000000E-03 0. -1.
        -11    1    3    3    0    0  0.78411139448E+00 -0.83656201824E+01 -0.50480967735E+01  0.98021279838E+01  0.51100000000E-03 0.  1.
        -12    1    3    3    0    0 -0.23775885586E+02 -0.16123042505E+02 -0.28470702482E+01  0.28867820215E+02  0.00000000000E+00 0.  1.
</event>
<event>
 7    1  0.2656097E-013  0.7246157E+02  0.7816164E-02  0.1226708E+00
        -11   -1    0    0    0    0  0.00000000000E+00  0.00000000000E+00  0.45593999997E+02  0.45594000000E+02  0.51100000000E-03 0. -1.
         11   -1    0    0    0    0 -0.00000000000E+00 -0.00000000000E+00 -0.45593999997E+02  0.45594000000E+02  0.51100000000E-03 0.  1.
    9900012    2    1    2    0    0 -0.50282368396E+01  0.37135164203E+01  0.17652364165E+02  0.72461565995E+02  0.69999994399E+02 0.  0.
        -12    1    1    2    0    0  0.50282368396E+01 -0.37135164203E+01 -0.17652364165E+02  0.18726434005E+02  0.00000000000E+00 0.  1.
         11    1    3    3    0    0  0.15441260017E+02 -0.15518455086E+02  0.43658746720E+01  0.22322988624E+02  0.51100000000E-03 0. -1.
        -11    1    3    3    0    0 -0.24198313843E+01  0.11043702397E+01 -0.13111840627E+02  0.13378923068E+02  0.51100000000E-03 0.  1.
         12    1    3    3    0    0 -0.18049665473E+02  0.18127601267E+02  0.26398330120E+02  0.36759654304E+02  0.00000000000E+00 0. -1.
</event>
<event>
 7    1  0.2656097E-013  0.7246146E+02  0.7816164E-02  0.1226708E+00
        -11   -1    0    0    0    0  0.00000000000E+00  0.00000000000E+00  0.45593999997E+02  0.45594000000E+02  0.51100000000E-03 0. -1.
         11   -1    0    0    0    0 -0.00000000000E+00 -0.00000000000E+00 -0.45593999997E+02  0.45594000000E+02  0.51100000000E-03 0.  1.
    9900012    2    1    2    0    0  0.12674232263E+02 -0.37079518646E+01  0.13277740552E+02  0.72461455614E+02  0.69999850607E+02 0.  0.
        -12    1    1    2    0    0 -0.12674232263E+02  0.37079518646E+01 -0.13277740552E+02  0.18726544386E+02  0.00000000000E+00 0.  1.
         11    1    3    3    0    0 -0.11095725461E+02 -0.15633067386E+02  0.23382715964E+02  0.30236721474E+02  0.51100000000E-03 0. -1.
        -11    1    3    3    0    0  0.18857263865E+02 -0.14257653984E+01  0.68307130113E+01  0.20106910452E+02  0.51100000000E-03 0.  1.
        -12    1    3    3    0    0  0.49126938591E+01  0.13350880920E+02 -0.16935688423E+02  0.22117823687E+02  0.00000000000E+00 0.  1.
</event>
<event>
 7    1  0.2656097E-013  0.7246159E+02  0.7816164E-02  0.1226708E+00
        -11   -1    0    0    0    0  0.00000000000E+00  0.00000000000E+00  0.45593999997E+02  0.45594000000E+02  0.51100000000E-03 0.  1.
         11   -1    0    0    0    0 -0.00000000000E+00 -0.00000000000E+00 -0.45593999997E+02  0.45594000000E+02  0.51100000000E-03 0. -1.
    9900012    2    1    2    0    0  0.79401894777E+01 -0.10282075491E+02 -0.13487424770E+02  0.72461593183E+02  0.70000029817E+02 0.  0.
        -12    1    1    2    0    0 -0.79401894777E+01  0.10282075491E+02  0.13487424770E+02  0.18726406817E+02  0.00000000000E+00 0.  1.
         11    1    3    3    0    0 -0.19431162571E+02 -0.25419252957E+02 -0.41182284630E+01  0.32259390969E+02  0.51100000000E-03 0. -1.
        -11    1    3    3    0    0  0.19295968416E+01 -0.27047893335E+01  0.49705130558E+01  0.59787314381E+01  0.51100000000E-03 0.  1.
        -12    1    3    3    0    0  0.25441755207E+02  0.17841966800E+02 -0.14339709363E+02  0.34223470776E+02  0.00000000000E+00 0.  1.
</event>
<event>
 7    1  0.2656097E-013  0.7246161E+02  0.7816164E-02  0.1226708E+00
        -11   -1    0    0    0    0  0.00000000000E+00  0.00000000000E+00  0.45593999997E+02  0.45594000000E+02  0.51100000000E-03 0.  1.
         11   -1    0    0    0    0 -0.00000000000E+00 -0.00000000000E+00 -0.45593999997E+02  0.45594000000E+02  0.51100000000E-03 0. -1.
    9900012    2    1    2    0    0 -0.37320317859E+01 -0.18339910039E+02  0.63031043878E+00  0.72461610793E+02  0.70000052757E+02 0.  0.
        -12    1    1    2    0    0  0.37320317859E+01  0.18339910039E+02 -0.63031043878E+00  0.18726389207E+02  0.00000000000E+00 0.  1.
         11    1    3    3    0    0 -0.12619040480E+02 -0.64634698489E+01 -0.47559550028E+01  0.14954455302E+02  0.51100000000E-03 0. -1.
        -11    1    3    3    0    0  0.48432463590E+01 -0.30143250719E+01 -0.24976691608E+02  0.25619881243E+02  0.51100000000E-03 0.  1.
         12    1    3    3    0    0  0.40437623353E+01 -0.88621151178E+01  0.30362957050E+02  0.31887274248E+02  0.00000000000E+00 0. -1.
</event>
<event>
 7    1  0.2656097E-013  0.7246157E+02  0.7816164E-02  0.1226708E+00
        -11   -1    0    0    0    0  0.00000000000E+00  0.00000000000E+00  0.45593999997E+02  0.45594000000E+02  0.51100000000E-03 0.  1.
         11   -1    0    0    0    0 -0.00000000000E+00 -0.00000000000E+00 -0.45593999997E+02  0.45594000000E+02  0.51100000000E-03 0. -1.
    9900012    2    1    2    0    0  0.79989619352E+01  0.16882640616E+02 -0.12930827034E+01  0.72461574578E+02  0.70000005581E+02 0.  0.
        -12    1    1    2    0    0 -0.79989619352E+01 -0.16882640616E+02  0.12930827034E+01  0.18726425422E+02  0.00000000000E+00 0.  1.
         11    1    3    3    0    0  0.11604716953E+02 -0.85531110255E+00 -0.11289365542E+02  0.16212673661E+02  0.51100000000E-03 0. -1.
        -11    1    3    3    0    0  0.23908399169E+02  0.33965215421E+01  0.66125437104E+01  0.25037444838E+02  0.51100000000E-03 0.  1.
         12    1    3    3    0    0 -0.27514154187E+02  0.14341430176E+02  0.33837391279E+01  0.31211456080E+02  0.00000000000E+00 0. -1.
</event>
<event>
 7    1  0.2656097E-013  0.7246158E+02  0.7816164E-02  0.1226708E+00
        -11   -1    0    0    0    0  0.00000000000E+00  0.00000000000E+00  0.45593999997E+02  0.45594000000E+02  0.51100000000E-03 0. -1.
         11   -1    0    0    0    0 -0.00000000000E+00 -0.00000000000E+00 -0.45593999997E+02  0.45594000000E+02  0.51100000000E-03 0.  1.
    9900012    2    1    2    0    0  0.14363613595E+02  0.11839465635E+02  0.20475923699E+01  0.72461575447E+02  0.70000006712E+02 0.  0.
        -12    1    1    2    0    0 -0.14363613595E+02 -0.11839465635E+02 -0.20475923699E+01  0.18726424553E+02  0.00000000000E+00 0.  1.
         11    1    3    3    0    0  0.34691517111E+02 -0.10644956877E+01 -0.58524324498E+01  0.35197804994E+02  0.51100000000E-03 0.  1.
        -11    1    3    3    0    0 -0.37649718827E+01  0.17450372886E+01  0.15385838928E+02  0.15935627010E+02  0.51100000000E-03 0. -1.
        -12    1    3    3    0    0 -0.16562931633E+02  0.11158924034E+02 -0.74858141079E+01  0.21328143443E+02  0.00000000000E+00 0.  1.
</event>
<event>
 7    1  0.2656097E-013  0.7246169E+02  0.7816164E-02  0.1226708E+00
        -11   -1    0    0    0    0  0.00000000000E+00  0.00000000000E+00  0.45593999997E+02  0.45594000000E+02  0.51100000000E-03 0.  1.
         11   -1    0    0    0    0 -0.00000000000E+00 -0.00000000000E+00 -0.45593999997E+02  0.45594000000E+02  0.51100000000E-03 0. -1.
    9900012    2    1    2    0    0  0.47131441261E+01 -0.66542294264E+01 -0.16857699782E+02  0.72461693938E+02  0.70000161068E+02 0.  0.
        -12    1    1    2    0    0 -0.47131441261E+01  0.66542294264E+01  0.16857699782E+02  0.18726306062E+02  0.00000000000E+00 0.  1.
         11    1    3    3    0    0  0.24774193954E+02 -0.14827742940E+02 -0.31496675923E+02  0.42727780673E+02  0.51100000000E-03 0. -1.
        -11    1    3    3    0    0  0.17104635235E+01 -0.11430671641E+01  0.38235655864E+00  0.20924829285E+01  0.51100000000E-03 0.  1.
        -12    1    3    3    0    0 -0.21771513352E+02  0.93165806774E+01  0.14256619582E+02  0.27641430337E+02  0.00000000000E+00 0.  1.
</event>
<event>
 7    1  0.2656097E-013  0.7246156E+02  0.7816164E-02  0.1226708E+00
        -11   -1    0    0    0    0  0.00000000000E+00  0.00000000000E+00  0.45593999997E+02  0.45594000000E+02  0.51100000000E-03 0.  1.
         11   -1    0    0    0    0 -0.00000000000E+00 -0.00000000000E+00 -0.45593999997E+02  0.45594000000E+02  0.51100000000E-03 0. -1.
    9900012    2    1    2    0    0  0.10134076058E+01 -0.14191974997E+02 -0.12175395134E+02  0.72461564249E+02  0.69999992124E+02 0.  0.
        -12    1    1    2    0    0 -0.10134076058E+01  0.14191974997E+02  0.12175395134E+02  0.18726435751E+02  0.00000000000E+00 0.  1.
         11    1    3    3    0    0 -0.27607056840E+02 -0.24673555323E+02 -0.10104750578E+02  0.38380201982E+02  0.51100000000E-03 0. -1.
        -11    1    3    3    0    0  0.16025040051E+01  0.47853517135E+01 -0.39455827319E+01  0.64058749179E+01  0.51100000000E-03 0.  1.
        -12    1    3    3    0    0  0.27017960441E+02  0.56962286132E+01  0.18749381756E+01  0.27675487348E+02  0.00000000000E+00 0.  1.
</event>
<event>
 7    1  0.2656097E-013  0.7246162E+02  0.7816164E-02  0.1226708E+00
        -11   -1    0    0    0    0  0.00000000000E+00  0.00000000000E+00  0.45593999997E+02  0.45594000000E+02  0.51100000000E-03 0.  1.
         11   -1    0    0    0    0 -0.00000000000E+00 -0.00000000000E+00 -0.45593999997E+02  0.45594000000E+02  0.51100000000E-03 0. -1.
    9900012    2    1    2    0    0  0.62991082702E+01 -0.17280819527E+02 -0.35173616151E+01  0.72461619644E+02  0.70000064287E+02 0.  0.
        -12    1    1    2    0    0 -0.62991082702E+01  0.17280819527E+02  0.35173616151E+01  0.18726380356E+02  0.00000000000E+00 0.  1.
         11    1    3    3    0    0 -0.14220466452E+02 -0.50180267972E+01 -0.21248214963E+02  0.26055496511E+02  0.51100000000E-03 0. -1.
        -11    1    3    3    0    0  0.14059487142E+02 -0.10448664135E+02 -0.84004515961E+01  0.19427077705E+02  0.51100000000E-03 0.  1.
        -12    1    3    3    0    0  0.64600875803E+01 -0.18141285948E+01  0.26131304944E+02  0.26979045428E+02  0.00000000000E+00 0.  1.
</event>
<event>
 7    1  0.2656097E-013  0.7246158E+02  0.7816164E-02  0.1226708E+00
        -11   -1    0    0    0    0  0.00000000000E+00  0.00000000000E+00  0.45593999997E+02  0.45594000000E+02  0.51100000000E-03 0.  1.
         11   -1    0    0    0    0 -0.00000000000E+00 -0.00000000000E+00 -0.45593999997E+02  0.45594000000E+02  0.51100000000E-03 0. -1.
    9900012    2    1    2    0    0 -0.18079880669E+02 -0.46425139010E+01 -0.14978958616E+01  0.72461582501E+02  0.70000015901E+02 0.  0.
        -12    1    1    2    0    0  0.18079880669E+02  0.46425139010E+01  0.14978958616E+01  0.18726417499E+02  0.00000000000E+00 0.  1.
         11    1    3    3    0    0  0.91574377674E+00 -0.15724606136E+02 -0.22001724940E+02  0.27058782777E+02  0.51100000000E-03 0. -1.
        -11    1    3    3    0    0  0.89674367809E+01  0.43922869808E+01 -0.17470069850E+00  0.99868727807E+01  0.51100000000E-03 0.  1.
        -12    1    3    3    0    0 -0.27963061227E+02  0.66898052538E+01  0.20678529777E+02  0.35415926943E+02  0.00000000000E+00 0.  1.
</event>
<event>
 7    1  0.2656097E-013  0.7246157E+02  0.7816164E-02  0.1226708E+00
        -11   -1    0    0    0    0  0.00000000000E+00  0.00000000000E+00  0.45593999997E+02  0.45594000000E+02  0.51100000000E-03 0.  1.
         11   -1    0    0    0    0 -0.00000000000E+00 -0.00000000000E+00 -0.45593999997E+02  0.45594000000E+02  0.51100000000E-03 0. -1.
    9900012    2    1    2    0    0 -0.82859566405E+01 -0.16403914316E+02 -0.35963201828E+01  0.72461574789E+02  0.70000005855E+02 0.  0.
        -12    1    1    2    0    0  0.82859566405E+01  0.16403914316E+02  0.35963201828E+01  0.18726425211E+02  0.00000000000E+00 0.  1.
         11    1    3    3    0    0 -0.11392051647E+02 -0.29073481295E+02 -0.17012069198E+01  0.31272036400E+02  0.51100000000E-03 0. -1.
        -11    1    3    3    0    0 -0.35401473020E+01 -0.13473516731E+02 -0.27572620857E+01  0.14201084131E+02  0.51100000000E-03 0.  1.
        -12    1    3    3    0    0  0.66462423084E+01  0.26143083710E+02  0.86214882269E+00  0.26988454259E+02  0.00000000000E+00 0.  1.
</event>
<event>
 7    1  0.2656097E-013  0.7246149E+02  0.7816164E-02  0.1226708E+00
        -11   -1    0    0    0    0  0.00000000000E+00  0.00000000000E+00  0.45593999997E+02  0.45594000000E+02  0.51100000000E-03 0.  1.
         11   -1    0    0    0    0 -0.00000000000E+00 -0.00000000000E+00 -0.45593999997E+02  0.45594000000E+02  0.51100000000E-03 0. -1.
    9900012    2    1    2    0    0 -0.11827753183E+02 -0.95602756952E+01 -0.10926466713E+02  0.72461486935E+02  0.69999891409E+02 0.  0.
        -12    1    1    2    0    0  0.11827753183E+02  0.95602756952E+01  0.10926466713E+02  0.18726513065E+02  0.00000000000E+00 0.  1.
         11    1    3    3    0    0 -0.19757132506E+02 -0.19796260580E+02 -0.25088087888E+02  0.37571909347E+02  0.51100000000E-03 0. -1.
        -11    1    3    3    0    0  0.65342021317E+01 -0.57735607461E+01 -0.48646643922E+01  0.99847263907E+01  0.51100000000E-03 0.  1.
        -12    1    3    3    0    0  0.13951771909E+01  0.16009545631E+02  0.19026285568E+02  0.24904851198E+02  0.00000000000E+00 0.  1.
</event>
<event>
 7    1  0.2656097E-013  0.7246155E+02  0.7816164E-02  0.1226708E+00
        -11   -1    0    0    0    0  0.00000000000E+00  0.00000000000E+00  0.45593999997E+02  0.45594000000E+02  0.51100000000E-03 0.  1.
         11   -1    0    0    0    0 -0.00000000000E+00 -0.00000000000E+00 -0.45593999997E+02  0.45594000000E+02  0.51100000000E-03 0. -1.
    9900012    2    1    2    0    0 -0.77873543233E+01  0.13516632317E+02  0.10360384498E+02  0.72461553367E+02  0.69999977949E+02 0.  0.
        -12    1    1    2    0    0  0.77873543233E+01 -0.13516632317E+02 -0.10360384498E+02  0.18726446633E+02  0.00000000000E+00 0.  1.
         11    1    3    3    0    0 -0.11952630140E+02  0.35985929437E+01 -0.14814911680E+02  0.19372579766E+02  0.51100000000E-03 0. -1.
        -11    1    3    3    0    0 -0.26879095695E+01  0.30971080752E+01 -0.13039902721E+02  0.13669528138E+02  0.51100000000E-03 0.  1.
        -12    1    3    3    0    0  0.68531853864E+01  0.68209312984E+01  0.38215198899E+02  0.39419445463E+02  0.00000000000E+00 0.  1.
</event>
<event>
 7    1  0.2656097E-013  0.7246157E+02  0.7816164E-02  0.1226708E+00
        -11   -1    0    0    0    0  0.00000000000E+00  0.00000000000E+00  0.45593999997E+02  0.45594000000E+02  0.51100000000E-03 0. -1.
         11   -1    0    0    0    0 -0.00000000000E+00 -0.00000000000E+00 -0.45593999997E+02  0.45594000000E+02  0.51100000000E-03 0.  1.
    9900012    2    1    2    0    0  0.97460208756E+01 -0.15341847460E+02  0.45079807933E+01  0.72461572225E+02  0.70000002515E+02 0.  0.
        -12    1    1    2    0    0 -0.97460208756E+01  0.15341847460E+02 -0.45079807933E+01  0.18726427775E+02  0.00000000000E+00 0.  1.
         11    1    3    3    0    0  0.24091629628E+02 -0.36189342428E+01 -0.90721715519E+01  0.25996299739E+02  0.51100000000E-03 0.  1.
        -11    1    3    3    0    0 -0.11239736081E+02 -0.23612660933E+02 -0.24511333692E+01  0.26265899538E+02  0.51100000000E-03 0. -1.
         12    1    3    3    0    0 -0.31058726720E+01  0.11889747716E+02  0.16031285714E+02  0.20199372947E+02  0.00000000000E+00 0. -1.
</event>
<event>
 7    1  0.2656097E-013  0.7246084E+02  0.7816164E-02  0.1226710E+00
        -11   -1    0    0    0    0  0.00000000000E+00  0.00000000000E+00  0.45593999997E+02  0.45594000000E+02  0.51100000000E-03 0.  1.
         11   -1    0    0    0    0 -0.00000000000E+00 -0.00000000000E+00 -0.45593999997E+02  0.45594000000E+02  0.51100000000E-03 0. -1.
    9900012    2    1    2    0    0 -0.19738435493E+01  0.53698019600E+01 -0.17831876968E+02  0.72460836102E+02  0.69999043572E+02 0.  0.
        -12    1    1    2    0    0  0.19738435493E+01 -0.53698019600E+01  0.17831876968E+02  0.18727163898E+02  0.00000000000E+00 0.  1.
         11    1    3    3    0    0 -0.15146023972E+02 -0.14338557037E+02 -0.34148843939E+01  0.21134277744E+02  0.51100000000E-03 0. -1.
        -11    1    3    3    0    0 -0.62897710201E+01  0.27918451309E+01  0.12363448996E+02  0.14149575614E+02  0.51100000000E-03 0.  1.
        -12    1    3    3    0    0  0.19461951443E+02  0.16916513866E+02 -0.26780441570E+02  0.37176982745E+02  0.00000000000E+00 0.  1.
</event>
<event>
 7    1  0.2656097E-013  0.7246159E+02  0.7816164E-02  0.1226708E+00
        -11   -1    0    0    0    0  0.00000000000E+00  0.00000000000E+00  0.45593999997E+02  0.45594000000E+02  0.51100000000E-03 0. -1.
         11   -1    0    0    0    0 -0.00000000000E+00 -0.00000000000E+00 -0.45593999997E+02  0.45594000000E+02  0.51100000000E-03 0.  1.
    9900012    2    1    2    0    0  0.23016400436E+01 -0.18016605992E+02 -0.45587961613E+01  0.72461594557E+02  0.70000031607E+02 0.  0.
        -12    1    1    2    0    0 -0.23016400436E+01  0.18016605992E+02  0.45587961613E+01  0.18726405443E+02  0.00000000000E+00 0.  1.
         11    1    3    3    0    0  0.54472055099E+01 -0.27918479306E+02 -0.56811544827E+01  0.29006707003E+02  0.51100000000E-03 0. -1.
        -11    1    3    3    0    0 -0.39756347142E+01 -0.11743095602E+02  0.13643815773E+02  0.18435283421E+02  0.51100000000E-03 0.  1.
        -12    1    3    3    0    0  0.83006924798E+00  0.21644968916E+02 -0.12521457452E+02  0.25019604134E+02  0.00000000000E+00 0.  1.
</event>
<event>
 7    1  0.2656097E-013  0.7246160E+02  0.7816164E-02  0.1226708E+00
        -11   -1    0    0    0    0  0.00000000000E+00  0.00000000000E+00  0.45593999997E+02  0.45594000000E+02  0.51100000000E-03 0.  1.
         11   -1    0    0    0    0 -0.00000000000E+00 -0.00000000000E+00 -0.45593999997E+02  0.45594000000E+02  0.51100000000E-03 0. -1.
    9900012    2    1    2    0    0 -0.15684944389E+02  0.10008482770E+02 -0.21191216822E+01  0.72461604603E+02  0.70000044693E+02 0.  0.
        -12    1    1    2    0    0  0.15684944389E+02 -0.10008482770E+02  0.21191216822E+01  0.18726395397E+02  0.00000000000E+00 0.  1.
         11    1    3    3    0    0 -0.20607629813E+02  0.62751185575E+01 -0.31375814762E+02  0.38059076075E+02  0.51100000000E-03 0. -1.
        -11    1    3    3    0    0 -0.57178907383E+01 -0.95191290276E+00  0.56829987675E+01  0.81176898144E+01  0.51100000000E-03 0.  1.
        -12    1    3    3    0    0  0.10640576162E+02  0.46852771156E+01  0.23573694312E+02  0.26284838714E+02  0.00000000000E+00 0.  1.
</event>
<event>
 7    1  0.2656097E-013  0.7246149E+02  0.7816164E-02  0.1226708E+00
        -11   -1    0    0    0    0  0.00000000000E+00  0.00000000000E+00  0.45593999997E+02  0.45594000000E+02  0.51100000000E-03 0.  1.
         11   -1    0    0    0    0 -0.00000000000E+00 -0.00000000000E+00 -0.45593999997E+02  0.45594000000E+02  0.51100000000E-03 0. -1.
    9900012    2    1    2    0    0 -0.17765519709E+01 -0.11271025669E+02 -0.14848902462E+02  0.72461493095E+02  0.69999899434E+02 0.  0.
        -12    1    1    2    0    0  0.17765519709E+01  0.11271025669E+02  0.14848902462E+02  0.18726506905E+02  0.00000000000E+00 0.  1.
         11    1    3    3    0    0  0.10184887697E+01  0.10828126852E+02 -0.16094254497E+02  0.19424486571E+02  0.51100000000E-03 0. -1.
        -11    1    3    3    0    0  0.20355219019E+02 -0.68424275736E+01 -0.92627461691E+01  0.23387009712E+02  0.51100000000E-03 0.  1.
        -12    1    3    3    0    0 -0.23150259760E+02 -0.15256724947E+02  0.10508098204E+02  0.29649996812E+02  0.00000000000E+00 0.  1.
</event>
<event>
 7    1  0.2656097E-013  0.7246161E+02  0.7816164E-02  0.1226708E+00
        -11   -1    0    0    0    0  0.00000000000E+00  0.00000000000E+00  0.45593999997E+02  0.45594000000E+02  0.51100000000E-03 0. -1.
         11   -1    0    0    0    0 -0.00000000000E+00 -0.00000000000E+00 -0.45593999997E+02  0.45594000000E+02  0.51100000000E-03 0.  1.
    9900012    2    1    2    0    0  0.13702681172E+02 -0.64135316138E+01  0.11035443042E+02  0.72461605200E+02  0.70000045471E+02 0.  0.
        -12    1    1    2    0    0 -0.13702681172E+02  0.64135316138E+01 -0.11035443042E+02  0.18726394800E+02  0.00000000000E+00 0.  1.
         11    1    3    3    0    0 -0.17249629149E+01 -0.24502934230E+02  0.18035427166E+02  0.30473692199E+02  0.51100000000E-03 0. -1.
        -11    1    3    3    0    0 -0.51491168956E+00 -0.71120846460E+01  0.61310833605E+01  0.94040983350E+01  0.51100000000E-03 0.  1.
        -12    1    3    3    0    0  0.15942555777E+02  0.25201487262E+02 -0.13131067485E+02  0.32583814666E+02  0.00000000000E+00 0.  1.
</event>
<event>
 7    1  0.2656097E-013  0.7246162E+02  0.7816164E-02  0.1226708E+00
        -11   -1    0    0    0    0  0.00000000000E+00  0.00000000000E+00  0.45593999997E+02  0.45594000000E+02  0.51100000000E-03 0. -1.
         11   -1    0    0    0    0 -0.00000000000E+00 -0.00000000000E+00 -0.45593999997E+02  0.45594000000E+02  0.51100000000E-03 0.  1.
    9900012    2    1    2    0    0  0.10848559707E+02 -0.19670572168E+01  0.15136604908E+02  0.72461618343E+02  0.70000062593E+02 0.  0.
        -12    1    1    2    0    0 -0.10848559707E+02  0.19670572168E+01 -0.15136604908E+02  0.18726381657E+02  0.00000000000E+00 0.  1.
         11    1    3    3    0    0 -0.20270508167E+02  0.14346899179E+02  0.22263176147E+02  0.33352301716E+02  0.51100000000E-03 0. -1.
        -11    1    3    3    0    0  0.62563392755E+01  0.22165772966E+01  0.17329014678E+01  0.68598792847E+01  0.51100000000E-03 0.  1.
        -12    1    3    3    0    0  0.24862728598E+02 -0.18530533692E+02 -0.88594727063E+01  0.32249437342E+02  0.00000000000E+00 0.  1.
</event>
<event>
 7    1  0.2656097E-013  0.7246155E+02  0.7816164E-02  0.1226708E+00
        -11   -1    0    0    0    0  0.00000000000E+00  0.00000000000E+00  0.45593999997E+02  0.45594000000E+02  0.51100000000E-03 0. -1.
         11   -1    0    0    0    0 -0.00000000000E+00 -0.00000000000E+00 -0.45593999997E+02  0.45594000000E+02  0.51100000000E-03 0.  1.
    9900012    2    1    2    0    0 -0.15022385517E+02 -0.69277328652E+01  0.87757775036E+01  0.72461552925E+02  0.69999977373E+02 0.  0.
        -12    1    1    2    0    0  0.15022385517E+02  0.69277328652E+01 -0.87757775036E+01  0.18726447075E+02  0.00000000000E+00 0.  1.
         11    1    3    3    0    0 -0.32716824033E+02 -0.83792257434E+01  0.21682924316E+02  0.40134165072E+02  0.51100000000E-03 0. -1.
        -11    1    3    3    0    0  0.33352686992E+01  0.19221117073E+01  0.68745863155E+01  0.78789890203E+01  0.51100000000E-03 0.  1.
        -12    1    3    3    0    0  0.14359169817E+02 -0.47061882905E+00 -0.19781733128E+02  0.24448398832E+02  0.00000000000E+00 0.  1.
</event>
<event>
 7    1  0.2656097E-013  0.7246157E+02  0.7816164E-02  0.1226708E+00
        -11   -1    0    0    0    0  0.00000000000E+00  0.00000000000E+00  0.45593999997E+02  0.45594000000E+02  0.51100000000E-03 0. -1.
         11   -1    0    0    0    0 -0.00000000000E+00 -0.00000000000E+00 -0.45593999997E+02  0.45594000000E+02  0.51100000000E-03 0.  1.
    9900012    2    1    2    0    0  0.15325023903E+02  0.69883361694E+01 -0.81844903678E+01  0.72461572615E+02  0.70000003023E+02 0.  0.
        -12    1    1    2    0    0 -0.15325023903E+02 -0.69883361694E+01  0.81844903678E+01  0.18726427385E+02  0.00000000000E+00 0.  1.
         11    1    3    3    0    0  0.21235528679E+02  0.41578047275E+01 -0.19030636505E+02  0.28816664354E+02  0.51100000000E-03 0. -1.
        -11    1    3    3    0    0  0.40193453627E+01 -0.79357746352E+01 -0.12945021410E+02  0.15706853147E+02  0.51100000000E-03 0.  1.
         12    1    3    3    0    0 -0.99298501393E+01  0.10766306077E+02  0.23791167547E+02  0.27938055115E+02  0.00000000000E+00 0. -1.
</event>
<event>
 7    1  0.2656097E-013  0.7246160E+02  0.7816164E-02  0.1226708E+00
        -11   -1    0    0    0    0  0.00000000000E+00  0.00000000000E+00  0.45593999997E+02  0.45594000000E+02  0.51100000000E-03 0.  1.
         11   -1    0    0    0    0 -0.00000000000E+00 -0.00000000000E+00 -0.45593999997E+02  0.45594000000E+02  0.51100000000E-03 0. -1.
    9900012    2    1    2    0    0  0.15766320512E+02  0.69734797566E+01 -0.73124462792E+01  0.72461597436E+02  0.70000035357E+02 0.  0.
        -12    1    1    2    0    0 -0.15766320512E+02 -0.69734797566E+01  0.73124462792E+01  0.18726402564E+02  0.00000000000E+00 0.  1.
         11    1    3    3    0    0  0.18442801656E+02 -0.71988133804E+01  0.29314525672E+00  0.19800145995E+02  0.51100000000E-03 0. -1.
        -11    1    3    3    0    0  0.90150500179E+01  0.20736260287E+02  0.14461510470E+02  0.26840247817E+02  0.51100000000E-03 0.  1.
         12    1    3    3    0    0 -0.11691531162E+02 -0.65639671499E+01 -0.22067102006E+02  0.25821203624E+02  0.00000000000E+00 0. -1.
</event>
<event>
 7    1  0.2656097E-013  0.7246153E+02  0.7816164E-02  0.1226708E+00
        -11   -1    0    0    0    0  0.00000000000E+00  0.00000000000E+00  0.45593999997E+02  0.45594000000E+02  0.51100000000E-03 0.  1.
         11   -1    0    0    0    0 -0.00000000000E+00 -0.00000000000E+00 -0.45593999997E+02  0.45594000000E+02  0.51100000000E-03 0. -1.
    9900012    2    1    2    0    0  0.12405035238E+02  0.53721120402E+01  0.12959024376E+02  0.72461526765E+02  0.69999943295E+02 0.  0.
        -12    1    1    2    0    0 -0.12405035238E+02 -0.53721120402E+01 -0.12959024376E+02  0.18726473235E+02  0.00000000000E+00 0.  1.
         11    1    3    3    0    0  0.19437751701E+02 -0.67350428822E+01  0.94580275658E+01  0.22641582973E+02  0.51100000000E-03 0. -1.
        -11    1    3    3    0    0  0.50867314700E+01  0.28604901346E+02  0.10758642862E-01  0.29053663006E+02  0.51100000000E-03 0.  1.
        -12    1    3    3    0    0 -0.12119447932E+02 -0.16497746424E+02  0.34902381670E+01  0.20766280787E+02  0.00000000000E+00 0.  1.
</event>
<event>
 7    1  0.2656097E-013  0.7246152E+02  0.7816164E-02  0.1226708E+00
        -11   -1    0    0    0    0  0.00000000000E+00  0.00000000000E+00  0.45593999997E+02  0.45594000000E+02  0.51100000000E-03 0.  1.
         11   -1    0    0    0    0 -0.00000000000E+00 -0.00000000000E+00 -0.45593999997E+02  0.45594000000E+02  0.51100000000E-03 0. -1.
    9900012    2    1    2    0    0  0.13812372399E+01 -0.14246746891E+02 -0.12074907341E+02  0.72461521405E+02  0.69999936312E+02 0.  0.
        -12    1    1    2    0    0 -0.13812372399E+01  0.14246746891E+02  0.12074907341E+02  0.18726478595E+02  0.00000000000E+00 0.  1.
         11    1    3    3    0    0  0.19913690831E+01 -0.38203330373E+01  0.77522934966E+01  0.88689655574E+01  0.51100000000E-03 0. -1.
        -11    1    3    3    0    0 -0.17617258798E+02  0.17683384139E+02  0.48538194399E+00  0.24966086559E+02  0.51100000000E-03 0.  1.
         12    1    3    3    0    0  0.17007126955E+02 -0.28109797993E+02 -0.20312582781E+02  0.38626469289E+02  0.00000000000E+00 0. -1.
</event>
<event>
 7    1  0.2656097E-013  0.7246158E+02  0.7816164E-02  0.1226708E+00
        -11   -1    0    0    0    0  0.00000000000E+00  0.00000000000E+00  0.45593999997E+02  0.45594000000E+02  0.51100000000E-03 0.  1.
         11   -1    0    0    0    0 -0.00000000000E+00 -0.00000000000E+00 -0.45593999997E+02  0.45594000000E+02  0.51100000000E-03 0. -1.
    9900012    2    1    2    0    0  0.25526450588E+01  0.13212325219E+02 -0.13022958193E+02  0.72461575499E+02  0.70000006780E+02 0.  0.
        -12    1    1    2    0    0 -0.25526450588E+01 -0.13212325219E+02  0.13022958193E+02  0.18726424501E+02  0.00000000000E+00 0.  1.
         11    1    3    3    0    0 -0.44673157459E+00  0.25011556805E+02 -0.25931911678E+02  0.36031119695E+02  0.51100000000E-03 0. -1.
        -11    1    3    3    0    0  0.10127502967E+02  0.15727599211E+01 -0.62492616908E+01  0.12003881124E+02  0.51100000000E-03 0.  1.
        -12    1    3    3    0    0 -0.71281263333E+01 -0.13371991507E+02  0.19158215175E+02  0.24426574680E+02  0.00000000000E+00 0.  1.
</event>
<event>
 7    1  0.2656097E-013  0.7246164E+02  0.7816164E-02  0.1226708E+00
        -11   -1    0    0    0    0  0.00000000000E+00  0.00000000000E+00  0.45593999997E+02  0.45594000000E+02  0.51100000000E-03 0.  1.
         11   -1    0    0    0    0 -0.00000000000E+00 -0.00000000000E+00 -0.45593999997E+02  0.45594000000E+02  0.51100000000E-03 0. -1.
    9900012    2    1    2    0    0 -0.67968252887E+01  0.10330776589E+02 -0.14062533549E+02  0.72461638134E+02  0.70000088373E+02 0.  0.
        -12    1    1    2    0    0  0.67968252887E+01 -0.10330776589E+02  0.14062533549E+02  0.18726361866E+02  0.00000000000E+00 0.  1.
         11    1    3    3    0    0  0.24954534257E+01  0.23780305964E+01 -0.21295707728E+02  0.21572887735E+02  0.51100000000E-03 0. -1.
        -11    1    3    3    0    0  0.97493702131E+01 -0.18548434602E+01  0.22496153970E+02  0.24587956554E+02  0.51100000000E-03 0.  1.
         12    1    3    3    0    0 -0.19041648927E+02  0.98075894530E+01 -0.15262979791E+02  0.26300793844E+02  0.00000000000E+00 0. -1.
</event>
<event>
 7    1  0.2656097E-013  0.7246160E+02  0.7816164E-02  0.1226708E+00
        -11   -1    0    0    0    0  0.00000000000E+00  0.00000000000E+00  0.45593999997E+02  0.45594000000E+02  0.51100000000E-03 0. -1.
         11   -1    0    0    0    0 -0.00000000000E+00 -0.00000000000E+00 -0.45593999997E+02  0.45594000000E+02  0.51100000000E-03 0.  1.
    9900012    2    1    2    0    0 -0.99025248327E+01 -0.13802520966E+02  0.78809016425E+01  0.72461596347E+02  0.70000033938E+02 0.  0.
        -12    1    1    2    0    0  0.99025248327E+01  0.13802520966E+02 -0.78809016425E+01  0.18726403653E+02  0.00000000000E+00 0.  1.
         11    1    3    3    0    0 -0.73689044330E+01 -0.87545697635E+01 -0.15063101685E+02  0.18916666644E+02  0.51100000000E-03 0. -1.
        -11    1    3    3    0    0  0.64635842738E+01  0.20153989280E+02  0.13797101984E+02  0.25265019869E+02  0.51100000000E-03 0.  1.
         12    1    3    3    0    0 -0.89972046734E+01 -0.25201940483E+02  0.91469013431E+01  0.28279909834E+02  0.00000000000E+00 0. -1.
</event>
<event>
 7    1  0.2656097E-013  0.7246147E+02  0.7816164E-02  0.1226708E+00
        -11   -1    0    0    0    0  0.00000000000E+00  0.00000000000E+00  0.45593999997E+02  0.45594000000E+02  0.51100000000E-03 0.  1.
         11   -1    0    0    0    0 -0.00000000000E+00 -0.00000000000E+00 -0.45593999997E+02  0.45594000000E+02  0.51100000000E-03 0. -1.
    9900012    2    1    2    0    0 -0.15180026082E+01  0.18664409794E+02  0.13630233558E+00  0.72461465265E+02  0.69999863179E+02 0.  0.
        -12    1    1    2    0    0  0.15180026082E+01 -0.18664409794E+02 -0.13630233558E+00  0.18726534735E+02  0.00000000000E+00 0.  1.
         11    1    3    3    0    0  0.10015809196E+02  0.10922802181E+02 -0.59929710386E+00  0.14831830589E+02  0.51100000000E-03 0. -1.
        -11    1    3    3    0    0 -0.13553666300E+01  0.25837976685E+02  0.17253128784E+02  0.31098368301E+02  0.51100000000E-03 0.  1.
         12    1    3    3    0    0 -0.10178445174E+02 -0.18096369073E+02 -0.16517529345E+02  0.26531266375E+02  0.00000000000E+00 0. -1.
</event>
<event>
 7    1  0.2656097E-013  0.7246154E+02  0.7816164E-02  0.1226708E+00
        -11   -1    0    0    0    0  0.00000000000E+00  0.00000000000E+00  0.45593999997E+02  0.45594000000E+02  0.51100000000E-03 0. -1.
         11   -1    0    0    0    0 -0.00000000000E+00 -0.00000000000E+00 -0.45593999997E+02  0.45594000000E+02  0.51100000000E-03 0.  1.
    9900012    2    1    2    0    0 -0.17068061926E+02  0.80538038826E+00 -0.76624482160E+01  0.72461535086E+02  0.69999954135E+02 0.  0.
        -12    1    1    2    0    0  0.17068061926E+02 -0.80538038826E+00  0.76624482160E+01  0.18726464914E+02  0.00000000000E+00 0.  1.
         11    1    3    3    0    0  0.19854304574E+02  0.98147686069E+01 -0.56076532379E+01  0.22846638003E+02  0.51100000000E-03 0. -1.
        -11    1    3    3    0    0  0.92567804149E+00  0.14596519806E+01  0.87236898766E+01  0.88932687503E+01  0.51100000000E-03 0.  1.
        -12    1    3    3    0    0 -0.37848044542E+02 -0.10469040199E+02 -0.10778484855E+02  0.40721628333E+02  0.00000000000E+00 0.  1.
</event>
<event>
 7    1  0.2656097E-013  0.7246158E+02  0.7816164E-02  0.1226708E+00
        -11   -1    0    0    0    0  0.00000000000E+00  0.00000000000E+00  0.45593999997E+02  0.45594000000E+02  0.51100000000E-03 0.  1.
         11   -1    0    0    0    0 -0.00000000000E+00 -0.00000000000E+00 -0.45593999997E+02  0.45594000000E+02  0.51100000000E-03 0. -1.
    9900012    2    1    2    0    0  0.14191770022E+02  0.70650308382E+01  0.99678323982E+01  0.72461583370E+02  0.70000017033E+02 0.  0.
        -12    1    1    2    0    0 -0.14191770022E+02 -0.70650308382E+01 -0.99678323982E+01  0.18726416630E+02  0.00000000000E+00 0.  1.
         11    1    3    3    0    0 -0.16456356260E+02  0.22387063372E+01 -0.69747493217E+00  0.16622573175E+02  0.51100000000E-03 0. -1.
        -11    1    3    3    0    0 -0.69627377444E+01 -0.79980472521E+01  0.12083348259E+02  0.16076560023E+02  0.51100000000E-03 0.  1.
        -12    1    3    3    0    0  0.37610864026E+02  0.12824371753E+02 -0.14180409290E+01  0.39762450172E+02  0.00000000000E+00 0.  1.
</event>
<event>
 7    1  0.2656097E-013  0.7246159E+02  0.7816164E-02  0.1226708E+00
        -11   -1    0    0    0    0  0.00000000000E+00  0.00000000000E+00  0.45593999997E+02  0.45594000000E+02  0.51100000000E-03 0.  1.
         11   -1    0    0    0    0 -0.00000000000E+00 -0.00000000000E+00 -0.45593999997E+02  0.45594000000E+02  0.51100000000E-03 0. -1.
    9900012    2    1    2    0    0  0.14700867241E+02  0.10328679405E+02 -0.52802586519E+01  0.72461594918E+02  0.70000032076E+02 0.  0.
        -12    1    1    2    0    0 -0.14700867241E+02 -0.10328679405E+02  0.52802586519E+01  0.18726405082E+02  0.00000000000E+00 0.  1.
         11    1    3    3    0    0  0.15275354583E+02  0.16184515453E+02  0.59087047315E+01  0.23025807042E+02  0.51100000000E-03 0. -1.
        -11    1    3    3    0    0  0.92092473071E+01  0.16031784371E+02  0.65472123720E+01  0.19613626289E+02  0.51100000000E-03 0.  1.
         12    1    3    3    0    0 -0.97837346492E+01 -0.21887620419E+02 -0.17736175755E+02  0.29822161587E+02  0.00000000000E+00 0. -1.
</event>
<event>
 7    1  0.2656097E-013  0.7246155E+02  0.7816164E-02  0.1226708E+00
        -11   -1    0    0    0    0  0.00000000000E+00  0.00000000000E+00  0.45593999997E+02  0.45594000000E+02  0.51100000000E-03 0. -1.
         11   -1    0    0    0    0 -0.00000000000E+00 -0.00000000000E+00 -0.45593999997E+02  0.45594000000E+02  0.51100000000E-03 0.  1.
    9900012    2    1    2    0    0 -0.98984923742E+01 -0.11099837717E+02  0.11379520090E+02  0.72461547423E+02  0.69999970206E+02 0.  0.
        -12    1    1    2    0    0  0.98984923742E+01  0.11099837717E+02 -0.11379520090E+02  0.18726452577E+02  0.00000000000E+00 0.  1.
         11    1    3    3    0    0 -0.13462795295E+02 -0.17116364212E+02  0.28716790084E+02  0.36039850360E+02  0.51100000000E-03 0. -1.
        -11    1    3    3    0    0 -0.49708109161E+01 -0.11274220800E+02 -0.39183101951E+01  0.12929430415E+02  0.51100000000E-03 0.  1.
         12    1    3    3    0    0  0.85351138372E+01  0.17290747294E+02 -0.13418959799E+02  0.23492266648E+02  0.00000000000E+00 0. -1.
</event>
<event>
 7    1  0.2656097E-013  0.7246136E+02  0.7816164E-02  0.1226709E+00
        -11   -1    0    0    0    0  0.00000000000E+00  0.00000000000E+00  0.45593999997E+02  0.45594000000E+02  0.51100000000E-03 0. -1.
         11   -1    0    0    0    0 -0.00000000000E+00 -0.00000000000E+00 -0.45593999997E+02  0.45594000000E+02  0.51100000000E-03 0.  1.
    9900012    2    1    2    0    0 -0.17765764650E+02 -0.39459152229E+01 -0.44152677606E+01  0.72461355080E+02  0.69999719643E+02 0.  0.
        -12    1    1    2    0    0  0.17765764650E+02  0.39459152229E+01  0.44152677606E+01  0.18726644920E+02  0.00000000000E+00 0.  1.
         11    1    3    3    0    0 -0.21885695763E+02 -0.10892420150E+02 -0.22322976827E+02  0.33105041767E+02  0.51100000000E-03 0. -1.
        -11    1    3    3    0    0 -0.79310124191E+01 -0.10632524723E+02  0.38042526234E+01  0.13799415867E+02  0.51100000000E-03 0.  1.
         12    1    3    3    0    0  0.12050943532E+02  0.17579029650E+02  0.14103456442E+02  0.25556897446E+02  0.00000000000E+00 0. -1.
</event>
<event>
 7    1  0.2656097E-013  0.7246153E+02  0.7816164E-02  0.1226708E+00
        -11   -1    0    0    0    0  0.00000000000E+00  0.00000000000E+00  0.45593999997E+02  0.45594000000E+02  0.51100000000E-03 0.  1.
         11   -1    0    0    0    0 -0.00000000000E+00 -0.00000000000E+00 -0.45593999997E+02  0.45594000000E+02  0.51100000000E-03 0. -1.
    9900012    2    1    2    0    0 -0.46081665813E+01  0.17820251355E+02 -0.34473409984E+01  0.72461528962E+02  0.69999946157E+02 0.  0.
        -12    1    1    2    0    0  0.46081665813E+01 -0.17820251355E+02  0.34473409984E+01  0.18726471038E+02  0.00000000000E+00 0.  1.
         11    1    3    3    0    0  0.21964915741E+02 -0.45193588722E+01 -0.21670862830E+01  0.22529500469E+02  0.51100000000E-03 0. -1.
        -11    1    3    3    0    0  0.11686495238E+01  0.33927900047E+01  0.12957387175E+02  0.13445097559E+02  0.51100000000E-03 0.  1.
        -12    1    3    3    0    0 -0.27741731847E+02  0.18946820222E+02 -0.14237641890E+02  0.36486930934E+02  0.00000000000E+00 0.  1.
</event>
<event>
 7    1  0.2656097E-013  0.7246154E+02  0.7816164E-02  0.1226708E+00
        -11   -1    0    0    0    0  0.00000000000E+00  0.00000000000E+00  0.45593999997E+02  0.45594000000E+02  0.51100000000E-03 0.  1.
         11   -1    0    0    0    0 -0.00000000000E+00 -0.00000000000E+00 -0.45593999997E+02  0.45594000000E+02  0.51100000000E-03 0. -1.
    9900012    2    1    2    0    0 -0.61564246496E+01  0.15357147343E+01 -0.17618744791E+02  0.72461544056E+02  0.69999965819E+02 0.  0.
        -12    1    1    2    0    0  0.61564246496E+01 -0.15357147343E+01  0.17618744791E+02  0.18726455944E+02  0.00000000000E+00 0.  1.
         11    1    3    3    0    0  0.26335624619E+01 -0.13476954130E+01 -0.78263560801E+01  0.83668263948E+01  0.51100000000E-03 0. -1.
        -11    1    3    3    0    0  0.11222875109E+02 -0.10515684816E+02  0.20352669859E+02  0.25510071021E+02  0.51100000000E-03 0.  1.
         12    1    3    3    0    0 -0.20012862220E+02  0.13399094963E+02 -0.30145058571E+02  0.38584646640E+02  0.00000000000E+00 0. -1.
</event>
<event>
 7    1  0.2656097E-013  0.7246155E+02  0.7816164E-02  0.1226708E+00
        -11   -1    0    0    0    0  0.00000000000E+00  0.00000000000E+00  0.45593999997E+02  0.45594000000E+02  0.51100000000E-03 0. -1.
         11   -1    0    0    0    0 -0.00000000000E+00 -0.00000000000E+00 -0.45593999997E+02  0.45594000000E+02  0.51100000000E-03 0.  1.
    9900012    2    1    2    0    0 -0.38324242736E+01 -0.11127518791E+02  0.14566080523E+02  0.72461552070E+02  0.69999976259E+02 0.  0.
        -12    1    1    2    0    0  0.38324242736E+01  0.11127518791E+02 -0.14566080523E+02  0.18726447930E+02  0.00000000000E+00 0.  1.
         11    1    3    3    0    0 -0.42614033968E+01  0.14846621800E+02  0.27474728082E+01  0.15688541834E+02  0.51100000000E-03 0. -1.
        -11    1    3    3    0    0  0.80991116274E+00  0.14755938935E+02  0.24881354040E+01  0.14986143866E+02  0.51100000000E-03 0.  1.
        -12    1    3    3    0    0 -0.38093203956E+00 -0.40730079526E+02  0.93304723112E+01  0.41786866369E+02  0.00000000000E+00 0.  1.
</event>
<event>
 7    1  0.2656097E-013  0.7246158E+02  0.7816164E-02  0.1226708E+00
        -11   -1    0    0    0    0  0.00000000000E+00  0.00000000000E+00  0.45593999997E+02  0.45594000000E+02  0.51100000000E-03 0.  1.
         11   -1    0    0    0    0 -0.00000000000E+00 -0.00000000000E+00 -0.45593999997E+02  0.45594000000E+02  0.51100000000E-03 0. -1.
    9900012    2    1    2    0    0 -0.24376812384E+01 -0.28255583208E+01 -0.18350824908E+02  0.72461578974E+02  0.70000011307E+02 0.  0.
        -12    1    1    2    0    0  0.24376812384E+01  0.28255583208E+01  0.18350824908E+02  0.18726421026E+02  0.00000000000E+00 0.  1.
         11    1    3    3    0    0  0.23844801636E+01 -0.78081748054E+00  0.11569536939E+01  0.27629628481E+01  0.51100000000E-03 0. -1.
        -11    1    3    3    0    0 -0.27991399444E+00  0.37452877257E+00  0.24944773395E+02  0.24949155169E+02  0.51100000000E-03 0.  1.
         12    1    3    3    0    0 -0.45422474076E+01 -0.24192696128E+01 -0.44452551997E+02  0.44749460957E+02  0.00000000000E+00 0. -1.
</event>
<event>
 7    1  0.2656097E-013  0.7246156E+02  0.7816164E-02  0.1226708E+00
        -11   -1    0    0    0    0  0.00000000000E+00  0.00000000000E+00  0.45593999997E+02  0.45594000000E+02  0.51100000000E-03 0.  1.
         11   -1    0    0    0    0 -0.00000000000E+00 -0.00000000000E+00 -0.45593999997E+02  0.45594000000E+02  0.51100000000E-03 0. -1.
    9900012    2    1    2    0    0  0.17258733014E+02 -0.34019899994E-01 -0.72673507462E+01  0.72461563887E+02  0.69999991654E+02 0.  0.
        -12    1    1    2    0    0 -0.17258733014E+02  0.34019899994E-01  0.72673507462E+01  0.18726436113E+02  0.00000000000E+00 0.  1.
         11    1    3    3    0    0  0.24108466566E+02 -0.11728967645E+01 -0.85119863550E+01  0.25593900816E+02  0.51100000000E-03 0. -1.
        -11    1    3    3    0    0  0.17524114391E+02  0.29788135208E+01  0.10599095947E+02  0.20695621526E+02  0.51100000000E-03 0.  1.
        -12    1    3    3    0    0 -0.24373847943E+02 -0.18399366564E+01 -0.93544603386E+01  0.26172041546E+02  0.00000000000E+00 0.  1.
</event>
<event>
 7    1  0.2656097E-013  0.7246153E+02  0.7816164E-02  0.1226708E+00
        -11   -1    0    0    0    0  0.00000000000E+00  0.00000000000E+00  0.45593999997E+02  0.45594000000E+02  0.51100000000E-03 0.  1.
         11   -1    0    0    0    0 -0.00000000000E+00 -0.00000000000E+00 -0.45593999997E+02  0.45594000000E+02  0.51100000000E-03 0. -1.
    9900012    2    1    2    0    0 -0.14347726551E+02  0.16769459992E-01 -0.12034241883E+02  0.72461534340E+02  0.69999953163E+02 0.  0.
        -12    1    1    2    0    0  0.14347726551E+02 -0.16769459992E-01  0.12034241883E+02  0.18726465660E+02  0.00000000000E+00 0.  1.
         11    1    3    3    0    0 -0.24815054112E+02  0.14865893428E+02 -0.29011379284E+02  0.40968790880E+02  0.51100000000E-03 0. -1.
        -11    1    3    3    0    0  0.12821660880E+01  0.41247202705E+01 -0.16478662794E+00  0.43225481004E+01  0.51100000000E-03 0.  1.
        -12    1    3    3    0    0  0.91851614727E+01 -0.18973844238E+02  0.17141924029E+02  0.27170195359E+02  0.00000000000E+00 0.  1.
</event>
<event>
 7    1  0.2656097E-013  0.7246204E+02  0.7816164E-02  0.1226707E+00
        -11   -1    0    0    0    0  0.00000000000E+00  0.00000000000E+00  0.45593999997E+02  0.45594000000E+02  0.51100000000E-03 0. -1.
         11   -1    0    0    0    0 -0.00000000000E+00 -0.00000000000E+00 -0.45593999997E+02  0.45594000000E+02  0.51100000000E-03 0.  1.
    9900012    2    1    2    0    0  0.16747028611E+02  0.68970403756E+01  0.47570236898E+01  0.72462044547E+02  0.70000617800E+02 0.  0.
        -12    1    1    2    0    0 -0.16747028611E+02 -0.68970403756E+01 -0.47570236898E+01  0.18725955453E+02  0.00000000000E+00 0.  1.
         11    1    3    3    0    0  0.85622521303E+00  0.31000116678E+01  0.34337988786E+02  0.34488268558E+02  0.51100000000E-03 0. -1.
        -11    1    3    3    0    0 -0.33671383325E+01  0.10737280460E+01 -0.15574047570E+01  0.38621266557E+01  0.51100000000E-03 0.  1.
        -12    1    3    3    0    0  0.19257941730E+02  0.27233006618E+01 -0.28023560339E+02  0.34111649334E+02  0.00000000000E+00 0.  1.
</event>
<event>
 7    1  0.2656097E-013  0.7246158E+02  0.7816164E-02  0.1226708E+00
        -11   -1    0    0    0    0  0.00000000000E+00  0.00000000000E+00  0.45593999997E+02  0.45594000000E+02  0.51100000000E-03 0. -1.
         11   -1    0    0    0    0 -0.00000000000E+00 -0.00000000000E+00 -0.45593999997E+02  0.45594000000E+02  0.51100000000E-03 0.  1.
    9900012    2    1    2    0    0  0.98555932414E+00 -0.18347536939E+02 -0.36160015905E+01  0.72461577320E+02  0.70000009152E+02 0.  0.
        -12    1    1    2    0    0 -0.98555932414E+00  0.18347536939E+02  0.36160015905E+01  0.18726422680E+02  0.00000000000E+00 0.  1.
         11    1    3    3    0    0  0.44024415966E+01 -0.18449993093E+01 -0.14635645467E+02  0.15394402650E+02  0.51100000000E-03 0. -1.
        -11    1    3    3    0    0 -0.12930216293E+02 -0.15202367699E+02 -0.17767759771E+02  0.26720699178E+02  0.51100000000E-03 0.  1.
        -12    1    3    3    0    0  0.95133340202E+01 -0.13001699303E+01  0.28787403647E+02  0.30346475492E+02  0.00000000000E+00 0.  1.
</event>
<event>
 7    1  0.2656097E-013  0.7246149E+02  0.7816164E-02  0.1226708E+00
        -11   -1    0    0    0    0  0.00000000000E+00  0.00000000000E+00  0.45593999997E+02  0.45594000000E+02  0.51100000000E-03 0. -1.
         11   -1    0    0    0    0 -0.00000000000E+00 -0.00000000000E+00 -0.45593999997E+02  0.45594000000E+02  0.51100000000E-03 0.  1.
    9900012    2    1    2    0    0  0.57086111360E+01 -0.14359350644E+01  0.17777292002E+02  0.72461487737E+02  0.69999892454E+02 0.  0.
        -12    1    1    2    0    0 -0.57086111360E+01  0.14359350644E+01 -0.17777292002E+02  0.18726512263E+02  0.00000000000E+00 0.  1.
         11    1    3    3    0    0 -0.21614460792E+02 -0.14043317259E+01  0.13899221571E+02  0.25736072418E+02  0.51100000000E-03 0. -1.
        -11    1    3    3    0    0 -0.35804900085E+01  0.12400329280E+02 -0.14629122353E+01  0.12989541463E+02  0.51100000000E-03 0.  1.
         12    1    3    3    0    0  0.30903561937E+02 -0.12431932619E+02  0.53409826655E+01  0.33735873856E+02  0.00000000000E+00 0. -1.
</event>
<event>
 7    1  0.2656097E-013  0.7246156E+02  0.7816164E-02  0.1226708E+00
        -11   -1    0    0    0    0  0.00000000000E+00  0.00000000000E+00  0.45593999997E+02  0.45594000000E+02  0.51100000000E-03 0.  1.
         11   -1    0    0    0    0 -0.00000000000E+00 -0.00000000000E+00 -0.45593999997E+02  0.45594000000E+02  0.51100000000E-03 0. -1.
    9900012    2    1    2    0    0 -0.12895259053E+02  0.18394238111E+01 -0.13453930322E+02  0.72461563417E+02  0.69999991041E+02 0.  0.
        -12    1    1    2    0    0  0.12895259053E+02 -0.18394238111E+01  0.13453930322E+02  0.18726436583E+02  0.00000000000E+00 0.  1.
         11    1    3    3    0    0 -0.11585988486E+01 -0.22636636826E+02 -0.17211743630E+02  0.28460565651E+02  0.51100000000E-03 0. -1.
        -11    1    3    3    0    0  0.26023733047E+01 -0.78807385714E+01 -0.70438520772E+00  0.83291383726E+01  0.51100000000E-03 0.  1.
        -12    1    3    3    0    0 -0.14339033509E+02  0.32356799209E+02  0.44621985161E+01  0.35671859394E+02  0.00000000000E+00 0.  1.
</event>
<event>
 7    1  0.2656097E-013  0.7246160E+02  0.7816164E-02  0.1226708E+00
        -11   -1    0    0    0    0  0.00000000000E+00  0.00000000000E+00  0.45593999997E+02  0.45594000000E+02  0.51100000000E-03 0. -1.
         11   -1    0    0    0    0 -0.00000000000E+00 -0.00000000000E+00 -0.45593999997E+02  0.45594000000E+02  0.51100000000E-03 0.  1.
    9900012    2    1    2    0    0  0.15739579999E+02 -0.84086105356E+01  0.56779483423E+01  0.72461595993E+02  0.70000033477E+02 0.  0.
        -12    1    1    2    0    0 -0.15739579999E+02  0.84086105356E+01 -0.56779483423E+01  0.18726404007E+02  0.00000000000E+00 0.  1.
         11    1    3    3    0    0  0.13300986905E+02  0.44392237718E+01 -0.24038035958E+01  0.14226778706E+02  0.51100000000E-03 0. -1.
        -11    1    3    3    0    0  0.15829068582E+02  0.14573734267E+02  0.15875204580E+02  0.26739021362E+02  0.51100000000E-03 0.  1.
         12    1    3    3    0    0 -0.13390475489E+02 -0.27421568574E+02 -0.77934526421E+01  0.31495795925E+02  0.00000000000E+00 0. -1.
</event>
<event>
 7    1  0.3054482E-013  0.7246156E+02  0.7816164E-02  0.1226708E+00
        -11   -1    0    0    0    0  0.00000000000E+00  0.00000000000E+00  0.45593999997E+02  0.45594000000E+02  0.51100000000E-03 0. -1.
         11   -1    0    0    0    0 -0.00000000000E+00 -0.00000000000E+00 -0.45593999997E+02  0.45594000000E+02  0.51100000000E-03 0.  1.
    9900012    2    1    2    0    0  0.89019115339E+01 -0.11338107253E+01  0.16436244454E+02  0.72461556465E+02  0.69999981984E+02 0.  0.
        -12    1    1    2    0    0 -0.89019115339E+01  0.11338107253E+01 -0.16436244454E+02  0.18726443535E+02  0.00000000000E+00 0.  1.
         11    1    3    3    0    0  0.15823998084E+02 -0.19830948600E+02  0.29129915681E+02  0.38629230196E+02  0.51100000000E-03 0. -1.
        -11    1    3    3    0    0  0.80113933884E+01  0.33127653766E+01  0.45507020363E+00  0.86812399815E+01  0.51100000000E-03 0.  1.
        -12    1    3    3    0    0 -0.14933479938E+02  0.15384372498E+02 -0.13148741430E+02  0.25151086287E+02  0.00000000000E+00 0.  1.
</event>
<event>
 7    1  0.2656097E-013  0.7246157E+02  0.7816164E-02  0.1226708E+00
        -11   -1    0    0    0    0  0.00000000000E+00  0.00000000000E+00  0.45593999997E+02  0.45594000000E+02  0.51100000000E-03 0. -1.
         11   -1    0    0    0    0 -0.00000000000E+00 -0.00000000000E+00 -0.45593999997E+02  0.45594000000E+02  0.51100000000E-03 0.  1.
    9900012    2    1    2    0    0  0.15749567720E+02  0.98984926128E+01 -0.21564499175E+01  0.72461566393E+02  0.69999994918E+02 0.  0.
        -12    1    1    2    0    0 -0.15749567720E+02 -0.98984926128E+01  0.21564499175E+01  0.18726433607E+02  0.00000000000E+00 0.  1.
         11    1    3    3    0    0  0.17186664182E+02  0.58203683668E+01 -0.13254991970E+02  0.22471157648E+02  0.51100000000E-03 0. -1.
        -11    1    3    3    0    0 -0.48774996141E+01 -0.16177687952E+02 -0.10727958565E+02  0.20014911571E+02  0.51100000000E-03 0.  1.
        -12    1    3    3    0    0  0.34404031516E+01  0.20255812198E+02  0.21826500618E+02  0.29975497175E+02  0.00000000000E+00 0.  1.
</event>
<event>
 7    1  0.2656097E-013  0.7246152E+02  0.7816164E-02  0.1226708E+00
        -11   -1    0    0    0    0  0.00000000000E+00  0.00000000000E+00  0.45593999997E+02  0.45594000000E+02  0.51100000000E-03 0.  1.
         11   -1    0    0    0    0 -0.00000000000E+00 -0.00000000000E+00 -0.45593999997E+02  0.45594000000E+02  0.51100000000E-03 0. -1.
    9900012    2    1    2    0    0  0.71558796317E+01 -0.10757017187E+01 -0.17271862132E+02  0.72461522248E+02  0.69999937411E+02 0.  0.
        -12    1    1    2    0    0 -0.71558796317E+01  0.10757017187E+01  0.17271862132E+02  0.18726477752E+02  0.00000000000E+00 0.  1.
         11    1    3    3    0    0 -0.36928830149E+01 -0.10128680136E+02  0.71317051430E+01  0.12926281939E+02  0.51100000000E-03 0. -1.
        -11    1    3    3    0    0 -0.12498941242E+02  0.24450754064E+01  0.10854873864E+02  0.16734103285E+02  0.51100000000E-03 0.  1.
         12    1    3    3    0    0  0.23347703888E+02  0.66079030105E+01 -0.35258441138E+02  0.42801137024E+02  0.00000000000E+00 0. -1.
</event>
<event>
 7    1  0.2656097E-013  0.7246159E+02  0.7816164E-02  0.1226708E+00
        -11   -1    0    0    0    0  0.00000000000E+00  0.00000000000E+00  0.45593999997E+02  0.45594000000E+02  0.51100000000E-03 0.  1.
         11   -1    0    0    0    0 -0.00000000000E+00 -0.00000000000E+00 -0.45593999997E+02  0.45594000000E+02  0.51100000000E-03 0. -1.
    9900012    2    1    2    0    0 -0.11637219402E+02 -0.11469940981E+02 -0.91484456931E+01  0.72461588701E+02  0.70000023979E+02 0.  0.
        -12    1    1    2    0    0  0.11637219402E+02  0.11469940981E+02  0.91484456931E+01  0.18726411299E+02  0.00000000000E+00 0.  1.
         11    1    3    3    0    0 -0.14764343223E+02 -0.43428231993E+01 -0.28289616223E+01  0.15647650567E+02  0.51100000000E-03 0. -1.
        -11    1    3    3    0    0  0.14479448035E+02  0.20222404447E+02 -0.10330019936E+02  0.26931568264E+02  0.51100000000E-03 0.  1.
         12    1    3    3    0    0 -0.11352324214E+02 -0.27349522228E+02  0.40105358656E+01  0.29882369871E+02  0.00000000000E+00 0. -1.
</event>
<event>
 7    1  0.2656097E-013  0.7246150E+02  0.7816164E-02  0.1226708E+00
        -11   -1    0    0    0    0  0.00000000000E+00  0.00000000000E+00  0.45593999997E+02  0.45594000000E+02  0.51100000000E-03 0.  1.
         11   -1    0    0    0    0 -0.00000000000E+00 -0.00000000000E+00 -0.45593999997E+02  0.45594000000E+02  0.51100000000E-03 0. -1.
    9900012    2    1    2    0    0 -0.16157204516E+02 -0.38522121362E+01 -0.86479429148E+01  0.72461502389E+02  0.69999911541E+02 0.  0.
        -12    1    1    2    0    0  0.16157204516E+02  0.38522121362E+01  0.86479429148E+01  0.18726497611E+02  0.00000000000E+00 0.  1.
         11    1    3    3    0    0  0.49857620003E+01  0.35394297467E+01 -0.13120134928E+02  0.14474920602E+02  0.51100000000E-03 0. -1.
        -11    1    3    3    0    0 -0.21095256713E+02 -0.22853791288E+02 -0.13820931306E+02  0.34034155998E+02  0.51100000000E-03 0.  1.
         12    1    3    3    0    0 -0.47709802560E-01  0.15462149405E+02  0.18293123319E+02  0.23952425790E+02  0.00000000000E+00 0. -1.
</event>
<event>
 7    1  0.2656097E-013  0.7246163E+02  0.7816164E-02  0.1226708E+00
        -11   -1    0    0    0    0  0.00000000000E+00  0.00000000000E+00  0.45593999997E+02  0.45594000000E+02  0.51100000000E-03 0.  1.
         11   -1    0    0    0    0 -0.00000000000E+00 -0.00000000000E+00 -0.45593999997E+02  0.45594000000E+02  0.51100000000E-03 0. -1.
    9900012    2    1    2    0    0  0.47014098757E+01 -0.15684400790E+02 -0.90869790640E+01  0.72461631653E+02  0.70000079931E+02 0.  0.
        -12    1    1    2    0    0 -0.47014098757E+01  0.15684400790E+02  0.90869790640E+01  0.18726368347E+02  0.00000000000E+00 0.  1.
         11    1    3    3    0    0  0.45231617052E+01 -0.12988845288E+02 -0.16458607185E+02  0.21448889119E+02  0.51100000000E-03 0. -1.
        -11    1    3    3    0    0  0.58712805803E+01 -0.25715695413E+02  0.73400170633E+00  0.26387642657E+02  0.51100000000E-03 0.  1.
         12    1    3    3    0    0 -0.56930324098E+01  0.23020139911E+02  0.66376264146E+01  0.24625099877E+02  0.00000000000E+00 0. -1.
</event>
<event>
 7    1  0.2656097E-013  0.7246158E+02  0.7816164E-02  0.1226708E+00
        -11   -1    0    0    0    0  0.00000000000E+00  0.00000000000E+00  0.45593999997E+02  0.45594000000E+02  0.51100000000E-03 0.  1.
         11   -1    0    0    0    0 -0.00000000000E+00 -0.00000000000E+00 -0.45593999997E+02  0.45594000000E+02  0.51100000000E-03 0. -1.
    9900012    2    1    2    0    0  0.58736668594E+01 -0.13211468459E+02 -0.11901082950E+02  0.72461584523E+02  0.70000018536E+02 0.  0.
        -12    1    1    2    0    0 -0.58736668594E+01  0.13211468459E+02  0.11901082950E+02  0.18726415477E+02  0.00000000000E+00 0.  1.
         11    1    3    3    0    0  0.56050398221E+01  0.83169079922E+01 -0.89434888460E+01  0.13437761084E+02  0.51100000000E-03 0. -1.
        -11    1    3    3    0    0  0.14698029309E+02 -0.77195992109E+01 -0.24533542619E+02  0.29622947039E+02  0.51100000000E-03 0.  1.
        -12    1    3    3    0    0 -0.14429402271E+02 -0.13808777240E+02  0.21575948515E+02  0.29400876400E+02  0.00000000000E+00 0.  1.
</event>
